Title
82322
    1SAPS     N    1   2.526   0.736  10.937  0.4529  0.1216  0.2099
    1SAPS   HN1    2   2.482   0.784  10.856  0.9948  2.1810  1.0602
    1SAPS   HN2    3   2.611   0.787  10.967  1.0971  0.1767 -1.5898
    1SAPS   HN3    4   2.568   0.644  10.912  2.9057  0.3741  2.8928
    1SAPS   C12    5   2.419   0.716  11.038 -0.6045  0.8738  0.7141
    1SAPS  H12A    6   2.481   0.690  11.123  4.0176  1.3546 -2.1160
    1SAPS   C13    7   2.326   0.834  11.070 -0.2829  0.1508 -0.4525
    1SAPS  O13A    8   2.345   0.941  11.012 -0.2714  0.0028 -0.1058
    1SAPS  O13B    9   2.240   0.826  11.158  0.9542 -0.2799  0.1294
    1SAPS   C11   10   2.331   0.590  11.004 -0.2242  0.5909 -0.5953
    1SAPS  H11A   11   2.259   0.631  10.931 -1.7332  0.5162  0.7944
    1SAPS  H11B   12   2.274   0.564  11.096 -1.2329 -0.0680 -1.3879
    1SAPS     P   13   2.330   0.348  10.912  0.0838 -0.1716  0.0721
    1SAPS   O13   14   2.381   0.225  10.982 -0.4790 -0.6502  0.1742
    1SAPS   O14   15   2.185   0.376  10.905 -0.2994 -0.3866  0.5111
    1SAPS   O12   16   2.408   0.478  10.967  0.2380  0.2791 -0.0095
    1SAPS   O11   17   2.389   0.340  10.763 -0.0255 -0.1599  0.0559
    1SAPS    C1   18   2.380   0.458  10.681 -0.4324  0.4989 -0.4120
    1SAPS    HA   19   2.287   0.514  10.703  0.6076  1.6301  1.3186
    1SAPS    HB   20   2.457   0.530  10.715  0.3615 -0.5069 -0.0234
    1SAPS    C2   21   2.395   0.415  10.527  0.4107  0.4021  0.0383
    1SAPS    HS   22   2.384   0.507  10.465  1.6078 -0.3297 -1.3304
    1SAPS   O21   23   2.290   0.323  10.499  0.2832 -0.5254  0.3757
    1SAPS   C21   24   2.172   0.378  10.500  0.8816  0.1648 -0.0427
    1SAPS   O22   25   2.147   0.499  10.490 -0.0909  0.8974  0.3805
    1SAPS   C22   26   2.052   0.270  10.505 -0.0866 -0.2616  0.2031
    1SAPS   H2R   27   2.100   0.174  10.478  1.5377  0.4199  0.5101
    1SAPS   H2S   28   2.011   0.273  10.609 -0.2300 -2.3725  0.2558
    1SAPS    C3   29   2.530   0.349  10.489 -1.0025  0.0853  0.0574
    1SAPS    HX   30   2.537   0.275  10.572  0.8806  1.2151  0.9822
    1SAPS    HY   31   2.604   0.427  10.518 -1.4161 -0.0201  1.5051
    1SAPS   O31   32   2.532   0.293  10.356  0.6273  0.5486 -0.1079
    1SAPS   C31   33   2.611   0.357  10.284 -1.1827  0.0075 -0.2331
    1SAPS   O32   34   2.686   0.450  10.309 -0.0027 -0.3465  0.6895
    1SAPS   C32   35   2.594   0.311  10.147  0.0813 -0.2247 -0.0828
    1SAPS   H2X   36   2.486   0.294  10.126  0.0342  0.3660 -0.3555
    1SAPS   H2Y   37   2.639   0.211  10.132 -0.7142 -0.4870 -0.7665
    1SAPS   C23   38   1.945   0.299  10.393 -0.2649 -0.4449 -0.5154
    1SAPS   H3R   39   1.925   0.408  10.389  2.4389  0.2343  1.6667
    1SAPS   H3S   40   1.849   0.245  10.407 -1.1720  1.0833 -0.6465
    1SAPS   C24   41   1.995   0.246  10.245  0.9917  0.6055  0.6348
    1SAPS   H4R   42   1.911   0.256  10.173  0.0521 -0.6257  1.4999
    1SAPS   H4S   43   2.013   0.137  10.261 -1.6921 -0.0771 -0.4195
    1SAPS   C25   44   2.125   0.294  10.181 -0.7982  0.6516  0.2422
    1SAPS   H5R   45   2.204   0.220  10.203 -1.9343 -1.0615 -1.1896
    1SAPS   C26   46   2.161   0.417  10.146  0.6713 -0.1910 -0.0820
    1SAPS   H6R   47   2.265   0.441  10.118  0.6976  0.3154  0.4311
    1SAPS   C27   48   2.060   0.530  10.135  0.0775 -0.0174  0.8677
    1SAPS   H7R   49   2.103   0.617  10.081 -2.4485 -0.8390 -2.8219
    1SAPS   H7S   50   2.036   0.574  10.234 -0.3083  0.8585  0.3951
    1SAPS   C28   51   1.932   0.497  10.061 -0.4566 -0.1228 -0.0809
    1SAPS   H8R   52   1.846   0.456  10.117 -1.3624  0.2563 -1.1449
    1SAPS   C29   53   1.922   0.504   9.931  0.2012 -0.5497  0.1299
    1SAPS   H9R   54   1.828   0.472   9.882 -0.3173  1.3461 -0.1810
    1SAPS  C210   55   2.010   0.537   9.818  0.1415 -0.5623 -0.8942
    1SAPS  H10R   56   2.098   0.585   9.866 -0.3214  0.5016 -1.0831
    1SAPS  H10S   57   1.965   0.611   9.748 -2.0745 -1.7197 -0.7502
    1SAPS  C211   58   2.066   0.422   9.738  0.1800 -0.5544  0.3172
    1SAPS  H11R   59   2.137   0.362   9.798 -0.1705 -1.1968  0.1015
    1SAPS  C212   60   2.037   0.383   9.612  0.5657 -0.6091  0.8172
    1SAPS  H12R   61   2.084   0.296   9.564  1.4631 -0.1409  0.8238
    1SAPS  C213   62   1.946   0.463   9.522  0.1641 -0.4981  0.1334
    1SAPS  H13R   63   1.956   0.424   9.418 -0.3053  2.2948 -1.0547
    1SAPS  H13S   64   1.982   0.569   9.523  1.9689 -1.0565  2.2976
    1SAPS  C214   65   1.798   0.458   9.558 -0.5825 -0.0787 -0.1989
    1SAPS  H14R   66   1.768   0.366   9.609 -0.3129 -0.2565 -0.3592
    1SAPS  C215   67   1.709   0.552   9.537  0.7720 -0.7685 -0.3700
    1SAPS  H15R   68   1.603   0.550   9.569  0.6387  2.1950 -0.3704
    1SAPS  C216   69   1.744   0.690   9.485 -0.2407 -0.1267  0.0053
    1SAPS  H16R   70   1.850   0.700   9.453  0.2815 -0.8895  1.4088
    1SAPS  H16S   71   1.710   0.766   9.558 -0.3402  1.2166 -1.3766
    1SAPS  C217   72   1.656   0.727   9.362  0.8427  0.0632  0.6510
    1SAPS  H17R   73   1.669   0.835   9.343 -0.5676  0.1098 -0.1544
    1SAPS  H17S   74   1.549   0.722   9.390  1.0359 -0.3295  1.3678
    1SAPS  C218   75   1.690   0.647   9.237 -0.3331  0.2497  0.3256
    1SAPS  H18R   76   1.644   0.546   9.241 -0.3344  0.2176 -0.4143
    1SAPS  H18S   77   1.801   0.640   9.240 -0.3833 -0.7597  0.0980
    1SAPS  C219   78   1.645   0.724   9.111 -0.2131  1.5876  0.3245
    1SAPS  H19R   79   1.717   0.801   9.078  2.1880 -1.2372 -1.5766
    1SAPS  H19S   80   1.538   0.755   9.117 -1.2279 -0.5739 -3.1648
    1SAPS  C220   81   1.632   0.615   8.993  0.1503  0.0108 -0.7117
    1SAPS  H20R   82   1.730   0.585   8.950  0.1929 -1.4392  0.3200
    1SAPS  H20S   83   1.587   0.651   8.898 -2.0188  0.2333  0.3442
    1SAPS  H20T   84   1.567   0.527   9.012  0.3968  0.2808  1.6501
    1SAPS   C33   85   2.652   0.407  10.044 -0.5797 -0.1133  0.0847
    1SAPS   H3X   86   2.762   0.412  10.061 -0.7134 -0.6635  1.2298
    1SAPS   H3Y   87   2.616   0.511  10.060 -0.4566  0.0323 -0.5539
    1SAPS   C34   88   2.618   0.366   9.898  0.3593  0.2134 -0.2694
    1SAPS   H4X   89   2.510   0.344   9.885  0.4237 -0.7723  0.7906
    1SAPS   H4Y   90   2.673   0.271   9.880 -2.8064 -1.9932  0.8675
    1SAPS   C35   91   2.657   0.464   9.792  0.5142  0.1893  0.5029
    1SAPS   H5X   92   2.768   0.463   9.800  0.5877  1.2290 -0.1903
    1SAPS   H5Y   93   2.612   0.563   9.817  1.7445  0.5122  1.5568
    1SAPS   C36   94   2.631   0.427   9.643  0.6677  0.4155 -0.0084
    1SAPS   H6X   95   2.687   0.333   9.622  1.5370  0.4604  1.9174
    1SAPS   H6Y   96   2.690   0.505   9.590 -0.4033  1.2156 -0.0634
    1SAPS   C37   97   2.478   0.435   9.607  0.9652 -0.0195 -0.2256
    1SAPS   H7X   98   2.442   0.538   9.627 -1.2067 -0.2240 -2.5824
    1SAPS   H7Y   99   2.410   0.377   9.675 -1.8511  2.5024 -0.6687
    1SAPS   C38  100   2.434   0.399   9.461 -0.1949 -0.0905 -0.6116
    1SAPS   H8X  101   2.500   0.454   9.391 -0.6932  0.5435 -0.5860
    1SAPS   H8Y  102   2.327   0.427   9.452 -0.5519 -1.4333 -0.8773
    1SAPS   C39  103   2.448   0.248   9.438 -0.0121 -0.6402  0.1374
    1SAPS   H9X  104   2.420   0.210   9.538 -2.9855  2.7213  0.8015
    1SAPS   H9Y  105   2.556   0.226   9.423 -0.5731 -3.0031 -0.8115
    1SAPS  C310  106   2.360   0.184   9.333  0.2990 -0.3938  0.1934
    1SAPS  H10X  107   2.253   0.195   9.358  0.1361 -2.2155  0.4380
    1SAPS  H10Y  108   2.388   0.076   9.331 -2.9137 -1.3377  0.8092
    1SAPS  C311  109   2.388   0.241   9.195  0.6185  0.1574  0.2149
    1SAPS  H11X  110   2.496   0.226   9.178  1.0692  0.9601  2.1960
    1SAPS  H11Y  111   2.372   0.350   9.185  2.6481  0.3215 -2.7066
    1SAPS  C312  112   2.312   0.178   9.079 -0.2162  0.2426 -0.3534
    1SAPS  H12X  113   2.306   0.067   9.085  2.9705 -0.0316 -0.1069
    1SAPS  H12Y  114   2.367   0.191   8.982  0.7416 -1.1633 -0.0336
    1SAPS  C313  115   2.177   0.254   9.053  0.5517 -0.2911 -0.1534
    1SAPS  H13X  116   2.189   0.365   9.046  1.0791 -0.4506 -2.4954
    1SAPS  H13Y  117   2.115   0.229   9.141  1.4805 -0.9091  0.3408
    1SAPS  C314  118   2.121   0.200   8.918  0.3886 -0.3367  0.1960
    1SAPS  H14X  119   2.017   0.239   8.914 -0.1970 -1.7948  0.7395
    1SAPS  H14Y  120   2.120   0.089   8.916  1.0548 -0.3794  1.1390
    1SAPS  C315  121   2.192   0.259   8.793  0.4352  0.2884  0.1644
    1SAPS  H15X  122   2.300   0.235   8.786  0.4205  0.1201  0.5420
    1SAPS  H15Y  123   2.205   0.369   8.803  1.2529  0.3883 -1.5242
    1SAPS  C316  124   2.124   0.228   8.657 -0.2389 -0.1407 -0.4620
    1SAPS  H16X  125   2.025   0.277   8.663 -0.1086  0.2806 -1.5029
    1SAPS  H16Y  126   2.104   0.119   8.646  1.2570 -0.2658 -2.7447
    1SAPS  C317  127   2.192   0.282   8.533 -0.4797 -1.4899  0.0362
    1SAPS  H17X  128   2.231   0.385   8.551  1.6518 -1.6426 -3.0188
    1SAPS  H17Y  129   2.112   0.291   8.457 -0.8797  1.3519  0.6578
    1SAPS  C318  130   2.318   0.207   8.483 -0.2968 -0.4785 -0.6217
    1SAPS  H18X  131   2.393   0.198   8.564  0.3794 -0.0388 -1.1902
    1SAPS  H18Y  132   2.369   0.263   8.402 -1.1013 -0.3054 -1.0203
    1SAPS  H18Z  133   2.288   0.106   8.447 -1.6513 -0.6168  0.7461
    2SAPS     N  134   1.319   5.166  10.452  0.2927  0.0767 -0.2924
    2SAPS   HN1  135   1.304   5.269  10.462 -2.9719 -0.4411  1.4280
    2SAPS   HN2  136   1.419   5.138  10.452  0.1424 -0.5516 -2.0432
    2SAPS   HN3  137   1.274   5.119  10.371  0.5600 -0.9994  0.1747
    2SAPS   C12  138   1.267   5.096  10.565 -0.0671  0.2282 -0.3467
    2SAPS  H12A  139   1.235   5.001  10.526  2.2443 -1.0841  0.7270
    2SAPS   C13  140   1.380   5.067  10.666 -0.4732  0.2973 -0.2399
    2SAPS  O13A  141   1.498   5.110  10.662 -0.5460 -0.5511  0.0501
    2SAPS  O13B  142   1.353   4.982  10.753  0.3020  0.3732  0.0046
    2SAPS   C11  143   1.143   5.167  10.623 -0.5474  0.1298  0.1398
    2SAPS  H11A  144   1.172   5.272  10.644 -0.0060  0.1308 -0.5798
    2SAPS  H11B  145   1.120   5.123  10.723  0.7750 -0.5417  0.1702
    2SAPS     P  146   0.917   5.057  10.538 -0.4550  0.1843  0.7132
    2SAPS   O13  147   0.971   4.933  10.604  1.3689 -0.6688 -0.4536
    2SAPS   O14  148   0.799   5.122  10.601 -0.1585 -0.5085  0.3955
    2SAPS   O12  149   1.035   5.156  10.530 -0.0844  0.0787 -0.8158
    2SAPS   O11  150   0.872   5.031  10.384  0.0636 -0.1436 -0.5626
    2SAPS    C1  151   0.957   4.935  10.307  0.5379  0.0759  0.3565
    2SAPS    HA  152   1.060   4.946  10.347  1.0133 -0.3340 -0.7258
    2SAPS    HB  153   0.924   4.830  10.322  1.8042 -0.2943  0.7086
    2SAPS    C2  154   0.957   4.976  10.157  0.0632 -0.2076  0.8743
    2SAPS    HS  155   1.044   4.937  10.101 -1.6173 -2.3877 -0.3744
    2SAPS   O21  156   0.973   5.121  10.148  0.2017  0.0656 -0.1639
    2SAPS   C21  157   1.100   5.177  10.167 -0.2957 -0.3021 -0.4896
    2SAPS   O22  158   1.196   5.121  10.211 -0.2171  0.4606 -0.0475
    2SAPS   C22  159   1.104   5.329  10.139  0.4456  0.5915  0.2682
    2SAPS   H2R  160   1.003   5.375  10.131  0.5335  0.7677  0.1745
    2SAPS   H2S  161   1.172   5.372  10.215 -1.2232  0.7467  1.7349
    2SAPS    C3  162   0.825   4.933  10.090 -0.5473 -0.0323 -0.3733
    2SAPS    HX  163   0.749   5.012  10.109  0.3318  1.0189 -1.1789
    2SAPS    HY  164   0.783   4.841  10.138  1.9660  0.5559  3.3874
    2SAPS   O31  165   0.844   4.923   9.948  0.6302 -0.1296  0.0935
    2SAPS   C31  166   0.756   4.850   9.888 -0.0601  0.4718  0.6953
    2SAPS   O32  167   0.654   4.816   9.945  0.1052 -0.1569 -0.1336
    2SAPS   C32  168   0.798   4.833   9.739  0.2379  0.5042  0.6282
    2SAPS   H2X  169   0.875   4.753   9.732  0.3940  0.6458  0.7463
    2SAPS   H2Y  170   0.842   4.932   9.715  0.7448 -0.2597 -1.9943
    2SAPS   C23  171   1.179   5.358  10.010 -0.5309  0.6368 -0.0559
    2SAPS   H3R  172   1.270   5.295  10.011 -0.3791  0.8020 -1.7389
    2SAPS   H3S  173   1.204   5.465  10.030 -0.5753  0.3960  1.4140
    2SAPS   C24  174   1.113   5.356   9.873 -0.1403  0.3330  0.3481
    2SAPS   H4R  175   1.194   5.388   9.804 -1.2081 -0.6766 -1.4555
    2SAPS   H4S  176   1.029   5.427   9.856  0.7687  1.1372 -0.9777
    2SAPS   C25  177   1.076   5.213   9.833  0.2250  0.1557  0.4556
    2SAPS   H5R  178   1.013   5.155   9.903  2.6132 -1.2107  1.5976
    2SAPS   C26  179   1.127   5.143   9.732  0.3533 -0.2443 -0.5520
    2SAPS   H6R  180   1.093   5.040   9.714 -1.9273  0.1244  1.1918
    2SAPS   C27  181   1.231   5.188   9.629  0.3936 -0.3218 -0.2689
    2SAPS   H7R  182   1.324   5.199   9.689 -1.0929  0.8453  1.9658
    2SAPS   H7S  183   1.203   5.284   9.580 -0.0350 -1.2769 -1.9863
    2SAPS   C28  184   1.259   5.085   9.529 -0.3191 -0.2623  0.4788
    2SAPS   H8R  185   1.304   4.992   9.570 -1.1738 -1.1641 -0.5650
    2SAPS   C29  186   1.237   5.078   9.397 -0.8904  0.3523 -0.2768
    2SAPS   H9R  187   1.267   4.980   9.357 -1.3146 -0.0655  0.4289
    2SAPS  C210  188   1.192   5.184   9.304 -0.4160  0.1154  0.4289
    2SAPS  H10R  189   1.198   5.283   9.353  2.6242 -0.2590  1.0135
    2SAPS  H10S  190   1.087   5.167   9.271  0.4554 -1.3734 -1.8127
    2SAPS  C211  191   1.281   5.184   9.178 -0.3573  0.8435 -0.7361
    2SAPS  H11R  192   1.385   5.218   9.193  0.1919 -1.1064  0.2042
    2SAPS  C212  193   1.236   5.172   9.052 -0.3320  0.0856 -0.9994
    2SAPS  H12R  194   1.307   5.178   8.968 -0.0390 -0.6694 -0.8094
    2SAPS  C213  195   1.100   5.143   8.995  0.2899  0.0186 -0.3793
    2SAPS  H13R  196   1.078   5.224   8.923 -2.0180 -0.4965 -0.3467
    2SAPS  H13S  197   1.015   5.155   9.067  0.1187 -1.8927 -0.2080
    2SAPS  C214  198   1.110   4.999   8.946 -0.3342 -0.4005  0.0734
    2SAPS  H14R  199   1.170   4.930   9.007  0.5472 -0.1962 -0.5433
    2SAPS  C215  200   1.040   4.950   8.845  0.1621 -0.4448  1.1703
    2SAPS  H15R  201   1.048   4.844   8.814  3.4542 -0.2449  1.0264
    2SAPS  C216  202   0.944   5.035   8.766  0.0322  0.2726  0.2896
    2SAPS  H16R  203   0.973   5.143   8.761 -1.1388  0.5922  0.1961
    2SAPS  H16S  204   0.846   5.039   8.817 -0.7246 -3.2874 -0.6677
    2SAPS  C217  205   0.938   4.987   8.619  0.1768 -0.1078 -0.7046
    2SAPS  H17R  206   0.874   5.060   8.567 -1.6759 -0.7745  0.5537
    2SAPS  H17S  207   0.886   4.889   8.620  1.9513 -1.1435  2.3936
    2SAPS  C218  208   1.075   4.971   8.552  0.3198 -0.1773  0.1538
    2SAPS  H18R  209   1.100   4.864   8.568 -0.3248 -0.2190  0.9393
    2SAPS  H18S  210   1.158   5.036   8.587  0.0793  0.3341 -0.2127
    2SAPS  C219  211   1.065   4.998   8.392 -0.0292 -0.4202 -0.1254
    2SAPS  H19R  212   1.044   5.105   8.369 -2.7895 -0.6048  1.1075
    2SAPS  H19S  213   0.975   4.941   8.357 -1.3083  2.1149 -1.2442
    2SAPS  C220  214   1.184   4.951   8.309  0.6645  0.5939 -0.4005
    2SAPS  H20R  215   1.205   4.851   8.351 -0.0411  0.3715 -0.5666
    2SAPS  H20S  216   1.278   5.009   8.320 -0.3548  2.4571 -0.8889
    2SAPS  H20T  217   1.154   4.945   8.202 -1.9855 -0.0043  0.2825
    2SAPS   C33  218   0.688   4.792   9.638 -0.3111  0.1667 -1.0123
    2SAPS   H3X  219   0.606   4.863   9.664  0.4949  0.2217  1.7077
    2SAPS   H3Y  220   0.659   4.691   9.673  0.7180 -0.0566 -0.7604
    2SAPS   C34  221   0.736   4.780   9.496 -0.3430 -0.3339  0.1806
    2SAPS   H4X  222   0.680   4.705   9.438 -2.5529  0.8389  0.6975
    2SAPS   H4Y  223   0.838   4.736   9.500  0.2943  1.0267 -0.4058
    2SAPS   C35  224   0.743   4.917   9.424  0.1988  0.3417  0.0907
    2SAPS   H5X  225   0.793   4.993   9.489 -0.2689 -0.3638  1.3048
    2SAPS   H5Y  226   0.639   4.953   9.409 -0.0282 -0.7303 -1.0764
    2SAPS   C36  227   0.795   4.931   9.282 -0.1052 -0.1600 -0.3682
    2SAPS   H6X  228   0.900   4.900   9.267  0.1014  0.2592  0.1756
    2SAPS   H6Y  229   0.811   5.037   9.252  0.3425 -0.0490  0.2431
    2SAPS   C37  230   0.714   4.857   9.175  0.1683  0.6292  0.3097
    2SAPS   H7X  231   0.610   4.896   9.178 -0.6727 -1.5243  2.3136
    2SAPS   H7Y  232   0.705   4.751   9.205 -1.8853  0.5735 -0.3522
    2SAPS   C38  233   0.773   4.869   9.032 -0.1580  0.5023 -0.1998
    2SAPS   H8X  234   0.875   4.825   9.025 -0.6742 -0.4064 -2.9813
    2SAPS   H8Y  235   0.776   4.979   9.016 -0.5012  0.3192 -1.5955
    2SAPS   C39  236   0.694   4.809   8.914 -0.1572  0.9247  0.1935
    2SAPS   H9X  237   0.680   4.702   8.938  0.4748  0.4346 -1.4996
    2SAPS   H9Y  238   0.756   4.806   8.822 -0.2117  0.3363  0.1710
    2SAPS  C310  239   0.553   4.870   8.889 -0.1889 -0.2147  0.3510
    2SAPS  H10X  240   0.553   4.981   8.901 -1.8916 -0.3675  2.1353
    2SAPS  H10Y  241   0.484   4.841   8.971 -1.2938 -0.8735 -0.7821
    2SAPS  C311  242   0.493   4.829   8.754  0.7472 -0.0946 -0.9058
    2SAPS  H11X  243   0.386   4.858   8.756  0.5707 -0.7466  0.9841
    2SAPS  H11Y  244   0.496   4.720   8.733 -1.4680 -0.1744 -1.0270
    2SAPS  C312  245   0.568   4.897   8.638  0.1108 -0.0955  0.7043
    2SAPS  H12X  246   0.549   4.845   8.541  2.5818  0.5865 -0.2128
    2SAPS  H12Y  247   0.678   4.892   8.650  0.1701  1.1639  0.8264
    2SAPS  C313  248   0.534   5.047   8.607 -0.3780 -0.2270 -0.7418
    2SAPS  H13X  249   0.595   5.077   8.519 -0.2845 -1.5597 -1.1593
    2SAPS  H13Y  250   0.556   5.095   8.705 -1.8181 -0.5899 -0.2145
    2SAPS  C314  251   0.380   5.064   8.576 -0.7501 -0.3685 -0.5838
    2SAPS  H14X  252   0.314   5.077   8.664 -0.3444  1.1484 -0.4747
    2SAPS  H14Y  253   0.358   4.982   8.504  1.4751 -0.9598 -0.6732
    2SAPS  C315  254   0.355   5.195   8.498 -0.4854  0.5564  0.2790
    2SAPS  H15X  255   0.417   5.272   8.548  1.4910 -0.4662 -0.4741
    2SAPS  H15Y  256   0.244   5.195   8.491 -0.7359 -3.2265  1.6566
    2SAPS  C316  257   0.406   5.199   8.350 -0.2917  0.3587 -0.4378
    2SAPS  H16X  258   0.342   5.128   8.294  0.4252 -1.1045  0.5345
    2SAPS  H16Y  259   0.505   5.149   8.343 -1.1113 -1.8126  1.8967
    2SAPS  C317  260   0.389   5.340   8.282 -0.2805 -0.1519  0.1595
    2SAPS  H17X  261   0.412   5.337   8.173 -1.1754 -1.0353 -0.0097
    2SAPS  H17Y  262   0.467   5.410   8.320 -2.9083  1.8078  2.3680
    2SAPS  C318  263   0.253   5.395   8.305  0.5146  0.2862 -0.1514
    2SAPS  H18X  264   0.237   5.491   8.251 -0.3261 -0.0984 -0.6115
    2SAPS  H18Y  265   0.222   5.420   8.409 -1.9428 -0.9534 -0.5062
    2SAPS  H18Z  266   0.174   5.326   8.268  2.0919 -1.6594 -0.0730
    3SAPS     N  267   5.860   0.570  10.861 -0.0536  0.2626  0.0342
    3SAPS   HN1  268   5.908   0.625  10.934 -3.4687 -0.8443  3.4745
    3SAPS   HN2  269   5.854   0.636  10.781  1.9569 -0.2310 -0.5670
    3SAPS   HN3  270   5.771   0.535  10.903 -0.6371  1.6712  0.0383
    3SAPS   C12  271   5.946   0.465  10.799  0.1161  0.1526 -0.4932
    3SAPS  H12A  272   6.028   0.510  10.746 -0.7243  1.5944 -0.6206
    3SAPS   C13  273   6.004   0.364  10.903 -0.3352 -0.5940  0.6446
    3SAPS  O13A  274   5.968   0.383  11.021 -0.0617 -0.0856  0.0687
    3SAPS  O13B  275   6.100   0.282  10.872 -0.3556 -0.0014 -0.4927
    3SAPS   C11  276   5.851   0.375  10.711  0.4036  0.0981  0.4479
    3SAPS  H11A  277   5.917   0.312  10.647  3.4109  1.2333  2.2485
    3SAPS  H11B  278   5.800   0.443  10.639 -1.6332  0.0560  1.7868
    3SAPS     P  279   5.606   0.338  10.798 -0.1098 -0.1626 -0.0690
    3SAPS   O13  280   5.535   0.229  10.878 -0.2910 -0.2235  0.7322
    3SAPS   O14  281   5.618   0.471  10.866  0.7510  0.4476 -0.3844
    3SAPS   O12  282   5.755   0.284  10.780  0.1242 -0.2609  0.3729
    3SAPS   O11  283   5.548   0.359  10.652 -0.4673 -0.0822 -0.9780
    3SAPS    C1  284   5.486   0.238  10.592  0.2909  0.0047 -0.5194
    3SAPS    HA  285   5.414   0.190  10.662  3.1997 -1.8818  1.4246
    3SAPS    HB  286   5.429   0.271  10.503  0.8852  1.0561 -0.5278
    3SAPS    C2  287   5.595   0.136  10.552 -0.8565 -0.5095  0.4707
    3SAPS    HS  288   5.638   0.090  10.643 -1.9017 -1.7566  0.3783
    3SAPS   O21  289   5.689   0.196  10.463 -0.0038  0.1230  0.6028
    3SAPS   C21  290   5.802   0.130  10.451 -0.3490  0.0045  0.5673
    3SAPS   O22  291   5.837   0.032  10.516 -0.0359  0.8195 -0.2885
    3SAPS   C22  292   5.893   0.195  10.343  0.2952 -0.3417  0.5161
    3SAPS   H2R  293   5.886   0.306  10.354 -0.2717 -0.2886 -0.2968
    3SAPS   H2S  294   5.996   0.165  10.370  0.1888  0.5988  2.1027
    3SAPS    C3  295   5.526   0.011  10.480  0.1670  0.5586  0.1755
    3SAPS    HX  296   5.468  -0.032  10.565  0.9035 -0.8005  0.0134
    3SAPS    HY  297   5.608  -0.060  10.459  0.6067  1.0414  0.2516
    3SAPS   O31  298   5.444   0.050  10.372  0.8255  0.7660  1.0216
    3SAPS   C31  299   5.452  -0.019  10.254  0.7480 -0.6210 -0.0628
    3SAPS   O32  300   5.506  -0.126  10.243 -0.5217 -0.0585 -0.3828
    3SAPS   C32  301   5.352   0.042  10.158  0.2363  0.3068 -0.0476
    3SAPS   H2X  302   5.381   0.149  10.167 -1.7135  0.8157  0.5136
    3SAPS   H2Y  303   5.248   0.028  10.194  0.5600  1.9269  1.6949
    3SAPS   C23  304   5.857   0.153  10.197  0.1765 -0.3952 -0.1615
    3SAPS   H3R  305   5.900   0.230  10.129  1.2835  0.9973  2.0023
    3SAPS   H3S  306   5.747   0.165  10.187 -0.0520 -2.3567 -0.3938
    3SAPS   C24  307   5.886   0.003  10.165  0.3302  0.1063  0.8181
    3SAPS   H4R  308   5.856  -0.034  10.064  1.0036 -2.0648  1.3572
    3SAPS   H4S  309   5.808  -0.046  10.227 -1.4820  0.7154 -0.8496
    3SAPS   C25  310   6.028  -0.040  10.189 -0.0543  0.5385 -0.2288
    3SAPS   H5R  311   6.047  -0.082  10.289  1.6297  1.9734  0.1035
    3SAPS   C26  312   6.127  -0.039  10.098  0.2157  0.0853  0.0406
    3SAPS   H6R  313   6.229  -0.070  10.124  0.2558  1.0036  1.0469
    3SAPS   C27  314   6.111   0.021   9.962 -0.5383  0.0713  0.1191
    3SAPS   H7R  315   6.057   0.117   9.969 -1.9034 -0.7208  0.7796
    3SAPS   H7S  316   6.054  -0.050   9.898  0.5104  0.1901 -0.9833
    3SAPS   C28  317   6.243   0.041   9.891 -0.2597  0.8160 -0.3414
    3SAPS   H8R  318   6.332   0.036   9.955  0.0653 -1.6398 -0.8811
    3SAPS   C29  319   6.254   0.048   9.756  0.6371 -1.5927  0.0191
    3SAPS   H9R  320   6.350   0.030   9.706 -0.0320 -1.7461 -1.2554
    3SAPS  C210  321   6.128   0.048   9.672  0.6196 -0.6968 -0.1943
    3SAPS  H10R  322   6.144   0.115   9.585 -2.3111  3.0345  1.8569
    3SAPS  H10S  323   6.038   0.100   9.711 -0.3785 -2.3546 -0.1537
    3SAPS  C211  324   6.080  -0.088   9.629 -0.2363 -0.2936  0.2123
    3SAPS  H11R  325   6.005  -0.136   9.695 -1.6893 -2.3496 -2.7051
    3SAPS  C212  326   6.124  -0.157   9.521  0.0371  0.3322 -0.1076
    3SAPS  H12R  327   6.081  -0.256   9.501  0.3694  0.0771  0.4198
    3SAPS  C213  328   6.220  -0.106   9.414 -0.0633  0.5007  0.1271
    3SAPS  H13R  329   6.318  -0.104   9.468 -1.1631 -0.2945  2.2588
    3SAPS  H13S  330   6.205   0.002   9.391  0.9194  0.1185 -2.6817
    3SAPS  C214  331   6.232  -0.190   9.287 -0.8206  1.0464  0.2591
    3SAPS  H14R  332   6.176  -0.284   9.287 -0.0088  0.5404 -0.7016
    3SAPS  C215  333   6.309  -0.163   9.178  0.5035 -0.3474 -0.5493
    3SAPS  H15R  334   6.298  -0.233   9.093 -1.1248 -0.1764 -0.5028
    3SAPS  C216  335   6.414  -0.055   9.156  0.0837  0.4995 -0.5815
    3SAPS  H16R  336   6.515  -0.102   9.152 -0.8048 -1.6713  0.6163
    3SAPS  H16S  337   6.425   0.021   9.236  2.2375 -0.7831  0.4443
    3SAPS  C217  338   6.400   0.031   9.031 -0.2829 -0.0546  0.1357
    3SAPS  H17R  339   6.484   0.102   9.042 -1.5124  1.5386 -0.2941
    3SAPS  H17S  340   6.307   0.090   9.045 -2.6301 -2.6476 -2.8252
    3SAPS  C218  341   6.407  -0.055   8.912  1.7150 -0.6221  0.3723
    3SAPS  H18R  342   6.315  -0.116   8.905  1.4615 -0.6531  2.9104
    3SAPS  H18S  343   6.493  -0.126   8.915  1.6702 -0.7238 -0.5018
    3SAPS  C219  344   6.415   0.037   8.780 -0.3061  0.7743 -0.0351
    3SAPS  H19R  345   6.320   0.086   8.748  0.8492  0.9852 -3.5649
    3SAPS  H19S  346   6.443  -0.031   8.697  1.6945 -1.1013  2.0301
    3SAPS  C220  347   6.520   0.144   8.785 -0.0789 -0.1526 -0.2207
    3SAPS  H20R  348   6.476   0.219   8.854 -0.6539 -2.1500  1.6782
    3SAPS  H20S  349   6.530   0.191   8.685 -0.7627 -0.4701 -0.4438
    3SAPS  H20T  350   6.620   0.113   8.822 -0.2131  2.0939  2.3720
    3SAPS   C33  351   5.394  -0.005  10.021 -0.2785 -0.1774  0.2076
    3SAPS   H3X  352   5.319   0.022   9.943  0.8219 -1.7866 -1.5056
    3SAPS   H3Y  353   5.400  -0.116  10.016 -2.1306 -0.2609 -1.0371
    3SAPS   C34  354   5.532   0.061   9.978 -0.0452  0.0401  0.5160
    3SAPS   H4X  355   5.614   0.018  10.039  1.9685  1.0874 -1.2887
    3SAPS   H4Y  356   5.528   0.170   9.996  0.2632  0.0090  0.7802
    3SAPS   C35  357   5.564   0.037   9.828 -0.2953 -0.4100  0.0933
    3SAPS   H5X  358   5.475   0.087   9.785  0.3077  0.4310 -0.2236
    3SAPS   H5Y  359   5.555  -0.073   9.817 -0.2981 -0.3473 -0.5471
    3SAPS   C36  360   5.689   0.093   9.774 -0.6931  0.5111 -0.1084
    3SAPS   H6X  361   5.774   0.058   9.836  1.5816  2.9374 -1.6356
    3SAPS   H6Y  362   5.679   0.204   9.785  1.0465  0.6817 -0.0022
    3SAPS   C37  363   5.719   0.046   9.625  0.0511 -0.3985 -0.9280
    3SAPS   H7X  364   5.717  -0.065   9.611 -0.5242 -0.5662  0.4026
    3SAPS   H7Y  365   5.824   0.075   9.604  0.2294 -0.1697  0.2489
    3SAPS   C38  366   5.633   0.113   9.524 -0.1010 -1.0103 -0.5963
    3SAPS   H8X  367   5.641   0.223   9.528 -0.0647 -1.0382  0.2944
    3SAPS   H8Y  368   5.528   0.081   9.545 -0.1000 -0.3484  0.5019
    3SAPS   C39  369   5.657   0.063   9.380  0.3986  0.7447  0.0972
    3SAPS   H9X  370   5.590   0.130   9.322  0.9156 -0.3444 -1.8414
    3SAPS   H9Y  371   5.621  -0.041   9.364 -1.6682  1.7926 -3.1619
    3SAPS  C310  372   5.806   0.080   9.336  0.1326  0.7972  0.8609
    3SAPS  H10X  373   5.865   0.008   9.398  1.9047  0.9949 -0.5173
    3SAPS  H10Y  374   5.831   0.183   9.368 -1.8744  1.3113  0.8764
    3SAPS  C311  375   5.820   0.051   9.190 -0.3400 -0.3537 -0.2639
    3SAPS  H11X  376   5.757   0.126   9.135 -1.2881  0.2314  1.5423
    3SAPS  H11Y  377   5.778  -0.047   9.159 -0.0998 -0.6113  0.2201
    3SAPS  C312  378   5.961   0.084   9.134 -0.0779  0.7528  0.3389
    3SAPS  H12X  379   6.022  -0.002   9.168 -1.4680  0.6109  2.6833
    3SAPS  H12Y  380   5.999   0.183   9.167 -0.3847  0.8707  0.3463
    3SAPS  C313  381   5.957   0.093   8.984  0.0242  0.1581  0.0256
    3SAPS  H13X  382   5.894   0.006   8.953 -1.5454  1.4885 -0.7175
    3SAPS  H13Y  383   6.059   0.072   8.945  0.0333 -0.4836  0.3765
    3SAPS  C314  384   5.904   0.230   8.932  0.1564  0.2421  0.0725
    3SAPS  H14X  385   5.957   0.318   8.974  1.1161  0.3600 -1.3152
    3SAPS  H14Y  386   5.799   0.248   8.965 -0.2544  3.4169 -2.4039
    3SAPS  C315  387   5.890   0.240   8.777  0.0733 -0.1879  0.2664
    3SAPS  H15X  388   5.975   0.202   8.717 -0.5215 -3.3029  1.2222
    3SAPS  H15Y  389   5.888   0.351   8.765  0.2429 -0.1143  0.8925
    3SAPS  C316  390   5.768   0.163   8.725  0.5192 -0.3454 -0.3915
    3SAPS  H16X  391   5.674   0.195   8.774  1.3799 -0.9695  1.7826
    3SAPS  H16Y  392   5.786   0.057   8.756 -3.5172 -0.6113  1.5953
    3SAPS  C317  393   5.747   0.180   8.575  0.6184 -0.7533 -0.7283
    3SAPS  H17X  394   5.840   0.148   8.524  0.6993 -2.3421  0.3496
    3SAPS  H17Y  395   5.739   0.290   8.561  1.4084 -0.6603 -0.4841
    3SAPS  C318  396   5.627   0.108   8.528  0.5361 -0.1057 -0.3090
    3SAPS  H18X  397   5.626   0.119   8.418  0.0178  0.2392 -0.2711
    3SAPS  H18Y  398   5.526   0.138   8.564  0.5998  0.6200 -0.7190
    3SAPS  H18Z  399   5.638  -0.001   8.545  0.6723 -0.0954 -0.3263
    4SAPS     N  400   2.087   3.117  10.929  0.1287  0.1173  0.3920
    4SAPS   HN1  401   2.094   3.131  10.826  0.8938 -0.4089  0.3591
    4SAPS   HN2  402   2.021   3.042  10.955 -0.1679 -0.1310 -1.0175
    4SAPS   HN3  403   2.048   3.204  10.971 -1.6814 -0.6903  0.4340
    4SAPS   C12  404   2.219   3.081  10.981 -0.2288  0.3178 -0.8512
    4SAPS  H12A  405   2.300   3.126  10.926  0.8840 -1.8739 -1.1231
    4SAPS   C13  406   2.227   3.130  11.130 -0.1217  0.2051 -0.0501
    4SAPS  O13A  407   2.130   3.195  11.178 -0.0423 -0.2402  0.3830
    4SAPS  O13B  408   2.335   3.121  11.187  0.9547  0.4454 -0.0673
    4SAPS   C11  409   2.248   2.925  10.970  0.5514  0.2077 -0.3008
    4SAPS  H11A  410   2.172   2.872  11.031  1.0411 -3.9007 -2.8844
    4SAPS  H11B  411   2.347   2.912  11.019  0.0189 -0.3208  0.6690
    4SAPS     P  412   2.226   2.719  10.814  0.2420  0.1396 -0.0320
    4SAPS   O13  413   2.360   2.661  10.835 -0.4308  0.2287  0.8136
    4SAPS   O14  414   2.117   2.659  10.898 -0.3879  0.3226  0.8529
    4SAPS   O12  415   2.234   2.874  10.835 -0.1453  0.3482  0.0657
    4SAPS   O11  416   2.178   2.698  10.669  0.0995 -0.1404  0.0817
    4SAPS    C1  417   2.100   2.793  10.596  0.1051 -0.4011  0.0457
    4SAPS    HA  418   2.005   2.749  10.558 -0.7074  2.5883 -1.6794
    4SAPS    HB  419   2.080   2.888  10.650  0.2128 -0.4925  0.2474
    4SAPS    C2  420   2.180   2.832  10.468 -0.5363  0.4779 -0.1139
    4SAPS    HS  421   2.112   2.884  10.398 -0.9043  1.8901  1.2391
    4SAPS   O21  422   2.226   2.703  10.411 -0.2300  0.3528 -0.3148
    4SAPS   C21  423   2.132   2.634  10.344  0.3115 -0.1162 -0.0706
    4SAPS   O22  424   2.022   2.680  10.317 -0.2566  0.1901 -0.2148
    4SAPS   C22  425   2.175   2.499  10.288  0.8062  0.1298 -0.4084
    4SAPS   H2R  426   2.227   2.525  10.193  3.0568 -1.0609  0.4040
    4SAPS   H2S  427   2.256   2.464  10.356  0.2319  1.6281  1.1072
    4SAPS    C3  428   2.309   2.910  10.506  0.6484  0.1841  0.3870
    4SAPS    HX  429   2.369   2.840  10.568 -0.5002  0.1477  1.5208
    4SAPS    HY  430   2.278   2.994  10.573 -1.2570 -0.2667  0.1270
    4SAPS   O31  431   2.384   2.939  10.394 -0.1145 -0.1421  0.2689
    4SAPS   C31  432   2.464   3.041  10.390  0.2682  0.1071 -0.9580
    4SAPS   O32  433   2.497   3.112  10.482 -0.2682 -0.4571 -0.1079
    4SAPS   C32  434   2.515   3.057  10.244  0.2242  0.4103 -0.6974
    4SAPS   H2X  435   2.437   3.130  10.214 -0.0264  0.3516 -0.1934
    4SAPS   H2Y  436   2.484   2.972  10.180  1.1740  0.6939 -1.5660
    4SAPS   C23  437   2.055   2.405  10.267 -0.4663  0.2182  0.0048
    4SAPS   H3R  438   1.982   2.453  10.198 -0.0920  0.2417 -0.3823
    4SAPS   H3S  439   2.024   2.386  10.372  1.5805  1.9742  0.9920
    4SAPS   C24  440   2.095   2.267  10.196  0.9164 -0.4028  0.1332
    4SAPS   H4R  441   2.197   2.228  10.217  1.6710  2.0774  1.4012
    4SAPS   H4S  442   2.093   2.292  10.088 -0.1550 -1.0216 -0.0024
    4SAPS   C25  443   1.996   2.159  10.236  0.4330  0.4041  0.2505
    4SAPS   H5R  444   1.991   2.147  10.345 -0.2933 -0.2402  0.1510
    4SAPS   C26  445   1.917   2.087  10.151 -0.4005  0.0102 -0.4314
    4SAPS   H6R  446   1.856   2.013  10.205  0.4600  0.8529  1.8105
    4SAPS   C27  447   1.901   2.084  10.000 -0.1920 -0.0988 -0.4410
    4SAPS   H7R  448   1.951   2.173   9.956  1.3953 -0.0863  1.2316
    4SAPS   H7S  449   1.793   2.070   9.982 -0.3621 -1.7329  1.4124
    4SAPS   C28  450   1.973   1.965   9.931  0.5043  0.3489 -0.5320
    4SAPS   H8R  451   1.996   1.878   9.994 -1.4348  0.2231  0.0690
    4SAPS   C29  452   2.034   1.971   9.811  0.6206 -0.1289 -0.1945
    4SAPS   H9R  453   2.085   1.882   9.771  0.3035  0.1082 -1.1523
    4SAPS  C210  454   2.037   2.083   9.703  0.8054 -0.3238 -0.3860
    4SAPS  H10R  455   1.994   2.174   9.749 -0.1996 -1.1481  0.3516
    4SAPS  H10S  456   1.973   2.047   9.620 -1.1035 -0.3391  1.0229
    4SAPS  C211  457   2.179   2.110   9.651  1.0100  0.2124 -0.3835
    4SAPS  H11R  458   2.257   2.100   9.728 -0.4854 -1.3974  1.0187
    4SAPS  C212  459   2.206   2.149   9.528  0.0834 -0.4633  0.1389
    4SAPS  H12R  460   2.311   2.180   9.515 -0.2182  0.1396 -1.0116
    4SAPS  C213  461   2.116   2.157   9.402  0.4962 -0.0990  0.1241
    4SAPS  H13R  462   2.018   2.200   9.434 -0.5338 -2.4916  0.3771
    4SAPS  H13S  463   2.092   2.056   9.364 -1.1631 -0.1401  1.1480
    4SAPS  C214  464   2.169   2.249   9.298 -0.9381  0.3544  0.7107
    4SAPS  H14R  465   2.191   2.352   9.331 -0.6606  1.1233 -1.7003
    4SAPS  C215  466   2.177   2.229   9.163 -0.3891  0.6381 -0.0050
    4SAPS  H15R  467   2.219   2.310   9.102 -0.3228  1.2938  0.8734
    4SAPS  C216  468   2.136   2.101   9.099 -0.0117  0.0544  0.5500
    4SAPS  H16R  469   2.050   2.127   9.033  0.5595  1.3628  0.2954
    4SAPS  H16S  470   2.097   2.029   9.174 -2.4690  0.3223 -0.3903
    4SAPS  C217  471   2.248   2.023   9.025  0.1000  0.0202 -0.3574
    4SAPS  H17R  472   2.202   1.930   8.984 -1.7902  0.5541  0.4414
    4SAPS  H17S  473   2.317   1.987   9.104 -1.6172 -1.5304  0.5278
    4SAPS  C218  474   2.308   2.096   8.907 -0.5217  0.0951  0.6047
    4SAPS  H18R  475   2.373   2.027   8.849 -0.3182  0.3276  0.5518
    4SAPS  H18S  476   2.369   2.178   8.950 -0.7783  1.5947 -1.7057
    4SAPS  C219  477   2.202   2.160   8.804  0.1403 -0.2707  0.1433
    4SAPS  H19R  478   2.123   2.216   8.858  0.4748 -0.3759  0.7545
    4SAPS  H19S  479   2.142   2.074   8.767  1.8438 -1.3773 -0.1760
    4SAPS  C220  480   2.263   2.226   8.679  0.1634  0.6903 -0.1187
    4SAPS  H20R  481   2.193   2.288   8.619 -0.5314 -0.2481 -0.3053
    4SAPS  H20S  482   2.324   2.153   8.621 -0.5010  1.0178 -1.2548
    4SAPS  H20T  483   2.337   2.295   8.726 -1.6789  2.8071 -0.1466
    4SAPS   C33  484   2.653   3.118  10.213  0.0187  0.0803  0.4780
    4SAPS   H3X  485   2.731   3.038  10.208 -0.9743 -0.8722 -0.2598
    4SAPS   H3Y  486   2.683   3.179  10.300 -1.1025  1.1209  0.1498
    4SAPS   C34  487   2.642   3.213  10.091 -0.4007  0.1283  0.8349
    4SAPS   H4X  488   2.742   3.262  10.088 -0.1875 -0.3200  0.3295
    4SAPS   H4Y  489   2.561   3.288  10.100 -0.9048 -0.2460 -0.3266
    4SAPS   C35  490   2.634   3.138   9.956  0.7686 -0.0480  0.4314
    4SAPS   H5X  491   2.530   3.098   9.950  0.0579  1.8385 -0.7198
    4SAPS   H5Y  492   2.717   3.065   9.948  2.1672  1.5694 -0.2435
    4SAPS   C36  493   2.647   3.230   9.835  0.0413  0.0886 -0.3063
    4SAPS   H6X  494   2.734   3.298   9.847  0.9011 -0.7967 -1.3139
    4SAPS   H6Y  495   2.558   3.295   9.848 -0.0569 -0.2719  1.0035
    4SAPS   C37  496   2.651   3.165   9.702 -0.0525  0.2218 -0.4226
    4SAPS   H7X  497   2.550   3.120   9.691 -0.4014  0.8855 -0.0173
    4SAPS   H7Y  498   2.718   3.077   9.707 -1.2550 -0.6731  0.5567
    4SAPS   C38  499   2.656   3.262   9.578  0.5700 -0.5512 -0.1221
    4SAPS   H8X  500   2.752   3.317   9.570 -0.5194  1.5214  0.3867
    4SAPS   H8Y  501   2.591   3.350   9.595 -0.1827 -0.6471 -2.3154
    4SAPS   C39  502   2.611   3.197   9.445  0.3092 -0.0120  0.2354
    4SAPS   H9X  503   2.506   3.164   9.454 -0.0040  1.1190  0.8992
    4SAPS   H9Y  504   2.677   3.112   9.417  2.2195  2.0846 -2.1052
    4SAPS  C310  505   2.635   3.284   9.324 -1.0399  0.4715  0.7341
    4SAPS  H10X  506   2.746   3.290   9.314 -1.0232  1.6515  1.4086
    4SAPS  H10Y  507   2.597   3.388   9.336 -2.3094  0.1816 -0.5835
    4SAPS  C311  508   2.571   3.222   9.202 -0.1060 -0.4329  0.4624
    4SAPS  H11X  509   2.474   3.179   9.236 -1.1662  0.4649 -1.2990
    4SAPS  H11Y  510   2.629   3.139   9.157  0.4908  1.4198 -2.4274
    4SAPS  C312  511   2.543   3.322   9.088 -0.2192  0.4404 -0.6064
    4SAPS  H12X  512   2.458   3.372   9.138  1.0382  1.0819  0.9849
    4SAPS  H12Y  513   2.492   3.260   9.012 -0.3895 -0.8177  0.4960
    4SAPS  C313  514   2.659   3.409   9.034 -0.6990  0.3438  0.0845
    4SAPS  H13X  515   2.741   3.343   8.999  1.5667  2.4933  1.0480
    4SAPS  H13Y  516   2.702   3.474   9.114  1.4686  1.0286 -1.5451
    4SAPS  C314  517   2.620   3.510   8.928 -0.0646  0.1241 -0.0696
    4SAPS  H14X  518   2.707   3.574   8.904  0.3861 -0.5977 -0.3881
    4SAPS  H14Y  519   2.546   3.582   8.970  2.4770  3.0909 -0.3027
    4SAPS  C315  520   2.566   3.452   8.798 -0.0615 -0.4064  0.8709
    4SAPS  H15X  521   2.478   3.390   8.827 -0.3829 -0.4822 -0.2236
    4SAPS  H15Y  522   2.652   3.391   8.762  1.9952  1.9371  1.5421
    4SAPS  C316  523   2.527   3.561   8.693 -0.2809  0.4472 -0.0260
    4SAPS  H16X  524   2.618   3.621   8.673  1.5095 -1.2416  2.4137
    4SAPS  H16Y  525   2.455   3.629   8.743 -1.9285 -1.5994  0.5545
    4SAPS  C317  526   2.456   3.503   8.573 -0.8994 -0.0082  0.7391
    4SAPS  H17X  527   2.418   3.595   8.523  0.0801 -0.5207 -1.0161
    4SAPS  H17Y  528   2.370   3.439   8.603 -2.2802  2.3955  2.2867
    4SAPS  C318  529   2.552   3.424   8.487 -0.2635 -0.1017 -0.3544
    4SAPS  H18X  530   2.639   3.487   8.459 -0.2853 -0.7779 -2.0479
    4SAPS  H18Y  531   2.512   3.397   8.387 -3.0886  0.2833  0.6001
    4SAPS  H18Z  532   2.592   3.342   8.550  1.2448 -1.3082 -2.7445
    5SAPS     N  533   5.654   5.794  10.768 -0.4487  0.0872  0.3908
    5SAPS   HN1  534   5.689   5.700  10.738  2.1940  1.2975 -0.6281
    5SAPS   HN2  535   5.699   5.860  10.702 -2.7736  0.1479 -1.2355
    5SAPS   HN3  536   5.682   5.815  10.866  0.9861  2.6901 -0.4969
    5SAPS   C12  537   5.509   5.795  10.742  0.1010  0.3643 -0.1305
    5SAPS  H12A  538   5.490   5.763  10.641  1.0430  1.9125 -0.8333
    5SAPS   C13  539   5.437   5.695  10.839  0.3106  0.4449  0.6336
    5SAPS  O13A  540   5.501   5.626  10.928  0.2217 -0.5175  0.0856
    5SAPS  O13B  541   5.311   5.697  10.838  0.1041  0.2483  0.1854
    5SAPS   C11  542   5.457   5.943  10.753 -0.6772 -0.4511 -0.0433
    5SAPS  H11A  543   5.470   5.967  10.860 -3.0035 -1.7642  0.5982
    5SAPS  H11B  544   5.351   5.947  10.720 -0.5024 -0.0246 -0.5701
    5SAPS     P  545   5.471   6.166  10.626  0.3761 -0.1789  0.0235
    5SAPS   O13  546   5.368   6.199  10.725 -0.2090  0.8583 -0.1831
    5SAPS   O14  547   5.576   6.268  10.612 -0.2930 -0.1950 -0.2942
    5SAPS   O12  548   5.534   6.032  10.669 -0.1992  0.6725  0.1274
    5SAPS   O11  549   5.409   6.134  10.486  0.4843  0.3051 -0.3417
    5SAPS    C1  550   5.443   6.035  10.390  0.3278  0.0343  0.3510
    5SAPS    HA  551   5.462   5.939  10.442  0.7614 -0.7278 -1.1460
    5SAPS    HB  552   5.367   6.026  10.310 -1.4011  1.3495  1.7709
    5SAPS    C2  553   5.563   6.070  10.307  0.2991 -0.7587  0.5562
    5SAPS    HS  554   5.647   6.085  10.378  1.2903  0.9709 -0.8953
    5SAPS   O21  555   5.525   6.198  10.239 -0.2028 -0.2486 -0.3482
    5SAPS   C21  556   5.621   6.289  10.226  0.6468 -1.0304  0.0380
    5SAPS   O22  557   5.729   6.290  10.279 -0.0084  0.1404  0.0087
    5SAPS   C22  558   5.574   6.393  10.129 -0.8662 -0.2867 -1.0067
    5SAPS   H2R  559   5.476   6.432  10.161 -0.5876 -0.4557  0.0927
    5SAPS   H2S  560   5.643   6.480  10.130 -2.2322  0.8181 -1.1258
    5SAPS    C3  561   5.619   5.969  10.200 -0.2541 -0.0685  0.5892
    5SAPS    HX  562   5.548   5.955  10.117  1.6778  0.2685 -1.1944
    5SAPS    HY  563   5.648   5.874  10.251  3.1928  0.9324  0.7701
    5SAPS   O31  564   5.746   6.015  10.157  0.2622 -0.1131  0.3316
    5SAPS   C31  565   5.810   5.940  10.068  0.1964  0.4606 -0.2861
    5SAPS   O32  566   5.759   5.842  10.014 -0.2557 -0.4284 -0.3410
    5SAPS   C32  567   5.955   5.983  10.051  0.3161 -0.2238  0.1134
    5SAPS   H2X  568   6.018   5.905  10.099 -2.1940 -1.5809  1.3552
    5SAPS   H2Y  569   5.970   6.080  10.104  1.8793 -0.2835 -0.1797
    5SAPS   C23  570   5.562   6.330   9.988 -0.0325  0.1653  0.2869
    5SAPS   H3R  571   5.504   6.403   9.927  1.0088  1.2545  0.5684
    5SAPS   H3S  572   5.515   6.231  10.003 -2.0024  0.9700 -0.2094
    5SAPS   C24  573   5.695   6.306   9.916 -0.4333 -0.1170  0.8693
    5SAPS   H4R  574   5.688   6.235   9.831  1.1984  0.6238  0.0616
    5SAPS   H4S  575   5.761   6.246   9.982  1.6987 -0.2976 -1.3201
    5SAPS   C25  576   5.773   6.438   9.878 -0.2628 -0.0226 -0.4769
    5SAPS   H5R  577   5.834   6.476   9.961 -0.8659  0.1351 -0.0982
    5SAPS   C26  578   5.780   6.498   9.762 -0.5136 -0.1291  0.0645
    5SAPS   H6R  579   5.844   6.586   9.750  1.0388 -1.4476 -2.0101
    5SAPS   C27  580   5.720   6.449   9.633 -0.1522 -0.3215 -0.8274
    5SAPS   H7R  581   5.693   6.529   9.561 -0.0511 -0.6382 -1.2163
    5SAPS   H7S  582   5.627   6.401   9.670 -1.1941  2.4648  0.5400
    5SAPS   C28  583   5.810   6.346   9.568 -0.2739  0.2990 -0.1796
    5SAPS   H8R  584   5.842   6.265   9.635 -0.5536 -1.2568 -1.8532
    5SAPS   C29  585   5.846   6.348   9.435  0.7505 -0.1629 -0.8000
    5SAPS   H9R  586   5.907   6.268   9.391  0.9712  0.0889 -0.9495
    5SAPS  C210  587   5.798   6.440   9.323 -0.2805 -0.3739  0.1057
    5SAPS  H10R  588   5.715   6.504   9.359 -0.4196 -0.0171 -0.8257
    5SAPS  H10S  589   5.750   6.383   9.240 -0.1267  0.4354 -0.5562
    5SAPS  C211  590   5.904   6.533   9.261  0.1456 -0.3687 -0.9669
    5SAPS  H11R  591   5.944   6.608   9.331 -3.1006 -1.2564  2.1796
    5SAPS  C212  592   5.944   6.529   9.132 -0.8398 -0.3041 -0.0117
    5SAPS  H12R  593   6.016   6.606   9.100 -0.0243  0.0699  2.5194
    5SAPS  C213  594   5.891   6.443   9.022  0.4265 -0.8829  0.0980
    5SAPS  H13R  595   5.837   6.358   9.070  0.2669  0.6260  2.8027
    5SAPS  H13S  596   5.973   6.402   8.958  0.2673 -1.9712  0.5671
    5SAPS  C214  597   5.806   6.538   8.943  0.1545 -0.0094 -0.4137
    5SAPS  H14R  598   5.716   6.581   8.990  0.4836  1.2270 -0.8546
    5SAPS  C215  599   5.821   6.578   8.814 -0.6621  0.0769  0.1436
    5SAPS  H15R  600   5.746   6.640   8.763  0.5181  0.7461 -0.8613
    5SAPS  C216  601   5.936   6.531   8.720  0.5639  0.5215 -0.3896
    5SAPS  H16R  602   5.900   6.517   8.616  2.3885 -0.2397 -0.9460
    5SAPS  H16S  603   5.976   6.432   8.751 -0.9954 -0.3584 -1.0611
    5SAPS  C217  604   6.050   6.637   8.707 -0.0051  0.6824 -0.6214
    5SAPS  H17R  605   6.102   6.642   8.805  0.1378 -0.2534 -0.6436
    5SAPS  H17S  606   6.008   6.739   8.689 -1.1622  0.3408  0.0143
    5SAPS  C218  607   6.152   6.601   8.601  0.3499 -0.1512 -0.3934
    5SAPS  H18R  608   6.256   6.634   8.618  0.8985 -1.3243 -1.2911
    5SAPS  H18S  609   6.164   6.490   8.600 -0.2562 -0.2403  0.4730
    5SAPS  C219  610   6.119   6.630   8.453  0.2250  0.2422 -0.2704
    5SAPS  H19R  611   6.040   6.568   8.405  1.3472  0.3818 -2.4512
    5SAPS  H19S  612   6.204   6.593   8.391  1.6658  3.3407 -0.3373
    5SAPS  C220  613   6.090   6.774   8.420 -0.1392 -0.6287 -0.8097
    5SAPS  H20R  614   5.995   6.808   8.467 -0.2234 -1.0552 -0.6714
    5SAPS  H20S  615   6.071   6.797   8.313 -1.8012 -2.8697 -1.0607
    5SAPS  H20T  616   6.161   6.847   8.466 -0.5102 -1.2676  0.8446
    5SAPS   C33  617   5.999   5.983   9.903  0.0374 -0.1117 -0.8448
    5SAPS   H3X  618   6.079   6.060   9.897 -0.0502  0.0568  0.0773
    5SAPS   H3Y  619   5.913   6.004   9.837 -0.6402 -2.2788 -0.7446
    5SAPS   C34  620   6.076   5.858   9.850  0.2771 -0.0448  0.6854
    5SAPS   H4X  621   6.000   5.777   9.848 -1.0624  1.1738  0.8193
    5SAPS   H4Y  622   6.157   5.845   9.924  0.5963  0.7133  0.4788
    5SAPS   C35  623   6.130   5.865   9.704 -0.4446 -0.6121 -0.7205
    5SAPS   H5X  624   6.214   5.936   9.691 -1.1294  0.0548 -1.6014
    5SAPS   H5Y  625   6.050   5.906   9.639 -0.8140  0.1547  0.1972
    5SAPS   C36  626   6.177   5.725   9.663  0.2290  0.2676  0.4073
    5SAPS   H6X  627   6.089   5.657   9.664 -0.6963  1.4223  2.1825
    5SAPS   H6Y  628   6.248   5.675   9.733 -1.1445  0.5106  2.0209
    5SAPS   C37  629   6.248   5.721   9.527  0.4169 -0.5020  0.0534
    5SAPS   H7X  630   6.287   5.620   9.504 -1.6018 -0.6633 -3.4278
    5SAPS   H7Y  631   6.333   5.792   9.533 -0.4619  0.9112 -2.5638
    5SAPS   C38  632   6.145   5.758   9.421 -0.3797 -0.3498 -0.3478
    5SAPS   H8X  633   6.083   5.850   9.431 -0.2492 -0.4741  2.0831
    5SAPS   H8Y  634   6.076   5.672   9.429 -1.1830  0.4004  1.1421
    5SAPS   C39  635   6.213   5.744   9.281 -0.0750 -0.8413 -1.1088
    5SAPS   H9X  636   6.260   5.645   9.261  0.4669 -0.4051 -2.0971
    5SAPS   H9Y  637   6.286   5.827   9.287 -2.1122  0.9970 -0.6661
    5SAPS  C310  638   6.116   5.776   9.164 -0.1081 -0.0393  0.2412
    5SAPS  H10X  639   6.060   5.868   9.193  1.5376  1.2325 -0.4888
    5SAPS  H10Y  640   6.047   5.689   9.161  0.3901 -0.4336  0.2063
    5SAPS  C311  641   6.196   5.787   9.032  0.8413 -0.2935 -0.4838
    5SAPS  H11X  642   6.223   5.684   9.000 -0.6257 -0.5658 -0.9321
    5SAPS  H11Y  643   6.284   5.854   9.044 -0.2563  0.7447  2.3608
    5SAPS  C312  644   6.119   5.869   8.930  0.0334  0.1971  0.4950
    5SAPS  H12X  645   6.105   5.971   8.971 -2.4689 -0.6913  2.0476
    5SAPS  H12Y  646   6.020   5.826   8.903  1.5268 -2.3575 -1.4430
    5SAPS  C313  647   6.216   5.891   8.813  0.1574 -0.0978 -0.1231
    5SAPS  H13X  648   6.306   5.942   8.853 -0.7870  1.1901  0.4105
    5SAPS  H13Y  649   6.172   5.971   8.749 -0.1223  0.3198  0.5879
    5SAPS  C314  650   6.264   5.766   8.731  0.9860 -0.0300  0.5903
    5SAPS  H14X  651   6.171   5.708   8.718  0.7524  0.5914 -0.7550
    5SAPS  H14Y  652   6.334   5.727   8.808  2.3213 -1.8041 -1.4083
    5SAPS  C315  653   6.328   5.798   8.603  0.9959 -0.0198  0.1197
    5SAPS  H15X  654   6.399   5.883   8.613  2.5952 -0.8129 -3.1546
    5SAPS  H15Y  655   6.261   5.820   8.518 -0.6616  1.8943  1.8165
    5SAPS  C316  656   6.414   5.678   8.569 -0.7344 -0.0540  0.1241
    5SAPS  H16X  657   6.350   5.588   8.563 -1.2008  0.3519 -1.2338
    5SAPS  H16Y  658   6.487   5.674   8.653 -0.0439  1.5562 -0.3437
    5SAPS  C317  659   6.483   5.686   8.435 -0.3115 -0.9127  0.8570
    5SAPS  H17X  660   6.556   5.602   8.428 -1.9507 -2.4812  1.6849
    5SAPS  H17Y  661   6.528   5.787   8.438 -1.8784 -0.1427 -0.1724
    5SAPS  C318  662   6.400   5.665   8.316  0.1651 -0.1454 -0.2202
    5SAPS  H18X  663   6.322   5.742   8.299  1.0373  0.4138 -1.8411
    5SAPS  H18Y  664   6.354   5.564   8.311  2.3363 -1.3532  1.9944
    5SAPS  H18Z  665   6.460   5.667   8.223 -0.1950 -3.7881 -0.6780
    6SAPS     N  666   6.350   5.981  10.961 -0.0492  0.7613 -0.4792
    6SAPS   HN1  667   6.271   6.012  10.902 -2.1038 -0.7857  1.2998
    6SAPS   HN2  668   6.411   5.917  10.906 -0.5477 -1.4426  1.3853
    6SAPS   HN3  669   6.304   5.932  11.040 -0.3065  0.3203 -0.9050
    6SAPS   C12  670   6.440   6.087  11.009 -0.0154 -0.3768 -0.5757
    6SAPS  H12A  671   6.390   6.146  11.085  0.9587 -1.1331  0.6999
    6SAPS   C13  672   6.562   6.032  11.090 -0.1195 -0.6002  0.5572
    6SAPS  O13A  673   6.581   5.912  11.112  0.6647  0.7785 -0.0149
    6SAPS  O13B  674   6.634   6.126  11.137 -0.0908  0.2540 -0.1289
    6SAPS   C11  675   6.489   6.167  10.889  0.2779 -0.0680 -0.0657
    6SAPS  H11A  676   6.554   6.251  10.924 -0.9056  0.6053  0.5884
    6SAPS  H11B  677   6.406   6.223  10.842  0.0934 -0.7345 -0.5371
    6SAPS     P  678   6.541   6.090  10.647  0.5940 -0.2788  0.0742
    6SAPS   O13  679   6.652   6.172  10.594  1.1511  0.1531  0.1170
    6SAPS   O14  680   6.523   5.951  10.598 -0.1653  0.5379 -0.6910
    6SAPS   O12  681   6.562   6.088  10.796 -0.2588  0.2149 -0.5232
    6SAPS   O11  682   6.408   6.170  10.629 -0.3272  0.1114 -0.1690
    6SAPS    C1  683   6.285   6.121  10.571 -0.3406  0.7140 -0.5262
    6SAPS    HA  684   6.281   6.010  10.577  1.6097  0.6592  0.8991
    6SAPS    HB  685   6.204   6.170  10.628  0.1905 -0.0614  0.9542
    6SAPS    C2  686   6.264   6.130  10.415  0.1589 -0.1032  0.5750
    6SAPS    HS  687   6.167   6.083  10.389  0.3728  0.2617 -1.0133
    6SAPS   O21  688   6.377   6.070  10.351  0.0164  0.0990  0.3948
    6SAPS   C21  689   6.369   5.936  10.329  0.0172 -0.0944 -0.8518
    6SAPS   O22  690   6.283   5.858  10.366  0.2162 -0.1249 -0.4127
    6SAPS   C22  691   6.487   5.898  10.244  0.6016  0.6137  0.5009
    6SAPS   H2R  692   6.570   5.896  10.318 -0.1859 -0.4284  1.3968
    6SAPS   H2S  693   6.463   5.800  10.198 -0.2475  0.3966  1.3622
    6SAPS    C3  694   6.260   6.282  10.371 -0.0083 -0.2639 -0.1270
    6SAPS    HX  695   6.359   6.330  10.380 -0.6101  1.1764 -0.8332
    6SAPS    HY  696   6.189   6.329  10.442  0.1172 -2.0803  1.3006
    6SAPS   O31  697   6.208   6.302  10.232  0.1626  1.0776 -0.0926
    6SAPS   C31  698   6.173   6.427  10.199  0.1945 -0.2955 -0.4029
    6SAPS   O32  699   6.171   6.515  10.282  0.2176 -0.2790 -0.2959
    6SAPS   C32  700   6.131   6.442  10.055  0.2640 -0.5542 -0.5201
    6SAPS   H2X  701   6.161   6.546  10.028 -1.4174 -0.3966 -1.9346
    6SAPS   H2Y  702   6.020   6.442  10.051  0.1850 -0.7827  1.0423
    6SAPS   C23  703   6.524   6.001  10.134 -0.0216  0.7891  0.3916
    6SAPS   H3R  704   6.628   5.972  10.106 -0.5310 -1.2838  0.4780
    6SAPS   H3S  705   6.524   6.102  10.181 -2.2599  0.7526  0.5720
    6SAPS   C24  706   6.447   5.990  10.005  0.1134  0.0480 -0.6620
    6SAPS   H4R  707   6.471   6.077   9.941  0.5582  0.9057  0.6171
    6SAPS   H4S  708   6.341   5.985  10.038  0.8472 -0.5398  1.8591
    6SAPS   C25  709   6.467   5.863   9.925 -0.3217  0.3732  0.3970
    6SAPS   H5R  710   6.471   5.774   9.990  1.2881  0.4159  0.4017
    6SAPS   C26  711   6.505   5.850   9.795  0.1825 -0.5179 -0.0967
    6SAPS   H6R  712   6.519   5.749   9.753  2.0699 -0.6908  0.8543
    6SAPS   C27  713   6.523   5.959   9.698  0.2667  0.0356  0.1130
    6SAPS   H7R  714   6.521   6.062   9.740 -1.3928  0.2700 -0.4710
    6SAPS   H7S  715   6.438   5.957   9.626 -0.7809  3.2690  1.0703
    6SAPS   C28  716   6.657   5.934   9.627 -0.1083 -0.1732  0.2356
    6SAPS   H8R  717   6.737   5.931   9.702 -1.2497 -0.2216  1.4755
    6SAPS   C29  718   6.688   5.936   9.500  0.1447 -0.0365  0.4828
    6SAPS   H9R  719   6.795   5.925   9.476 -0.0315 -0.1253 -0.2818
    6SAPS  C210  720   6.590   5.962   9.386  0.5238  0.1181  0.6221
    6SAPS  H10R  721   6.618   6.044   9.316 -0.5312 -0.7478 -0.8817
    6SAPS  H10S  722   6.500   6.000   9.438  0.7673 -2.1986  2.9303
    6SAPS  C211  723   6.562   5.838   9.301  0.2672  0.0357 -0.4144
    6SAPS  H11R  724   6.553   5.751   9.367 -3.6826  0.0169 -0.7494
    6SAPS  C212  725   6.564   5.827   9.165  0.0554 -0.2184  0.1127
    6SAPS  H12R  726   6.537   5.731   9.119  1.5294  0.0228 -1.2998
    6SAPS  C213  727   6.584   5.947   9.068  0.4660  0.0578 -0.0034
    6SAPS  H13R  728   6.516   6.033   9.088  0.4461 -0.1290  0.7700
    6SAPS  H13S  729   6.544   5.905   8.973 -1.3330  0.4909  0.5236
    6SAPS  C214  730   6.727   5.995   9.060 -0.4640 -0.4048 -0.4941
    6SAPS  H14R  731   6.783   5.990   9.155  0.1145  0.7822 -0.7553
    6SAPS  C215  732   6.807   6.031   8.955  0.4910  0.2576  0.1271
    6SAPS  H15R  733   6.906   6.070   8.982  0.3036  1.4826 -0.8148
    6SAPS  C216  734   6.768   6.061   8.815  1.3832 -0.1165 -0.3132
    6SAPS  H16R  735   6.761   6.171   8.803  1.4938 -0.2164 -1.4193
    6SAPS  H16S  736   6.663   6.033   8.790  0.3657  1.4675  1.7724
    6SAPS  C217  737   6.865   5.998   8.716  0.3025 -0.3825 -0.0888
    6SAPS  H17R  738   6.852   5.888   8.725 -0.8041 -0.1282  2.0350
    6SAPS  H17S  739   6.967   6.020   8.753 -0.0702  1.4683 -0.0598
    6SAPS  C218  740   6.839   6.041   8.565 -1.2827  0.3169  0.2122
    6SAPS  H18R  741   6.936   6.013   8.517 -1.2496 -1.9517  1.4922
    6SAPS  H18S  742   6.826   6.150   8.545 -1.5822  0.6089  1.9226
    6SAPS  C219  743   6.715   5.972   8.499 -0.3976  0.4608 -0.3323
    6SAPS  H19R  744   6.634   5.981   8.574  0.3679  2.2179  0.3395
    6SAPS  H19S  745   6.748   5.866   8.504  1.6226  0.9045 -2.3026
    6SAPS  C220  746   6.675   6.016   8.356  0.7410  0.1545 -0.4253
    6SAPS  H20R  747   6.632   5.932   8.298 -1.7282 -0.4311  2.0489
    6SAPS  H20S  748   6.754   6.071   8.300  0.6837  0.5434 -0.1288
    6SAPS  H20T  749   6.599   6.097   8.364  2.0819  1.5358 -1.1164
    6SAPS   C33  750   6.183   6.330   9.967 -0.3173 -0.3575  0.4648
    6SAPS   H3X  751   6.123   6.238   9.982 -0.8467  0.1169  1.3112
    6SAPS   H3Y  752   6.291   6.307   9.982 -0.6078 -0.1098  3.5969
    6SAPS   C34  753   6.168   6.373   9.823 -0.5786 -0.7155  0.2554
    6SAPS   H4X  754   6.227   6.467   9.814 -0.8855 -0.2932  2.1776
    6SAPS   H4Y  755   6.062   6.398   9.801 -0.8018 -2.1058 -0.3321
    6SAPS   C35  756   6.229   6.273   9.725  0.8160 -0.4179  0.1029
    6SAPS   H5X  757   6.172   6.177   9.730 -1.4046  0.9063  2.2631
    6SAPS   H5Y  758   6.334   6.267   9.760  0.1965 -2.6389  1.9060
    6SAPS   C36  759   6.221   6.328   9.582  0.0356  0.8284  0.3622
    6SAPS   H6X  760   6.299   6.406   9.567 -0.0206  0.6654 -0.9024
    6SAPS   H6Y  761   6.120   6.370   9.561  0.6794  1.8123 -0.8538
    6SAPS   C37  762   6.248   6.210   9.479  0.4348  0.4841 -0.1567
    6SAPS   H7X  763   6.164   6.139   9.488 -0.0856  1.3320  2.6631
    6SAPS   H7Y  764   6.342   6.161   9.512 -0.2453 -2.1521 -1.7996
    6SAPS   C38  765   6.274   6.258   9.337 -0.2842  0.3640  0.0604
    6SAPS   H8X  766   6.376   6.303   9.333  0.5930 -1.5037  0.2048
    6SAPS   H8Y  767   6.203   6.337   9.306  0.5277  1.4678  0.9239
    6SAPS   C39  768   6.250   6.153   9.233  0.4918 -0.4996  0.4621
    6SAPS   H9X  769   6.141   6.143   9.218  0.4763 -0.5423  0.6117
    6SAPS   H9Y  770   6.284   6.053   9.266 -0.7993 -2.1563 -2.7816
    6SAPS  C310  771   6.316   6.181   9.102 -0.0418  0.6141  0.4537
    6SAPS  H10X  772   6.300   6.084   9.049  2.8368  0.2796  0.0562
    6SAPS  H10Y  773   6.425   6.197   9.116  0.2723 -1.8504  1.2962
    6SAPS  C311  774   6.260   6.299   9.022 -0.6547  0.0324  0.2601
    6SAPS  H11X  775   6.302   6.395   9.057  0.4615  0.9845 -3.2885
    6SAPS  H11Y  776   6.151   6.315   9.034 -0.3086  3.8975 -0.4460
    6SAPS  C312  777   6.262   6.294   8.869  0.7867 -0.3287 -0.1451
    6SAPS  H12X  778   6.213   6.386   8.832  0.1455 -0.0734  1.2756
    6SAPS  H12Y  779   6.195   6.213   8.834 -0.1322 -1.0666  2.9815
    6SAPS  C313  780   6.403   6.274   8.804  0.5501  0.0197 -0.2906
    6SAPS  H13X  781   6.429   6.168   8.823  2.2214  0.5674  0.6938
    6SAPS  H13Y  782   6.474   6.338   8.862  1.0318 -2.7664  2.4223
    6SAPS  C314  783   6.412   6.302   8.655  0.0557 -0.1098  0.3956
    6SAPS  H14X  784   6.507   6.262   8.612 -0.9284 -1.1390 -0.8974
    6SAPS  H14Y  785   6.413   6.410   8.628  2.5963 -0.5658 -1.8300
    6SAPS  C315  786   6.310   6.227   8.571  0.3928 -0.4648  0.0989
    6SAPS  H15X  787   6.207   6.261   8.592  0.2622 -0.9836  0.3258
    6SAPS  H15Y  788   6.313   6.122   8.606 -0.0498 -0.1511  1.0874
    6SAPS  C316  789   6.331   6.234   8.420  0.2460 -0.4924  0.0382
    6SAPS  H16X  790   6.438   6.212   8.397 -0.4786 -2.9532 -1.4754
    6SAPS  H16Y  791   6.292   6.329   8.379  1.3410 -0.6397 -1.4428
    6SAPS  C317  792   6.249   6.115   8.351  0.2192  0.0131 -0.1803
    6SAPS  H17X  793   6.140   6.121   8.372  0.6678  1.1164  2.0994
    6SAPS  H17Y  794   6.287   6.024   8.402  2.1517  1.5245  1.1924
    6SAPS  C318  795   6.275   6.103   8.201 -0.0594  0.3834 -0.4487
    6SAPS  H18X  796   6.228   6.011   8.160 -1.8968  1.9229 -2.0161
    6SAPS  H18Y  797   6.385   6.086   8.199 -0.3412 -2.0191  0.3094
    6SAPS  H18Z  798   6.239   6.192   8.146 -0.0544  1.4365  1.2005
    7SAPS     N  799   6.351   1.892  10.982  0.2332  0.5075  0.1049
    7SAPS   HN1  800   6.395   1.809  10.938  1.2608  1.3531 -0.5034
    7SAPS   HN2  801   6.251   1.878  11.007  0.6345 -2.6607  0.2965
    7SAPS   HN3  802   6.367   1.980  10.929 -1.1892 -0.3472 -1.8449
    7SAPS   C12  803   6.425   1.920  11.110  0.0199  0.2567  0.0024
    7SAPS  H12A  804   6.413   2.024  11.134  1.1305 -0.2093  3.1069
    7SAPS   C13  805   6.377   1.828  11.229  0.0573  0.8353 -1.4443
    7SAPS  O13A  806   6.283   1.752  11.218  0.1226  0.6011 -0.3642
    7SAPS  O13B  807   6.431   1.847  11.345 -0.0585 -0.4873  0.2711
    7SAPS   C11  808   6.573   1.903  11.084 -0.2904  0.2159 -0.3746
    7SAPS  H11A  809   6.638   1.942  11.166  1.7569 -1.5802 -1.0255
    7SAPS  H11B  810   6.586   1.966  10.994 -0.1391 -0.6887 -1.0043
    7SAPS     P  811   6.647   1.732  10.900  0.0924 -0.3207  0.1756
    7SAPS   O13  812   6.724   1.607  10.889 -0.2750 -0.4246 -0.3696
    7SAPS   O14  813   6.516   1.735  10.828  0.2533  0.3512  0.6879
    7SAPS   O12  814   6.613   1.767  11.051  0.6004  0.1800  0.1532
    7SAPS   O11  815   6.724   1.863  10.861  0.0003  0.2930 -0.5165
    7SAPS    C1  816   6.791   1.856  10.733 -0.0381 -0.6961 -0.6286
    7SAPS    HA  817   6.870   1.777  10.735 -0.2076 -0.8515 -0.0748
    7SAPS    HB  818   6.722   1.841  10.648  0.2871 -1.5789 -0.7577
    7SAPS    C2  819   6.875   1.991  10.703 -0.6060  0.1712 -0.9140
    7SAPS    HS  820   6.918   2.025  10.799 -0.9227 -0.5985 -0.4865
    7SAPS   O21  821   6.781   2.087  10.634  0.5551  0.0861  0.0065
    7SAPS   C21  822   6.828   2.210  10.640  1.4089 -0.3048  0.0935
    7SAPS   O22  823   6.933   2.247  10.694 -0.1178 -0.1697  0.6912
    7SAPS   C22  824   6.730   2.309  10.570 -0.1505  0.5921 -0.5846
    7SAPS   H2R  825   6.640   2.245  10.556  1.8465 -2.1665 -1.6895
    7SAPS   H2S  826   6.706   2.386  10.646 -2.4578 -1.4356  0.9059
    7SAPS    C3  827   6.992   1.956  10.597  0.1939  0.4186 -1.0625
    7SAPS    HX  828   7.053   1.875  10.643 -0.4884  1.0559  1.0400
    7SAPS    HY  829   7.065   2.039  10.597  4.7379 -3.1719 -1.9194
    7SAPS   O31  830   6.940   1.933  10.467 -0.3241  0.4617  0.2609
    7SAPS   C31  831   6.918   1.804  10.445  0.4407 -0.2368  0.3324
    7SAPS   O32  832   6.942   1.715  10.521  0.5794  0.4903 -0.1023
    7SAPS   C32  833   6.845   1.796  10.307 -0.8518  0.4482  0.4648
    7SAPS   H2X  834   6.848   1.896  10.259  1.4261  0.8124  1.2035
    7SAPS   H2Y  835   6.737   1.776  10.324 -0.7993 -0.7890 -0.5160
    7SAPS   C23  836   6.791   2.375  10.448  1.3041 -0.5739  0.0638
    7SAPS   H3R  837   6.884   2.429  10.476  1.0922  0.4274 -1.0395
    7SAPS   H3S  838   6.713   2.450  10.423  1.1763 -0.8814 -0.4801
    7SAPS   C24  839   6.814   2.294  10.316 -0.0884 -0.3612 -0.7277
    7SAPS   H4R  840   6.911   2.243  10.335 -0.7873 -1.4405  0.1027
    7SAPS   H4S  841   6.830   2.366  10.233 -0.3167 -1.4545 -1.7429
    7SAPS   C25  842   6.715   2.180  10.275 -0.2144 -1.1084 -0.3836
    7SAPS   H5R  843   6.688   2.108  10.353  1.7403 -1.2103  0.2443
    7SAPS   C26  844   6.671   2.152  10.142  0.0159 -0.3752 -0.8743
    7SAPS   H6R  845   6.602   2.070  10.119 -1.6279  0.0232  2.1698
    7SAPS   C27  846   6.676   2.236  10.019  0.3017 -0.2571  0.6812
    7SAPS   H7R  847   6.654   2.340  10.052 -0.8567 -0.7106  1.3986
    7SAPS   H7S  848   6.589   2.213   9.954  2.0388  0.7811 -2.2000
    7SAPS   C28  849   6.801   2.233   9.942 -0.1680 -0.4388  0.1272
    7SAPS   H8R  850   6.894   2.247  10.000  0.5617 -2.4703 -0.4952
    7SAPS   C29  851   6.816   2.236   9.809  0.9851 -0.3731 -0.0586
    7SAPS   H9R  852   6.917   2.252   9.768  0.2421 -0.8708 -2.2143
    7SAPS  C210  853   6.699   2.243   9.711 -0.5817 -0.0023 -0.0471
    7SAPS  H10R  854   6.622   2.165   9.730 -0.5857  0.0668  0.2299
    7SAPS  H10S  855   6.732   2.221   9.607 -3.2270 -2.0340 -0.5787
    7SAPS  C211  856   6.624   2.372   9.708  0.6582 -1.7346  0.6707
    7SAPS  H11R  857   6.600   2.412   9.807  1.0254  0.6808 -0.1674
    7SAPS  C212  858   6.585   2.443   9.599 -0.4616 -0.4096  0.0336
    7SAPS  H12R  859   6.544   2.540   9.628  4.0565  1.2712  1.7098
    7SAPS  C213  860   6.610   2.418   9.452  0.2587 -0.3459  0.0806
    7SAPS  H13R  861   6.710   2.372   9.445  1.2843  1.1654  3.0885
    7SAPS  H13S  862   6.636   2.518   9.411  0.9059  0.0506  1.3762
    7SAPS  C214  863   6.514   2.362   9.356  0.4091  0.6365  0.0091
    7SAPS  H14R  864   6.448   2.281   9.391  0.9738  1.0597  2.1766
    7SAPS  C215  865   6.471   2.415   9.236 -0.0686 -0.4831  0.3620
    7SAPS  H15R  866   6.404   2.358   9.170 -1.5938  2.5965 -0.9624
    7SAPS  C216  867   6.530   2.538   9.171 -0.3834 -0.2510 -0.3571
    7SAPS  H16R  868   6.520   2.619   9.247  3.4115  0.0050  0.0643
    7SAPS  H16S  869   6.476   2.562   9.077  1.6420 -1.6060 -1.9447
    7SAPS  C217  870   6.682   2.523   9.136  0.2240  0.1077  0.1875
    7SAPS  H17R  871   6.749   2.486   9.216  1.8137 -2.0617 -2.0202
    7SAPS  H17S  872   6.719   2.624   9.105 -0.7356  0.7929  1.1979
    7SAPS  C218  873   6.698   2.433   9.015 -0.2919  0.4848  0.0510
    7SAPS  H18R  874   6.631   2.345   9.024  2.0157 -1.3526  0.3487
    7SAPS  H18S  875   6.805   2.407   8.999 -0.5171 -1.4970  1.5232
    7SAPS  C219  876   6.660   2.505   8.877  0.2675 -0.3344  0.3823
    7SAPS  H19R  877   6.553   2.499   8.847 -0.1705  0.4418  1.7006
    7SAPS  H19S  878   6.717   2.449   8.800  0.1646 -1.2061  0.9354
    7SAPS  C220  879   6.695   2.656   8.863 -0.4343 -0.3341  0.3973
    7SAPS  H20R  880   6.621   2.713   8.922  0.7426  1.1300  0.5122
    7SAPS  H20S  881   6.696   2.693   8.758  3.0909 -0.1036  0.3851
    7SAPS  H20T  882   6.798   2.679   8.897 -0.6779  0.1655  0.8092
    7SAPS   C33  883   6.908   1.689  10.211  1.0782  0.3209  0.1567
    7SAPS   H3X  884   6.831   1.626  10.161 -0.4489  2.2819 -0.0908
    7SAPS   H3Y  885   6.966   1.618  10.274 -2.4771 -1.1213  2.1591
    7SAPS   C34  886   6.985   1.756  10.090 -0.0311 -0.3666 -0.5073
    7SAPS   H4X  887   7.070   1.826  10.109  1.2941 -1.1861 -2.9303
    7SAPS   H4Y  888   6.910   1.822  10.041 -2.3904 -1.0098  1.9925
    7SAPS   C35  889   7.027   1.645  10.001 -0.0076  0.4074  0.7374
    7SAPS   H5X  890   6.948   1.579   9.959  2.1032 -0.8731 -1.5462
    7SAPS   H5Y  891   7.090   1.570  10.052 -1.8210 -0.7312  1.3992
    7SAPS   C36  892   7.123   1.695   9.889  0.3299 -0.4953 -0.1866
    7SAPS   H6X  893   7.216   1.742   9.928  0.9651 -0.0990 -2.0769
    7SAPS   H6Y  894   7.080   1.770   9.819  2.0384  1.5367  0.8268
    7SAPS   C37  895   7.156   1.567   9.810 -0.2223 -0.1734  0.0608
    7SAPS   H7X  896   7.072   1.495   9.819  0.0706 -0.4781  0.3365
    7SAPS   H7Y  897   7.236   1.519   9.869 -0.8555  1.5067  2.4291
    7SAPS   C38  898   7.188   1.581   9.661  1.2787  0.0318 -0.4806
    7SAPS   H8X  899   7.260   1.664   9.651  1.1641  0.3592  1.1101
    7SAPS   H8Y  900   7.086   1.597   9.619 -0.2215 -2.5472  1.8056
    7SAPS   C39  901   7.241   1.461   9.584  0.4188  0.8531  0.3207
    7SAPS   H9X  902   7.157   1.391   9.564  2.2763 -1.4090 -0.0247
    7SAPS   H9Y  903   7.317   1.403   9.639 -1.5025 -2.8620 -0.5855
    7SAPS  C310  904   7.289   1.496   9.439 -0.3437  0.2535 -0.2650
    7SAPS  H10X  905   7.363   1.419   9.409 -0.4196 -0.6542  1.7229
    7SAPS  H10Y  906   7.337   1.597   9.439  0.4228 -0.0910 -1.3532
    7SAPS  C311  907   7.167   1.519   9.348  0.7421 -0.2556 -0.4599
    7SAPS  H11X  908   7.105   1.593   9.403 -0.2170 -1.3194 -0.0586
    7SAPS  H11Y  909   7.104   1.428   9.355  0.3784  0.0452  0.4016
    7SAPS  C312  910   7.210   1.541   9.206  0.0489 -0.6808  0.0050
    7SAPS  H12X  911   7.283   1.463   9.176  1.7359  0.7895  0.1340
    7SAPS  H12Y  912   7.263   1.639   9.210  0.6272 -1.0281  1.4238
    7SAPS  C313  913   7.099   1.558   9.105  0.3520 -0.2012 -0.5809
    7SAPS  H13X  914   7.022   1.612   9.165  1.6178  1.5633 -0.4473
    7SAPS  H13Y  915   7.047   1.461   9.088 -2.6601  1.2564 -0.4501
    7SAPS  C314  916   7.118   1.632   8.977 -0.3194  0.7405  0.8424
    7SAPS  H14X  917   7.214   1.618   8.922 -1.4679 -0.2342 -1.0179
    7SAPS  H14Y  918   7.121   1.738   9.009 -0.4466  0.6714  1.0872
    7SAPS  C315  919   7.001   1.611   8.888  0.1365  0.0954 -0.0779
    7SAPS  H15X  920   6.904   1.630   8.940 -0.9297  0.8192 -2.2165
    7SAPS  H15Y  921   6.994   1.509   8.846 -2.7462  0.2116 -0.0832
    7SAPS  C316  922   7.008   1.689   8.755 -0.5736 -1.2652 -0.0352
    7SAPS  H16X  923   7.115   1.708   8.731 -0.5518 -1.3481 -0.0034
    7SAPS  H16Y  924   6.963   1.790   8.770  0.2917 -1.1227  1.8856
    7SAPS  C317  925   6.952   1.622   8.638 -0.7717  0.4643  0.0339
    7SAPS  H17X  926   6.846   1.602   8.665 -1.9767  3.8273 -1.6054
    7SAPS  H17Y  927   7.000   1.523   8.630 -0.9890  0.1557  1.9237
    7SAPS  C318  928   6.942   1.711   8.504  0.5253  0.2123 -0.6582
    7SAPS  H18X  929   6.861   1.666   8.441  0.6388 -2.9550  1.2350
    7SAPS  H18Y  930   7.043   1.712   8.458  0.2491  1.2402 -1.2657
    7SAPS  H18Z  931   6.907   1.809   8.543  0.8294 -0.5912  1.7872
    8SAPS     N  932   5.167   2.444  11.213 -0.2387  0.1304  0.1689
    8SAPS   HN1  933   5.270   2.429  11.216 -0.1637  0.2589 -1.3398
    8SAPS   HN2  934   5.135   2.509  11.288  4.2431  1.9077  0.8770
    8SAPS   HN3  935   5.122   2.351  11.225  2.5935 -1.5151 -0.8192
    8SAPS   C12  936   5.133   2.500  11.084 -0.1068  0.3538 -0.0747
    8SAPS  H12A  937   5.029   2.525  11.099 -0.1170 -0.4458  1.4005
    8SAPS   C13  938   5.196   2.636  11.049  1.0195 -0.3509 -0.0409
    8SAPS  O13A  939   5.274   2.694  11.132 -0.2018  0.1125  0.1047
    8SAPS  O13B  940   5.158   2.691  10.938 -0.1773 -0.2278 -0.0453
    8SAPS   C11  941   5.162   2.407  10.969 -0.2623 -0.5195  0.4293
    8SAPS  H11A  942   5.271   2.390  10.954 -0.1330 -0.4214  1.2206
    8SAPS  H11B  943   5.117   2.455  10.879  0.8057 -1.0265 -0.4053
    8SAPS     P  944   4.952   2.261  10.935  0.3374  0.5501 -0.3271
    8SAPS   O13  945   4.898   2.146  11.010 -0.1629 -0.3325  0.1313
    8SAPS   O14  946   4.874   2.388  10.939  0.1736  0.1710  0.7737
    8SAPS   O12  947   5.099   2.280  10.992  0.1076 -0.1248  0.3307
    8SAPS   O11  948   4.964   2.221  10.791 -0.9649  0.5178 -0.4709
    8SAPS    C1  949   5.084   2.164  10.731  0.0642  0.0501  0.0934
    8SAPS    HA  950   5.155   2.239  10.689  2.4009 -2.6070 -1.0008
    8SAPS    HB  951   5.137   2.105  10.809  0.1884  1.7555  1.3570
    8SAPS    C2  952   5.046   2.067  10.611 -0.1117  0.3425  0.2398
    8SAPS    HS  953   5.140   2.033  10.562  0.0926 -0.7244  1.3031
    8SAPS   O21  954   4.958   2.129  10.509  0.2924 -0.4285  0.0729
    8SAPS   C21  955   5.014   2.211  10.428 -0.1632 -0.4379  0.3045
    8SAPS   O22  956   5.132   2.250  10.428 -0.2157  0.3209 -0.2623
    8SAPS   C22  957   4.917   2.243  10.315  0.8502  0.2808  0.0080
    8SAPS   H2R  958   4.914   2.155  10.247 -1.5909  1.2847 -1.3127
    8SAPS   H2S  959   4.818   2.264  10.360  0.0344 -1.6454 -0.7614
    8SAPS    C3  960   4.972   1.945  10.659  0.3964  0.1113 -0.3117
    8SAPS    HX  961   4.876   1.977  10.706  0.8708  0.2512  0.5889
    8SAPS    HY  962   5.027   1.898  10.743  0.0657  1.7518  0.8852
    8SAPS   O31  963   4.961   1.852  10.550  0.5546 -0.0343  0.3003
    8SAPS   C31  964   4.857   1.780  10.544 -1.0799  0.4024  0.4299
    8SAPS   O32  965   4.752   1.799  10.607  0.5062  0.1396 -0.1221
    8SAPS   C32  966   4.876   1.668  10.444  0.3483 -0.4931  0.2684
    8SAPS   H2X  967   4.780   1.631  10.402 -0.7260  2.0910  0.2580
    8SAPS   H2Y  968   4.918   1.587  10.508 -0.7223 -0.3768  1.1505
    8SAPS   C23  969   4.968   2.360  10.225  0.8202 -0.0391 -0.0559
    8SAPS   H3R  970   5.034   2.334  10.140 -2.5052 -1.4634 -2.4597
    8SAPS   H3S  971   5.029   2.432  10.283 -1.0755  2.0394 -0.4872
    8SAPS   C24  972   4.851   2.456  10.173  0.3919  0.0489 -0.8247
    8SAPS   H4R  973   4.893   2.559  10.168 -0.0742  0.1902 -2.3558
    8SAPS   H4S  974   4.766   2.445  10.244  0.8306  0.3437 -0.2425
    8SAPS   C25  975   4.805   2.403  10.045  0.2057 -0.0680 -0.7437
    8SAPS   H5R  976   4.779   2.297  10.035 -0.0934  0.0228 -0.9815
    8SAPS   C26  977   4.795   2.464   9.929 -0.7084  0.4976 -0.2360
    8SAPS   H6R  978   4.732   2.405   9.861  1.6387 -1.8876 -0.4770
    8SAPS   C27  979   4.820   2.612   9.897  0.1201 -0.8175  0.3989
    8SAPS   H7R  980   4.920   2.635   9.855 -0.4828  1.1388 -0.0449
    8SAPS   H7S  981   4.791   2.668   9.989 -1.2399  1.0789 -1.1121
    8SAPS   C28  982   4.728   2.660   9.782 -0.2913  0.5529  0.4919
    8SAPS   H8R  983   4.653   2.735   9.810 -1.3032 -0.4617  0.6004
    8SAPS   C29  984   4.749   2.642   9.650  0.2725  0.3478 -1.1082
    8SAPS   H9R  985   4.692   2.693   9.571  0.9619  1.2657 -1.0394
    8SAPS  C210  986   4.848   2.537   9.594 -0.8313  0.4939  0.1649
    8SAPS  H10R  987   4.930   2.522   9.667  1.0466  1.5049 -1.6441
    8SAPS  H10S  988   4.906   2.585   9.512  0.8631  1.4392  1.8420
    8SAPS  C211  989   4.804   2.397   9.562 -0.2283  0.0789  0.6000
    8SAPS  H11R  990   4.808   2.331   9.649 -2.8551 -2.1910 -0.8502
    8SAPS  C212  991   4.796   2.340   9.439 -0.2916 -0.2741 -0.8690
    8SAPS  H12R  992   4.766   2.234   9.437  1.2182 -0.7242 -1.3560
    8SAPS  C213  993   4.811   2.420   9.309 -0.0525  0.2585 -0.3096
    8SAPS  H13R  994   4.879   2.507   9.323  1.0396  0.0977 -3.6704
    8SAPS  H13S  995   4.713   2.469   9.293  1.2716  2.8264 -1.2414
    8SAPS  C214  996   4.842   2.348   9.180 -0.4230 -0.0370 -0.2388
    8SAPS  H14R  997   4.886   2.247   9.191  0.0912  0.1279 -0.7395
    8SAPS  C215  998   4.823   2.404   9.060  0.5420  0.6498 -0.8745
    8SAPS  H15R  999   4.859   2.347   8.973 -2.5035 -0.7074 -1.3809
    8SAPS  C216 1000   4.770   2.541   9.036 -0.6970 -0.5223  0.8612
    8SAPS  H16R 1001   4.736   2.590   9.129 -3.0750  0.8843 -0.6421
    8SAPS  H16S 1002   4.675   2.546   8.979  0.8618  0.0606 -1.9045
    8SAPS  C217 1003   4.871   2.648   8.971 -0.2167 -0.5011 -0.2846
    8SAPS  H17R 1004   4.968   2.642   9.026 -0.9286 -0.7136  0.9779
    8SAPS  H17S 1005   4.820   2.744   8.992  0.3399  0.2645 -2.2257
    8SAPS  C218 1006   4.896   2.627   8.817 -0.6543  0.1239  0.4779
    8SAPS  H18R 1007   4.798   2.610   8.766 -0.2178 -1.0014 -0.0131
    8SAPS  H18S 1008   4.953   2.532   8.819  0.6057  0.6724 -2.7404
    8SAPS  C219 1009   4.974   2.741   8.750 -0.7651 -0.8729  0.3467
    8SAPS  H19R 1010   5.069   2.750   8.807 -0.3128 -1.3918 -0.3039
    8SAPS  H19S 1011   4.908   2.830   8.757 -0.8636 -1.0751  2.5857
    8SAPS  C220 1012   5.008   2.707   8.604 -0.4923 -0.1883 -0.5700
    8SAPS  H20R 1013   4.914   2.660   8.568  0.1110 -1.9790  0.1243
    8SAPS  H20S 1014   5.079   2.622   8.604 -0.7479 -0.4072 -0.0701
    8SAPS  H20T 1015   5.042   2.796   8.547  0.8502  0.7170  1.5163
    8SAPS   C33 1016   4.958   1.695  10.311 -0.1112 -0.8157 -0.4947
    8SAPS   H3X 1017   4.949   1.609  10.241  2.2445  0.0499 -1.9916
    8SAPS   H3Y 1018   5.063   1.726  10.329 -0.6856  0.5287  0.7213
    8SAPS   C34 1019   4.900   1.804  10.226  0.7251  0.2950  0.4206
    8SAPS   H4X 1020   4.915   1.891  10.294 -0.7790  1.1952 -0.3572
    8SAPS   H4Y 1021   4.797   1.766  10.213  0.6482  1.1321 -1.7492
    8SAPS   C35 1022   4.950   1.819  10.084  0.0782  0.0985  0.1368
    8SAPS   H5X 1023   4.927   1.725  10.029  4.2909 -0.7437 -0.5659
    8SAPS   H5Y 1024   5.061   1.823  10.081  0.1215 -0.3077  1.0878
    8SAPS   C36 1025   4.887   1.925  10.001  0.1727 -0.0310 -0.3575
    8SAPS   H6X 1026   4.907   2.014  10.064 -1.4659  0.0609  0.0944
    8SAPS   H6Y 1027   4.776   1.913  10.001  0.1280  0.3478  0.4755
    8SAPS   C37 1028   4.956   1.944   9.860  0.7207  0.8925 -0.1147
    8SAPS   H7X 1029   4.905   1.871   9.794  0.4012 -0.6961  1.7848
    8SAPS   H7Y 1030   5.059   1.907   9.882  0.0995  0.7126  2.8600
    8SAPS   C38 1031   4.941   2.087   9.809  0.0435 -0.0526 -1.0214
    8SAPS   H8X 1032   4.976   2.153   9.892  1.4491  0.2954 -1.8552
    8SAPS   H8Y 1033   4.832   2.094   9.795 -0.0128  3.2270  0.2106
    8SAPS   C39 1034   5.027   2.134   9.692 -0.3122 -0.3129  1.0286
    8SAPS   H9X 1035   5.134   2.119   9.716  0.1632  0.7364 -0.3100
    8SAPS   H9Y 1036   4.994   2.240   9.684 -1.3582 -0.6830  0.1946
    8SAPS  C310 1037   4.988   2.064   9.560  0.0875 -0.3138  0.2532
    8SAPS  H10X 1038   4.886   2.083   9.521  0.3776 -0.2898 -0.5112
    8SAPS  H10Y 1039   4.990   1.954   9.575  3.7160 -0.4624 -0.4661
    8SAPS  C311 1040   5.082   2.103   9.446  0.2010  0.1445  0.7964
    8SAPS  H11X 1041   5.182   2.076   9.485  0.7025 -1.3617 -1.3483
    8SAPS  H11Y 1042   5.090   2.214   9.439  1.8120 -0.0396 -0.9301
    8SAPS  C312 1043   5.057   2.040   9.314  0.7032  0.3712 -0.3116
    8SAPS  H12X 1044   4.954   2.040   9.273 -0.1420 -2.2954  1.5449
    8SAPS  H12Y 1045   5.077   1.931   9.327 -1.8405 -0.0504  0.4558
    8SAPS  C313 1046   5.155   2.094   9.210  0.5294 -0.2591 -0.3117
    8SAPS  H13X 1047   5.259   2.104   9.247  0.1551  3.5247  0.1398
    8SAPS  H13Y 1048   5.135   2.199   9.179 -1.3555 -0.5701 -0.2470
    8SAPS  C314 1049   5.164   2.009   9.086  0.2540  0.2911  0.2466
    8SAPS  H14X 1050   5.065   1.990   9.040  1.3829 -1.6426 -1.6202
    8SAPS  H14Y 1051   5.198   1.914   9.132 -0.1988 -1.2135 -2.3264
    8SAPS  C315 1052   5.249   2.064   8.975 -0.2847 -0.5216 -0.1871
    8SAPS  H15X 1053   5.331   1.999   8.936  2.0783  0.7223  2.3829
    8SAPS  H15Y 1054   5.316   2.144   9.011  0.2991 -1.1045  0.0416
    8SAPS  C316 1055   5.158   2.116   8.865 -0.4409  0.4332  0.6867
    8SAPS  H16X 1056   5.206   2.194   8.802 -0.9694  1.2762  1.2938
    8SAPS  H16Y 1057   5.064   2.168   8.896  0.1356  1.9718 -0.0311
    8SAPS  C317 1058   5.106   2.011   8.761 -0.7609  0.3397 -0.3474
    8SAPS  H17X 1059   5.048   1.935   8.817  0.6316  0.2580  1.0645
    8SAPS  H17Y 1060   5.186   1.954   8.708 -1.2548  1.6814 -2.6548
    8SAPS  C318 1061   5.023   2.078   8.652  0.4179 -0.2123  0.6158
    8SAPS  H18X 1062   5.025   2.022   8.556  2.6400 -1.9648  1.5913
    8SAPS  H18Y 1063   5.059   2.183   8.646  0.7009 -0.3591 -0.3457
    8SAPS  H18Z 1064   4.921   2.089   8.695 -0.0382  1.5930 -0.8397
    9SAPS     N 1065   2.588   3.700   5.748 -0.7782  0.1605 -0.2106
    9SAPS   HN1 1066   2.653   3.639   5.695  3.5973  4.0764  0.0535
    9SAPS   HN2 1067   2.639   3.790   5.748 -0.9983  0.2891 -0.8659
    9SAPS   HN3 1068   2.602   3.671   5.847 -0.6258 -1.9279 -0.7810
    9SAPS   C12 1069   2.442   3.710   5.708 -0.4469  0.1084  0.1271
    9SAPS  H12A 1070   2.442   3.784   5.630  1.2537  1.8177  1.6399
    9SAPS   C13 1071   2.378   3.578   5.661  0.5828  0.1957  0.6268
    9SAPS  O13A 1072   2.449   3.477   5.670 -0.0903  0.1781 -0.1137
    9SAPS  O13B 1073   2.257   3.576   5.639  0.7863  0.3471 -0.2008
    9SAPS   C11 1074   2.361   3.770   5.823 -0.1333 -0.0481 -0.0565
    9SAPS  H11A 1075   2.358   3.694   5.904  0.1244  0.5435  0.5113
    9SAPS  H11B 1076   2.259   3.778   5.780  0.1893  0.0962 -0.8215
    9SAPS     P 1077   2.315   3.988   5.958 -0.3620  0.0836 -0.1900
    9SAPS   O13 1078   2.409   4.067   6.037  0.3200 -0.3428  0.2014
    9SAPS   O14 1079   2.228   4.064   5.865 -0.1559 -0.5773 -0.6306
    9SAPS   O12 1080   2.417   3.898   5.867 -0.4295  0.2671 -0.1196
    9SAPS   O11 1081   2.228   3.890   6.046  0.1520 -0.2356  0.3731
    9SAPS    C1 1082   2.273   3.810   6.150 -1.1718 -0.6615  0.4879
    9SAPS    HA 1083   2.232   3.709   6.126  0.8191 -0.9155 -2.3569
    9SAPS    HB 1084   2.383   3.807   6.145 -0.9105  2.9278  1.3504
    9SAPS    C2 1085   2.206   3.857   6.280 -0.8454 -0.5620  0.2526
    9SAPS    HS 1086   2.102   3.887   6.257 -0.5174 -0.4788 -1.2161
    9SAPS   O21 1087   2.283   3.963   6.326 -0.2445 -0.6044 -0.4177
    9SAPS   C21 1088   2.217   4.062   6.391 -0.5660 -0.5361 -0.5957
    9SAPS   O22 1089   2.098   4.065   6.415 -0.0618  0.1708  0.0961
    9SAPS   C22 1090   2.325   4.154   6.445  0.4349 -0.3573  0.2759
    9SAPS   H2R 1091   2.416   4.098   6.476  1.3941  0.6923 -0.5591
    9SAPS   H2S 1092   2.355   4.217   6.359  1.2573 -1.5906 -0.3768
    9SAPS    C3 1093   2.210   3.745   6.384  0.7133 -0.6928 -0.1562
    9SAPS    HX 1094   2.317   3.721   6.400  1.2458  1.1410 -0.6401
    9SAPS    HY 1095   2.168   3.660   6.326  1.2671  0.6731 -2.7107
    9SAPS   O31 1096   2.139   3.788   6.500 -0.2854  0.0496 -0.0472
    9SAPS   C31 1097   2.005   3.767   6.493 -0.3825 -1.0517 -0.7653
    9SAPS   O32 1098   1.942   3.718   6.399  0.1824  0.2422 -0.0465
    9SAPS   C32 1099   1.958   3.854   6.615 -0.0962  0.4980 -0.4524
    9SAPS   H2X 1100   1.963   3.960   6.582 -1.4830  0.5725 -0.4696
    9SAPS   H2Y 1101   2.032   3.837   6.697  1.0280  2.4734 -0.9814
    9SAPS   C23 1102   2.288   4.239   6.567 -0.1205  0.6472  0.1940
    9SAPS   H3R 1103   2.178   4.257   6.577 -0.6551 -2.2309  0.4069
    9SAPS   H3S 1104   2.336   4.337   6.544  2.8574 -0.5977  0.8221
    9SAPS   C24 1105   2.341   4.169   6.694  0.2255 -0.1992 -0.5058
    9SAPS   H4R 1106   2.356   4.242   6.777  0.8701 -0.4152 -0.4267
    9SAPS   H4S 1107   2.446   4.138   6.673  1.0112  1.8930  0.0132
    9SAPS   C25 1108   2.260   4.055   6.742 -0.4564 -0.0966  0.0809
    9SAPS   H5R 1109   2.239   3.984   6.660 -0.5567  0.7255 -0.6124
    9SAPS   C26 1110   2.200   4.044   6.868  0.2829  0.1986  0.5039
    9SAPS   H6R 1111   2.143   3.954   6.893  0.0652 -0.3130 -1.5808
    9SAPS   C27 1112   2.186   4.152   6.967  0.0029  0.5726 -0.2073
    9SAPS   H7R 1113   2.179   4.251   6.917 -0.7230  1.0083  0.7251
    9SAPS   H7S 1114   2.280   4.159   7.025  0.3435 -2.1982 -0.2960
    9SAPS   C28 1115   2.077   4.143   7.063 -0.0032  0.6703  0.0047
    9SAPS   H8R 1116   1.981   4.117   7.016  0.7422 -1.4107 -0.4875
    9SAPS   C29 1117   2.079   4.152   7.198  0.4729  0.7312  0.1866
    9SAPS   H9R 1118   1.981   4.140   7.246  0.7463  1.1576  0.8704
    9SAPS  C210 1119   2.204   4.171   7.282  0.3298 -0.1655  0.1882
    9SAPS  H10R 1120   2.266   4.250   7.236  3.2683 -1.8840  0.9019
    9SAPS  H10S 1121   2.273   4.084   7.275 -0.4259 -0.7480 -0.1787
    9SAPS  C211 1122   2.178   4.196   7.428  0.6099  0.8434 -0.0867
    9SAPS  H11R 1123   2.076   4.229   7.452  0.8349 -0.8521  4.0325
    9SAPS  C212 1124   2.262   4.174   7.529 -0.1594  0.1605 -1.0048
    9SAPS  H12R 1125   2.229   4.186   7.633  3.4276  0.0371  0.2774
    9SAPS  C213 1126   2.407   4.113   7.521  1.2473 -0.1422  0.2210
    9SAPS  H13R 1127   2.442   4.084   7.419  2.1583 -1.4220  0.8779
    9SAPS  H13S 1128   2.403   4.016   7.574 -0.8688 -0.0586  0.2972
    9SAPS  C214 1129   2.506   4.211   7.584  0.5565 -0.1020  0.1261
    9SAPS  H14R 1130   2.553   4.276   7.509  2.0919 -0.3311  0.8341
    9SAPS  C215 1131   2.520   4.229   7.717 -0.6157  0.4457  0.3364
    9SAPS  H15R 1132   2.607   4.289   7.748  0.6763  0.1023 -2.2908
    9SAPS  C216 1133   2.454   4.152   7.828  0.1833 -0.1841 -0.5470
    9SAPS  H16R 1134   2.371   4.091   7.786 -0.9913  1.0321 -0.0697
    9SAPS  H16S 1135   2.407   4.219   7.904 -1.4580 -0.3383 -1.3792
    9SAPS  C217 1136   2.564   4.076   7.904 -0.1220  0.3283 -0.0494
    9SAPS  H17R 1137   2.637   4.144   7.953 -1.2460 -0.0965  2.4168
    9SAPS  H17S 1138   2.633   4.017   7.840  1.5728  1.2019  0.8986
    9SAPS  C218 1139   2.514   3.981   8.010  0.0517 -0.1434  0.3761
    9SAPS  H18R 1140   2.427   4.032   8.056 -0.3928 -1.7550  1.3942
    9SAPS  H18S 1141   2.594   3.976   8.087  0.4201 -0.1350 -0.0013
    9SAPS  C219 1142   2.476   3.840   7.959 -0.0207 -0.2602 -0.2766
    9SAPS  H19R 1143   2.557   3.805   7.891  0.2858  0.1719 -0.1418
    9SAPS  H19S 1144   2.378   3.853   7.910 -0.4983 -0.1800  0.6742
    9SAPS  C220 1145   2.446   3.730   8.069 -0.2439  0.3800  0.4065
    9SAPS  H20R 1146   2.538   3.688   8.115 -0.8203 -2.0731 -0.4986
    9SAPS  H20S 1147   2.390   3.648   8.019  2.4988 -1.1477 -0.3428
    9SAPS  H20T 1148   2.383   3.772   8.150 -0.8477 -0.0654  0.1786
    9SAPS   C33 1149   1.810   3.826   6.655 -0.5825  0.1107 -0.4040
    9SAPS   H3X 1150   1.807   3.735   6.718  1.7921  1.2787  1.5611
    9SAPS   H3Y 1151   1.753   3.807   6.562 -0.6011  1.1855 -0.6282
    9SAPS   C34 1152   1.750   3.948   6.719  0.4357 -0.5027 -0.5339
    9SAPS   H4X 1153   1.641   3.941   6.741  0.4734  1.7378  0.6795
    9SAPS   H4Y 1154   1.767   4.041   6.660  0.6056  0.2989  0.7409
    9SAPS   C35 1155   1.804   3.980   6.858  0.1898 -0.2507  0.6920
    9SAPS   H5X 1156   1.754   4.072   6.896 -1.6741 -2.4640  4.1508
    9SAPS   H5Y 1157   1.911   4.003   6.844 -0.4480  2.1815 -0.7667
    9SAPS   C36 1158   1.781   3.875   6.967 -0.1365 -0.1298  0.7132
    9SAPS   H6X 1159   1.821   3.780   6.926  0.2052 -0.2225  1.2519
    9SAPS   H6Y 1160   1.675   3.854   6.992 -0.6907  1.3234 -0.2961
    9SAPS   C37 1161   1.843   3.901   7.107 -0.3707 -0.1371  0.1791
    9SAPS   H7X 1162   1.810   3.999   7.149  2.2150  0.2645  1.4839
    9SAPS   H7Y 1163   1.951   3.881   7.093 -0.5381 -1.4881  0.7095
    9SAPS   C38 1164   1.791   3.799   7.206  0.3997  0.0849 -0.4551
    9SAPS   H8X 1165   1.814   3.695   7.172 -1.3917  0.5244 -3.3198
    9SAPS   H8Y 1166   1.682   3.813   7.215  0.2456  1.1741 -3.1785
    9SAPS   C39 1167   1.853   3.830   7.345  0.2187  0.2752 -0.1904
    9SAPS   H9X 1168   1.962   3.851   7.346  0.7063 -1.9778 -0.3444
    9SAPS   H9Y 1169   1.862   3.740   7.411  0.0654 -2.0644 -3.1332
    9SAPS  C310 1170   1.770   3.931   7.430  0.1597 -0.5166  1.2077
    9SAPS  H10X 1171   1.669   3.944   7.386  1.2433  0.6676 -1.1206
    9SAPS  H10Y 1172   1.825   4.028   7.427  3.5380 -2.2840  0.9095
    9SAPS  C311 1173   1.754   3.894   7.572 -0.6641 -0.4658 -0.6628
    9SAPS  H11X 1174   1.724   3.787   7.574 -0.9051 -0.3976  1.2746
    9SAPS  H11Y 1175   1.673   3.953   7.620  1.5473  1.8966  0.4549
    9SAPS  C312 1176   1.879   3.905   7.663 -0.6664 -0.1016  0.3351
    9SAPS  H12X 1177   1.919   4.008   7.655 -0.7908 -0.1827 -2.2866
    9SAPS  H12Y 1178   1.949   3.831   7.620 -1.4923  0.4234 -2.1207
    9SAPS  C313 1179   1.832   3.866   7.804 -0.2061  0.0837  0.3575
    9SAPS  H13X 1180   1.771   3.773   7.796 -1.4782  0.9448 -0.3916
    9SAPS  H13Y 1181   1.764   3.943   7.846  0.6510 -0.1045  2.1977
    9SAPS  C314 1182   1.948   3.857   7.910 -0.3693 -0.1953  0.0570
    9SAPS  H14X 1183   1.995   3.957   7.923  1.4613 -0.9712 -0.3022
    9SAPS  H14Y 1184   2.019   3.795   7.851 -1.5735 -0.4449 -1.1807
    9SAPS  C315 1185   1.907   3.800   8.053 -0.1833 -0.5761 -0.1740
    9SAPS  H15X 1186   1.814   3.849   8.089 -0.1042  0.4587 -1.3290
    9SAPS  H15Y 1187   1.987   3.836   8.121  0.0547 -0.3388 -0.5792
    9SAPS  C316 1188   1.906   3.645   8.064 -0.2987  0.4302  0.7299
    9SAPS  H16X 1189   2.008   3.605   8.045  0.1568  1.0301  1.8694
    9SAPS  H16Y 1190   1.840   3.606   7.983 -1.2533  1.1941  1.1188
    9SAPS  C317 1191   1.866   3.598   8.202  0.3063  0.0769 -0.0938
    9SAPS  H17X 1192   1.806   3.504   8.199 -2.5146  1.6421  1.9100
    9SAPS  H17Y 1193   1.791   3.668   8.244  1.5785  1.6507 -0.3448
    9SAPS  C318 1194   1.988   3.595   8.294 -0.4932 -0.1975  0.5482
    9SAPS  H18X 1195   2.050   3.507   8.269  0.5415 -0.2389  2.9316
    9SAPS  H18Y 1196   1.959   3.583   8.401  0.0075 -0.8949  0.6111
    9SAPS  H18Z 1197   2.051   3.686   8.284  0.6387 -0.8773  1.2894
   10SAPS     N 1198   3.207   3.563   5.836  0.0130  0.0537 -0.0445
   10SAPS   HN1 1199   3.131   3.492   5.842 -1.4601  1.5610 -0.1104
   10SAPS   HN2 1200   3.272   3.541   5.757  0.2172  0.4290  0.0178
   10SAPS   HN3 1201   3.262   3.550   5.923  2.6672  2.2085 -1.2515
   10SAPS   C12 1202   3.147   3.700   5.800  0.3394  0.2451  0.3176
   10SAPS  H12A 1203   3.236   3.759   5.783 -0.6769  1.6628 -0.2716
   10SAPS   C13 1204   3.073   3.699   5.667  0.2944  0.2550  0.3212
   10SAPS  O13A 1205   3.064   3.590   5.610  0.0460 -0.0252  0.4285
   10SAPS  O13B 1206   3.009   3.799   5.628 -0.0047 -0.5361  0.3754
   10SAPS   C11 1207   3.071   3.769   5.912 -0.2797  0.1937 -0.2556
   10SAPS  H11A 1208   2.984   3.706   5.940  0.1746 -0.3788 -0.1142
   10SAPS  H11B 1209   3.015   3.861   5.886 -1.0623  0.2168  1.3998
   10SAPS     P 1210   3.253   3.919   6.031  0.0976 -0.0220 -0.5376
   10SAPS   O13 1211   3.370   3.893   6.115 -0.2154 -0.4472  0.4167
   10SAPS   O14 1212   3.277   3.956   5.890 -0.3186  0.2170 -0.8030
   10SAPS   O12 1213   3.150   3.802   6.025 -0.4171 -0.1150 -0.0149
   10SAPS   O11 1214   3.161   4.032   6.099  0.2190  0.1498  0.0094
   10SAPS    C1 1215   3.091   3.998   6.218  0.0985 -0.1247 -0.1952
   10SAPS    HA 1216   2.998   3.945   6.192 -0.4877  0.3336  0.9078
   10SAPS    HB 1217   3.158   3.934   6.280 -0.9838 -2.1315 -1.0070
   10SAPS    C2 1218   3.044   4.127   6.295  0.0389 -0.1775  0.0403
   10SAPS    HS 1219   3.010   4.202   6.221 -0.3371  0.2322  0.6130
   10SAPS   O21 1220   3.152   4.182   6.373  0.0884 -0.0192 -0.1209
   10SAPS   C21 1221   3.130   4.308   6.423  0.3564  1.1998  0.6895
   10SAPS   O22 1222   3.039   4.379   6.387 -0.4719 -0.0482  0.3145
   10SAPS   C22 1223   3.241   4.345   6.511  0.3291  0.7977 -0.1996
   10SAPS   H2R 1224   3.213   4.439   6.563 -2.1931  0.2034 -0.3739
   10SAPS   H2S 1225   3.243   4.265   6.589 -0.8629 -0.1927 -1.1504
   10SAPS    C3 1226   2.929   4.071   6.386 -0.0906 -0.3039  0.6182
   10SAPS    HX 1227   2.844   4.040   6.321 -0.3206  1.6068 -0.0481
   10SAPS    HY 1228   2.897   4.161   6.442 -0.7429  0.6350 -1.1816
   10SAPS   O31 1229   2.967   3.951   6.462  0.0423 -0.0850 -0.0252
   10SAPS   C31 1230   3.017   3.971   6.579 -0.0609 -0.5521 -0.5381
   10SAPS   O32 1231   3.030   4.083   6.636 -0.0662 -0.5852  0.7631
   10SAPS   C32 1232   3.050   3.837   6.642 -0.6046 -0.4382  0.4876
   10SAPS   H2X 1233   3.107   3.774   6.570 -1.4921 -0.7134  0.0075
   10SAPS   H2Y 1234   2.955   3.784   6.661 -0.6033 -0.1598  1.3233
   10SAPS   C23 1235   3.383   4.335   6.456  0.2157  0.5844  0.0973
   10SAPS   H3R 1236   3.414   4.417   6.387  0.9692  1.0455  0.9540
   10SAPS   H3S 1237   3.387   4.242   6.396  1.7661  1.1078 -0.6678
   10SAPS   C24 1238   3.482   4.316   6.568 -0.0094 -0.1677  0.2567
   10SAPS   H4R 1239   3.585   4.293   6.533  1.3097  0.2514  3.5782
   10SAPS   H4S 1240   3.446   4.233   6.633  0.7738  1.2708  2.6507
   10SAPS   C25 1241   3.480   4.436   6.659 -0.0104 -0.2671  0.0762
   10SAPS   H5R 1242   3.466   4.534   6.609  2.3663 -0.7334 -1.6628
   10SAPS   C26 1243   3.450   4.425   6.791 -0.2945 -0.4409  0.3091
   10SAPS   H6R 1244   3.438   4.520   6.844 -2.9761 -0.0208 -0.8887
   10SAPS   C27 1245   3.449   4.305   6.880  0.2711  0.5404 -0.5465
   10SAPS   H7R 1246   3.487   4.343   6.977  1.3883 -1.7042 -0.0440
   10SAPS   H7S 1247   3.525   4.231   6.847 -0.8982 -0.0475 -2.0259
   10SAPS   C28 1248   3.320   4.233   6.896  0.0188 -0.2200  0.4164
   10SAPS   H8R 1249   3.314   4.148   6.826  1.9076  1.3947 -1.8693
   10SAPS   C29 1250   3.209   4.270   6.968 -0.2782 -0.5744  0.0308
   10SAPS   H9R 1251   3.123   4.204   6.957  0.4610 -1.5947  0.2168
   10SAPS  C210 1252   3.207   4.387   7.060 -0.4140  0.3231 -0.5758
   10SAPS  H10R 1253   3.130   4.459   7.027  0.8277  2.6627  1.3598
   10SAPS  H10S 1254   3.304   4.438   7.073  1.1106 -2.5598  0.4099
   10SAPS  C211 1255   3.164   4.345   7.204  0.6896 -0.6302 -0.3301
   10SAPS  H11R 1256   3.061   4.307   7.206 -0.5981  2.5469  0.4081
   10SAPS  C212 1257   3.227   4.353   7.321  0.1111  0.7698  0.0243
   10SAPS  H12R 1258   3.183   4.291   7.401  1.8919  0.2455  0.6595
   10SAPS  C213 1259   3.352   4.416   7.354 -0.1254  0.1636  0.7940
   10SAPS  H13R 1260   3.346   4.435   7.463 -3.9207  1.4615  0.5171
   10SAPS  H13S 1261   3.344   4.512   7.299 -1.5270  0.1384  0.9240
   10SAPS  C214 1262   3.484   4.344   7.321  0.8663  0.2782 -0.1156
   10SAPS  H14R 1263   3.474   4.283   7.230 -0.7497  0.7853 -0.3147
   10SAPS  C215 1264   3.592   4.338   7.400  0.3626 -0.2917 -0.5247
   10SAPS  H15R 1265   3.681   4.281   7.369  1.3418 -0.1238  1.7775
   10SAPS  C216 1266   3.601   4.403   7.537  0.1974 -0.0442  0.3345
   10SAPS  H16R 1267   3.528   4.488   7.540  1.7699  1.3356  1.2057
   10SAPS  H16S 1268   3.699   4.451   7.557  0.7626  0.4883 -3.0698
   10SAPS  C217 1269   3.553   4.314   7.651  0.6838 -0.0042  0.5786
   10SAPS  H17R 1270   3.607   4.217   7.657  1.7733  0.5767  0.3997
   10SAPS  H17S 1271   3.446   4.284   7.644  0.4227  1.1086 -0.5298
   10SAPS  C218 1272   3.557   4.367   7.797 -0.0148 -0.4669  0.1461
   10SAPS  H18R 1273   3.505   4.463   7.819 -0.6831 -1.1778  1.9273
   10SAPS  H18S 1274   3.658   4.388   7.839 -0.8969  1.7372  1.3301
   10SAPS  C219 1275   3.493   4.263   7.889 -0.4898 -0.1325  0.2124
   10SAPS  H19R 1276   3.551   4.169   7.889 -2.2001 -1.2334 -0.5680
   10SAPS  H19S 1277   3.394   4.238   7.845 -0.5301 -0.7781  0.6640
   10SAPS  C220 1278   3.475   4.298   8.041 -0.3461  0.0496 -0.5140
   10SAPS  H20R 1279   3.428   4.397   8.062 -1.3870 -0.5716  0.1404
   10SAPS  H20S 1280   3.573   4.280   8.092 -1.4589 -0.1330  1.6950
   10SAPS  H20T 1281   3.412   4.215   8.078  0.8534 -0.6706 -0.0091
   10SAPS   C33 1282   3.143   3.859   6.763 -0.0085 -0.0691 -0.3712
   10SAPS   H3X 1283   3.213   3.945   6.758  0.6739 -0.4997  1.1026
   10SAPS   H3Y 1284   3.193   3.760   6.765  0.9093  0.3885 -0.0713
   10SAPS   C34 1285   3.075   3.872   6.903  0.1698 -0.3423  0.8307
   10SAPS   H4X 1286   3.014   3.780   6.919 -3.2130  1.5929  0.0544
   10SAPS   H4Y 1287   2.996   3.948   6.884 -0.9500 -1.6541 -0.0622
   10SAPS   C35 1288   3.177   3.894   7.012 -0.2564 -0.2370 -0.2770
   10SAPS   H5X 1289   3.247   3.975   6.981 -1.1045  0.3795 -0.6143
   10SAPS   H5Y 1290   3.244   3.808   7.030  0.5973  0.2273 -1.1215
   10SAPS   C36 1291   3.109   3.926   7.148 -0.2149 -0.1824 -0.2684
   10SAPS   H6X 1292   3.052   3.837   7.182 -2.8879  0.1796 -3.3792
   10SAPS   H6Y 1293   3.034   4.004   7.127 -0.9032 -0.8725 -0.4129
   10SAPS   C37 1294   3.212   3.951   7.257  0.0174 -0.6785 -0.8276
   10SAPS   H7X 1295   3.264   4.043   7.225 -0.0740 -0.9747 -1.8634
   10SAPS   H7Y 1296   3.297   3.880   7.243  0.6969  0.0178 -0.3069
   10SAPS   C38 1297   3.148   3.959   7.395  0.4607 -0.7136 -0.1579
   10SAPS   H8X 1298   3.077   3.874   7.404  0.2050 -0.7164 -1.8408
   10SAPS   H8Y 1299   3.080   4.047   7.407  0.5664 -0.7008  0.3750
   10SAPS   C39 1300   3.265   3.955   7.493  1.0481  0.2330 -0.0108
   10SAPS   H9X 1301   3.337   4.039   7.482  0.3946  0.8104  0.0899
   10SAPS   H9Y 1302   3.326   3.869   7.457  1.6043  0.9766 -0.8689
   10SAPS  C310 1303   3.232   3.951   7.643  0.2369  0.6966  0.0314
   10SAPS  H10X 1304   3.188   3.852   7.669  3.1154 -0.8827 -0.6677
   10SAPS  H10Y 1305   3.153   4.026   7.665  0.3826 -0.0743  4.0068
   10SAPS  C311 1306   3.347   3.977   7.728 -0.6540 -0.6893  0.1599
   10SAPS  H11X 1307   3.295   4.015   7.819  0.5004  0.8778  0.2014
   10SAPS  H11Y 1308   3.411   4.060   7.690  0.3237 -1.2840  0.4809
   10SAPS  C312 1309   3.434   3.847   7.748 -0.6391  0.1423 -0.1661
   10SAPS  H12X 1310   3.488   3.825   7.654  1.1368 -0.8776  1.0250
   10SAPS  H12Y 1311   3.368   3.757   7.760 -0.3618  0.2066  2.6137
   10SAPS  C313 1312   3.522   3.845   7.873 -0.3111  0.1614 -0.3172
   10SAPS  H13X 1313   3.597   3.926   7.866 -1.7473  1.5932  0.1446
   10SAPS  H13Y 1314   3.581   3.751   7.862 -0.7669  0.1405 -3.5084
   10SAPS  C314 1315   3.448   3.856   8.009 -0.1941 -0.6114  0.0821
   10SAPS  H14X 1316   3.379   3.769   8.019 -0.8436 -0.2400 -0.9835
   10SAPS  H14Y 1317   3.386   3.948   8.014  1.6086  0.6398  0.1395
   10SAPS  C315 1318   3.536   3.874   8.137  0.4878  0.3557 -0.1028
   10SAPS  H15X 1319   3.468   3.906   8.219 -1.3285  0.8019 -1.7041
   10SAPS  H15Y 1320   3.606   3.957   8.115  0.9621 -0.6506 -2.7099
   10SAPS  C316 1321   3.615   3.746   8.174 -0.5561 -0.4533 -0.2791
   10SAPS  H16X 1322   3.693   3.765   8.251  0.0104 -0.5235 -0.8238
   10SAPS  H16Y 1323   3.680   3.716   8.089  1.0700  0.1426  0.6968
   10SAPS  C317 1324   3.527   3.637   8.228 -0.1081  0.0491  0.0609
   10SAPS  H17X 1325   3.602   3.562   8.261  3.1037  3.3967  1.0348
   10SAPS  H17Y 1326   3.470   3.587   8.147 -0.2575 -2.3675  1.5429
   10SAPS  C318 1327   3.422   3.668   8.337  0.2446  0.1800  0.7797
   10SAPS  H18X 1328   3.347   3.738   8.296  0.1636 -0.4825 -0.2208
   10SAPS  H18Y 1329   3.487   3.712   8.416  0.4170 -2.6414  2.3671
   10SAPS  H18Z 1330   3.366   3.577   8.369 -0.7427  0.3203 -0.4934
   11SAPS     N 1331   3.558   1.426   6.094  0.1280  0.1915  0.7309
   11SAPS   HN1 1332   3.648   1.375   6.099 -1.3789 -2.6158  1.0462
   11SAPS   HN2 1333   3.574   1.528   6.077  0.8780 -0.0154  0.1118
   11SAPS   HN3 1334   3.506   1.408   6.182  1.3760  1.5821  1.7991
   11SAPS   C12 1335   3.475   1.384   5.980 -0.3968 -0.1748 -0.9874
   11SAPS  H12A 1336   3.373   1.410   6.006 -0.3925 -1.4145  0.3694
   11SAPS   C13 1337   3.494   1.467   5.851  0.0152 -0.1863 -0.2356
   11SAPS  O13A 1338   3.591   1.547   5.843  0.1803 -0.6562  0.5836
   11SAPS  O13B 1339   3.405   1.459   5.764  0.1015 -0.8675 -0.5608
   11SAPS   C11 1340   3.490   1.230   5.942  0.2296  0.4229  0.2821
   11SAPS  H11A 1341   3.589   1.199   5.902  0.7545  2.2539  0.0577
   11SAPS  H11B 1342   3.418   1.221   5.858 -1.8313  1.7332  1.8059
   11SAPS     P 1343   3.430   1.000   6.030 -0.0181  0.0582  0.0110
   11SAPS   O13 1344   3.293   0.971   6.086 -0.2797 -0.4035 -0.6110
   11SAPS   O14 1345   3.443   0.975   5.892 -0.2419 -0.2054  0.2415
   11SAPS   O12 1346   3.462   1.147   6.051 -0.4200 -0.2001  0.0823
   11SAPS   O11 1347   3.547   0.929   6.117 -0.2371 -0.3368  0.2263
   11SAPS    C1 1348   3.641   1.003   6.195 -0.0761 -0.3389  0.4796
   11SAPS    HA 1349   3.737   0.949   6.185 -0.0151  0.0580 -1.7858
   11SAPS    HB 1350   3.648   1.110   6.164  1.1139 -0.3467  0.6838
   11SAPS    C2 1351   3.598   0.995   6.343  0.6462 -0.1372 -0.0400
   11SAPS    HS 1352   3.670   1.057   6.402  1.8976  2.0847 -3.5757
   11SAPS   O21 1353   3.594   0.852   6.381 -0.2836 -0.4271 -0.5266
   11SAPS   C21 1354   3.722   0.806   6.408 -0.1419  0.0464  0.9991
   11SAPS   O22 1355   3.823   0.868   6.401  0.0561 -0.5910 -0.4388
   11SAPS   C22 1356   3.705   0.660   6.441 -0.3278  0.1132 -0.4223
   11SAPS   H2R 1357   3.674   0.659   6.547 -0.3945  3.7373 -0.3010
   11SAPS   H2S 1358   3.621   0.606   6.390  0.3638 -1.6612  0.2424
   11SAPS    C3 1359   3.454   1.057   6.376  0.2121  0.0248  0.4573
   11SAPS    HX 1360   3.381   0.981   6.340 -1.8751  1.6827  0.9944
   11SAPS    HY 1361   3.435   1.150   6.318  0.4769 -0.8534 -1.1153
   11SAPS   O31 1362   3.430   1.081   6.519 -0.2718 -0.2082 -0.4671
   11SAPS   C31 1363   3.314   1.039   6.568  0.1730 -0.4389  0.6365
   11SAPS   O32 1364   3.221   0.987   6.509 -0.3153 -1.2570  0.6056
   11SAPS   C32 1365   3.309   1.058   6.718 -0.4536 -0.1824 -0.0812
   11SAPS   H2X 1366   3.276   1.162   6.738 -1.9416 -0.6846  0.2219
   11SAPS   H2Y 1367   3.411   1.036   6.756  1.1626  1.4928 -3.0759
   11SAPS   C23 1368   3.838   0.578   6.411  0.4969 -0.2986 -0.4726
   11SAPS   H3R 1369   3.921   0.616   6.474 -0.7599  0.3348  0.8713
   11SAPS   H3S 1370   3.869   0.583   6.304  0.2773 -0.7070 -0.5564
   11SAPS   C24 1371   3.828   0.433   6.444 -0.5704  0.6087 -0.1864
   11SAPS   H4R 1372   3.759   0.386   6.372  0.3592 -1.5373  0.2580
   11SAPS   H4S 1373   3.777   0.422   6.542 -0.6182 -1.3548 -0.4091
   11SAPS   C25 1374   3.960   0.350   6.453 -0.1981 -0.4659  0.3578
   11SAPS   H5R 1375   3.991   0.318   6.353  1.3653 -1.7921  1.2295
   11SAPS   C26 1376   4.038   0.332   6.560  0.9978  0.3596  0.2138
   11SAPS   H6R 1377   4.127   0.267   6.552  1.0016  0.4153 -0.2237
   11SAPS   C27 1378   3.993   0.377   6.694 -0.2834  0.1182  0.4821
   11SAPS   H7R 1379   3.926   0.303   6.743 -0.1575 -0.8907 -0.8327
   11SAPS   H7S 1380   3.938   0.473   6.682 -0.8494  0.0328  2.1102
   11SAPS   C28 1381   4.110   0.394   6.792  0.0398 -0.5176  0.3123
   11SAPS   H8R 1382   4.203   0.414   6.737 -0.0907 -2.3900 -0.7042
   11SAPS   C29 1383   4.111   0.368   6.922  0.3159  0.6649  0.0166
   11SAPS   H9R 1384   4.203   0.390   6.979  0.2228  0.9844  0.0433
   11SAPS  C210 1385   3.993   0.332   7.016 -0.3007 -0.0840  0.1419
   11SAPS  H10R 1386   4.016   0.257   7.094  0.4815 -0.0600 -0.0500
   11SAPS  H10S 1387   3.922   0.280   6.948  1.7533  0.8317 -2.9672
   11SAPS  C211 1388   3.943   0.450   7.095 -0.4735 -0.2734  0.7053
   11SAPS  H11R 1389   3.952   0.547   7.044  0.7636 -1.2107 -0.9733
   11SAPS  C212 1390   3.884   0.452   7.217  0.1305 -0.5172  0.1188
   11SAPS  H12R 1391   3.843   0.546   7.256 -2.7025 -0.8756 -1.6796
   11SAPS  C213 1392   3.866   0.334   7.309  0.5861  0.6641  0.2631
   11SAPS  H13R 1393   3.879   0.370   7.414 -2.6975 -1.3997  1.5145
   11SAPS  H13S 1394   3.945   0.257   7.296  1.5917  1.8026 -0.6405
   11SAPS  C214 1395   3.733   0.266   7.297 -0.4935  0.3974 -0.5542
   11SAPS  H14R 1396   3.729   0.207   7.205  0.8805 -1.2203  0.3550
   11SAPS  C215 1397   3.628   0.265   7.382  0.4513  0.0196  0.4921
   11SAPS  H15R 1398   3.552   0.186   7.384 -0.0012  0.4052 -0.7694
   11SAPS  C216 1399   3.629   0.329   7.523  0.0920  0.2310  0.0999
   11SAPS  H16R 1400   3.546   0.403   7.528 -0.2622 -0.0667 -1.1045
   11SAPS  H16S 1401   3.722   0.389   7.539  0.6867  0.1122 -2.4693
   11SAPS  C217 1402   3.623   0.242   7.654  0.5977 -0.2964 -0.1875
   11SAPS  H17R 1403   3.527   0.187   7.657  0.9820 -1.0140 -0.6795
   11SAPS  H17S 1404   3.613   0.316   7.736 -1.3051  0.7846 -1.3268
   11SAPS  C218 1405   3.738   0.150   7.670  0.2566 -0.4375  0.1853
   11SAPS  H18R 1406   3.820   0.204   7.619 -0.7799  1.0477  0.0203
   11SAPS  H18S 1407   3.714   0.060   7.609 -0.2008 -2.2518  2.8363
   11SAPS  C219 1408   3.757   0.089   7.811 -0.1533  0.7528 -0.5810
   11SAPS  H19R 1409   3.753   0.174   7.882 -1.2424 -0.7711  1.2593
   11SAPS  H19S 1410   3.859   0.043   7.817 -0.4945  0.0021 -0.3991
   11SAPS  C220 1411   3.660  -0.017   7.859 -0.4015  0.5893  0.3922
   11SAPS  H20R 1412   3.564   0.038   7.854 -1.1546 -0.7902 -0.5995
   11SAPS  H20S 1413   3.683  -0.044   7.964  2.1193  1.4067  0.1270
   11SAPS  H20T 1414   3.650  -0.105   7.792 -0.6212  2.0155 -1.5504
   11SAPS   C33 1415   3.208   0.960   6.784 -0.8561  0.1407  0.2705
   11SAPS   H3X 1416   3.239   0.858   6.753 -1.1144 -0.5788  2.2763
   11SAPS   H3Y 1417   3.104   0.979   6.748 -0.2425 -1.3741 -2.6767
   11SAPS   C34 1418   3.214   0.970   6.938 -0.8917 -1.3780 -0.0686
   11SAPS   H4X 1419   3.320   0.942   6.957 -0.7284  0.1012  1.4538
   11SAPS   H4Y 1420   3.145   0.892   6.978 -0.9083 -1.0721  0.5083
   11SAPS   C35 1421   3.189   1.109   6.987  0.5039 -0.1621 -0.0537
   11SAPS   H5X 1422   3.085   1.137   6.958  0.5361 -1.5359 -1.6549
   11SAPS   H5Y 1423   3.257   1.185   6.942  2.7347 -2.3796 -0.6554
   11SAPS   C36 1424   3.197   1.120   7.134  0.7666 -0.1088 -0.0936
   11SAPS   H6X 1425   3.179   1.226   7.163 -0.9252 -0.0414 -1.2153
   11SAPS   H6Y 1426   3.297   1.098   7.177  1.1180  0.4141 -0.6385
   11SAPS   C37 1427   3.109   1.017   7.202 -0.0658  0.1510 -0.1244
   11SAPS   H7X 1428   3.155   0.916   7.192  0.3269  0.3815 -0.7403
   11SAPS   H7Y 1429   3.006   1.017   7.159 -0.4003  0.9196  0.6608
   11SAPS   C38 1430   3.105   1.035   7.356  0.5035  0.4258  0.0459
   11SAPS   H8X 1431   3.056   1.131   7.380 -1.3874  0.2072 -2.4979
   11SAPS   H8Y 1432   3.212   1.036   7.388  1.7049 -0.6857 -3.4174
   11SAPS   C39 1433   3.038   0.914   7.418  0.1030  0.4418 -0.2972
   11SAPS   H9X 1434   3.094   0.823   7.390 -2.3779 -1.2097 -0.2209
   11SAPS   H9Y 1435   2.934   0.909   7.379 -0.1835 -0.9777  0.5689
   11SAPS  C310 1436   3.029   0.907   7.574 -0.5030  0.2431 -0.0541
   11SAPS  H10X 1437   2.960   0.821   7.586 -0.8473  0.5861  0.4972
   11SAPS  H10Y 1438   2.979   0.998   7.613 -0.0455 -0.4157  2.2636
   11SAPS  C311 1439   3.167   0.909   7.639 -0.2737  0.1444  0.1525
   11SAPS  H11X 1440   3.226   0.994   7.597  0.2398  0.5994  1.7124
   11SAPS  H11Y 1441   3.230   0.821   7.613  1.9770  1.1796  1.7383
   11SAPS  C312 1442   3.166   0.925   7.790 -0.3485 -0.4838  0.3453
   11SAPS  H12X 1443   3.272   0.941   7.821 -0.1863  3.1116 -1.6238
   11SAPS  H12Y 1444   3.127   0.828   7.830 -2.3388 -0.0807 -0.5261
   11SAPS  C313 1445   3.086   1.045   7.833  0.7105 -0.3932  1.0578
   11SAPS  H13X 1446   2.976   1.029   7.833  0.5365  0.6158 -0.4848
   11SAPS  H13Y 1447   3.087   1.139   7.774 -0.8704 -1.5317 -0.9306
   11SAPS  C314 1448   3.146   1.096   7.956 -0.5168 -0.3455 -0.3149
   11SAPS  H14X 1449   3.251   1.130   7.936 -0.5675 -0.1107 -0.1925
   11SAPS  H14Y 1450   3.180   1.018   8.027  1.0126  1.3145  0.9046
   11SAPS  C315 1451   3.085   1.216   8.014  0.5128 -0.1272 -0.3516
   11SAPS  H15X 1452   2.977   1.204   8.039  0.3183  0.6518 -0.7897
   11SAPS  H15Y 1453   3.078   1.310   7.955  0.6851 -0.0527 -0.2552
   11SAPS  C316 1454   3.153   1.250   8.148 -0.0756 -0.3706 -0.9384
   11SAPS  H16X 1455   3.256   1.283   8.123  0.7070 -1.5215  0.5801
   11SAPS  H16Y 1456   3.154   1.158   8.211  0.5242  1.4741  1.9020
   11SAPS  C317 1457   3.066   1.343   8.238 -0.7927  0.7579 -0.0405
   11SAPS  H17X 1458   3.114   1.341   8.338 -0.1138  0.0102 -0.3676
   11SAPS  H17Y 1459   2.965   1.298   8.248  0.1824 -1.2876  1.4573
   11SAPS  C318 1460   3.057   1.489   8.182  0.4655 -0.2278 -0.4269
   11SAPS  H18X 1461   3.014   1.499   8.080 -0.7256  2.5899  0.2526
   11SAPS  H18Y 1462   3.154   1.543   8.176  0.7142 -0.3348  1.7797
   11SAPS  H18Z 1463   2.994   1.556   8.245 -0.4458 -1.6159  0.1757
   12SAPS     N 1464   3.174   2.825   6.198  1.1229  0.5331  0.1832
   12SAPS   HN1 1465   3.255   2.764   6.223  3.4073  2.7266 -1.2708
   12SAPS   HN2 1466   3.124   2.842   6.287  1.0889  0.0793  0.2543
   12SAPS   HN3 1467   3.117   2.767   6.133  3.7600 -0.2672 -1.5920
   12SAPS   C12 1468   3.224   2.947   6.124  0.2589  0.2985  0.1395
   12SAPS  H12A 1469   3.253   2.919   6.024  0.3070 -0.6086  0.3968
   12SAPS   C13 1470   3.139   3.080   6.124  0.2123 -0.9473 -0.0918
   12SAPS  O13A 1471   3.013   3.072   6.139 -0.2738  0.1726  0.4421
   12SAPS  O13B 1472   3.186   3.187   6.072  0.2242  0.7875 -0.5453
   12SAPS   C11 1473   3.359   2.973   6.191 -0.2966 -0.4498  0.8529
   12SAPS  H11A 1474   3.352   3.012   6.295 -2.7625  0.0612  0.5471
   12SAPS  H11B 1475   3.413   3.055   6.138  0.3321 -0.8567  0.8503
   12SAPS     P 1476   3.547   2.826   6.085  0.7359  0.4593  0.1249
   12SAPS   O13 1477   3.607   2.694   6.099 -0.0091 -0.6645 -0.1088
   12SAPS   O14 1478   3.482   2.850   5.963 -0.0034 -0.4216  0.6218
   12SAPS   O12 1479   3.438   2.854   6.199 -0.0841  0.1063 -0.3864
   12SAPS   O11 1480   3.652   2.937   6.101 -0.1934  0.0111 -0.6374
   12SAPS    C1 1481   3.705   3.008   6.220  0.5961  0.3402  0.0462
   12SAPS    HA 1482   3.753   3.105   6.194 -2.2296  2.2041  1.3381
   12SAPS    HB 1483   3.624   3.022   6.294 -1.4787 -0.4379 -1.9323
   12SAPS    C2 1484   3.801   2.921   6.297 -0.1428  0.7614 -0.3136
   12SAPS    HS 1485   3.875   2.879   6.225 -0.4214  1.5067 -1.0425
   12SAPS   O21 1486   3.733   2.814   6.363  0.2795  0.0236 -0.4346
   12SAPS   C21 1487   3.807   2.707   6.375 -0.0023 -0.0204  0.4287
   12SAPS   O22 1488   3.927   2.688   6.336  0.4211 -0.3622 -0.0743
   12SAPS   C22 1489   3.736   2.612   6.474 -0.2885  0.4418  0.3690
   12SAPS   H2R 1490   3.678   2.682   6.538 -0.2970  0.9942 -0.2269
   12SAPS   H2S 1491   3.656   2.560   6.417 -0.3113  1.3939 -0.4916
   12SAPS    C3 1492   3.880   3.006   6.405 -0.1582 -0.7344  0.1935
   12SAPS    HX 1493   3.813   3.030   6.490  0.2049 -0.5907  0.4438
   12SAPS    HY 1494   3.917   3.101   6.360 -0.1516 -0.4679  0.7544
   12SAPS   O31 1495   4.001   2.930   6.448 -0.4738  0.1326  0.0603
   12SAPS   C31 1496   3.997   2.864   6.561  0.3038  0.2123  0.2627
   12SAPS   O32 1497   3.905   2.867   6.644 -0.7152 -0.5222  0.5857
   12SAPS   C32 1498   4.134   2.783   6.571  0.0351  0.0827 -0.3615
   12SAPS   H2X 1499   4.213   2.852   6.534  0.1977 -0.1716 -0.4932
   12SAPS   H2Y 1500   4.126   2.693   6.506 -0.6813 -0.2886  0.2230
   12SAPS   C23 1501   3.840   2.526   6.550 -0.1568 -0.1214  0.1030
   12SAPS   H3R 1502   3.936   2.580   6.565 -0.0327 -0.2962 -0.0399
   12SAPS   H3S 1503   3.871   2.440   6.486 -1.1555 -0.2931 -0.1742
   12SAPS   C24 1504   3.793   2.493   6.695  0.5113  0.2007  0.1999
   12SAPS   H4R 1505   3.791   2.580   6.763 -0.1316 -1.4249  2.3634
   12SAPS   H4S 1506   3.878   2.435   6.736  0.2062 -0.9080 -0.6733
   12SAPS   C25 1507   3.661   2.420   6.731  0.4544 -0.9719 -0.6897
   12SAPS   H5R 1508   3.586   2.398   6.653 -2.1553  3.2516  0.3094
   12SAPS   C26 1509   3.647   2.372   6.858 -0.1333 -0.1033  0.0481
   12SAPS   H6R 1510   3.554   2.324   6.890  0.5734 -0.9726  0.8308
   12SAPS   C27 1511   3.740   2.395   6.974 -0.0987 -0.5681  0.4780
   12SAPS   H7R 1512   3.737   2.504   6.998 -0.2633 -0.2971 -0.7236
   12SAPS   H7S 1513   3.838   2.358   6.938 -1.2694 -1.5846 -1.8588
   12SAPS   C28 1514   3.707   2.318   7.098  0.5495 -0.6748 -0.4671
   12SAPS   H8R 1515   3.606   2.283   7.126  1.3160 -0.9710  2.2115
   12SAPS   C29 1516   3.792   2.298   7.204 -0.4341  0.5024 -0.5436
   12SAPS   H9R 1517   3.757   2.243   7.293 -0.8138  1.6674  0.0434
   12SAPS  C210 1518   3.941   2.333   7.210 -0.4141  0.1734 -0.0181
   12SAPS  H10R 1519   3.940   2.436   7.251  0.2551  0.5292 -0.8446
   12SAPS  H10S 1520   3.982   2.333   7.106 -0.8458  1.3933 -0.2058
   12SAPS  C211 1521   4.041   2.237   7.275  0.8027  0.0312  0.9146
   12SAPS  H11R 1522   4.126   2.214   7.208  0.4626  1.7837 -0.2030
   12SAPS  C212 1523   4.045   2.185   7.402  0.1301 -0.7785 -0.5727
   12SAPS  H12R 1524   4.126   2.118   7.433 -0.9844 -1.8289  0.1446
   12SAPS  C213 1525   3.931   2.226   7.492 -0.3453  0.6975  0.6212
   12SAPS  H13R 1526   3.855   2.147   7.477  0.4935  0.2606 -1.7193
   12SAPS  H13S 1527   3.880   2.319   7.456 -1.2807  0.9438  2.4777
   12SAPS  C214 1528   3.967   2.253   7.627  0.3573 -0.5763 -0.5442
   12SAPS  H14R 1529   4.010   2.353   7.646 -0.1907 -0.0449 -1.9497
   12SAPS  C215 1530   3.983   2.150   7.716 -0.5865  0.6520 -0.2642
   12SAPS  H15R 1531   4.014   2.175   7.818 -0.8764  0.1778 -0.0542
   12SAPS  C216 1532   3.952   2.005   7.708 -0.6266 -0.1024 -0.3967
   12SAPS  H16R 1533   4.020   1.936   7.763 -2.8187 -1.7940  0.3012
   12SAPS  H16S 1534   3.954   1.973   7.601  0.2033  0.0589 -0.4400
   12SAPS  C217 1535   3.815   1.988   7.763  0.2626 -0.5243 -0.3850
   12SAPS  H17R 1536   3.789   1.880   7.766  2.6364 -1.1547 -0.1318
   12SAPS  H17S 1537   3.736   2.037   7.702  1.7871  1.6281 -0.7586
   12SAPS  C218 1538   3.796   2.030   7.909  0.4350  0.2170 -0.7855
   12SAPS  H18R 1539   3.799   2.141   7.912  1.8230  0.2169 -1.5541
   12SAPS  H18S 1540   3.881   1.993   7.971  0.9482  1.1274 -0.9308
   12SAPS  C219 1541   3.675   1.968   7.979 -0.6371  0.4982 -0.5414
   12SAPS  H19R 1542   3.686   1.858   7.968 -1.3806  0.0603  2.2980
   12SAPS  H19S 1543   3.581   1.993   7.924 -1.2722  0.0366  0.3032
   12SAPS  C220 1544   3.659   2.018   8.121 -0.1640 -0.4097  0.0296
   12SAPS  H20R 1545   3.674   1.932   8.190 -1.5751  1.5320  3.0019
   12SAPS  H20S 1546   3.557   2.063   8.128  0.4515  0.7521  2.6731
   12SAPS  H20T 1547   3.741   2.090   8.143 -0.7365  0.7508 -1.4829
   12SAPS   C33 1548   4.163   2.724   6.714  0.1568  0.4087  0.7471
   12SAPS   H3X 1549   4.261   2.672   6.719  0.5173  1.1471  1.7988
   12SAPS   H3Y 1550   4.090   2.646   6.743 -0.8378  0.6181 -1.0209
   12SAPS   C34 1551   4.173   2.839   6.811  0.1013  0.6843  0.1809
   12SAPS   H4X 1552   4.087   2.909   6.802 -0.0296  0.6373  1.0277
   12SAPS   H4Y 1553   4.263   2.900   6.792  0.1816  0.7671  0.8302
   12SAPS   C35 1554   4.180   2.782   6.950  0.0491 -0.5875  0.0563
   12SAPS   H5X 1555   4.252   2.699   6.964  0.7984  0.0546  0.1496
   12SAPS   H5Y 1556   4.080   2.744   6.980  0.0193 -0.6263 -0.0914
   12SAPS   C36 1557   4.209   2.887   7.062  0.0208 -0.4513  0.0992
   12SAPS   H6X 1558   4.120   2.954   7.061  0.4541  0.2055 -2.2634
   12SAPS   H6Y 1559   4.286   2.964   7.040 -1.2610  0.8333 -0.0797
   12SAPS   C37 1560   4.235   2.813   7.190  0.6489  0.0289 -0.3687
   12SAPS   H7X 1561   4.327   2.751   7.185  0.0512 -0.9558  0.2508
   12SAPS   H7Y 1562   4.163   2.730   7.210  2.0110 -1.1084 -0.0255
   12SAPS   C38 1563   4.247   2.909   7.313  0.4307  0.3597 -0.1861
   12SAPS   H8X 1564   4.147   2.955   7.327  0.2258 -0.2191  0.2876
   12SAPS   H8Y 1565   4.317   2.992   7.293  0.6800 -0.1834 -1.6985
   12SAPS   C39 1566   4.294   2.834   7.433  0.8192  0.1197 -0.0612
   12SAPS   H9X 1567   4.391   2.788   7.406  1.1585  0.9643 -0.3298
   12SAPS   H9Y 1568   4.223   2.749   7.445  0.6888  0.3783  1.1541
   12SAPS  C310 1569   4.323   2.921   7.560 -0.5041  0.5330  0.2218
   12SAPS  H10X 1570   4.228   2.972   7.584  0.7187  2.1579  1.9557
   12SAPS  H10Y 1571   4.397   2.994   7.520  1.1137 -2.0790 -1.8887
   12SAPS  C311 1572   4.389   2.832   7.662  0.4221  0.0843 -0.6928
   12SAPS  H11X 1573   4.492   2.810   7.627  0.8098  0.9460 -0.1213
   12SAPS  H11Y 1574   4.326   2.745   7.690 -0.3281  1.2455  1.4905
   12SAPS  C312 1575   4.398   2.903   7.795 -0.0548 -0.0973  0.3643
   12SAPS  H12X 1576   4.304   2.936   7.843 -0.1344 -1.1280  0.9322
   12SAPS  H12Y 1577   4.467   2.990   7.787 -0.5281  0.2647  0.1639
   12SAPS  C313 1578   4.470   2.811   7.896 -0.0535  0.0955  0.0148
   12SAPS  H13X 1579   4.558   2.760   7.852  0.2821  0.1539  0.6077
   12SAPS  H13Y 1580   4.395   2.733   7.919  1.3682 -0.9479  1.3656
   12SAPS  C314 1581   4.509   2.877   8.028  0.7897 -0.8946  0.3775
   12SAPS  H14X 1582   4.426   2.904   8.095  1.2436 -0.5079  0.7924
   12SAPS  H14Y 1583   4.575   2.965   8.011  0.3866 -0.6123  0.2786
   12SAPS  C315 1584   4.591   2.774   8.109 -0.3704 -0.0158 -0.1279
   12SAPS  H15X 1585   4.689   2.751   8.062 -0.5268 -1.7967  0.3488
   12SAPS  H15Y 1586   4.526   2.684   8.106  4.1137 -3.6499  0.4856
   12SAPS  C316 1587   4.604   2.816   8.255  0.3433 -0.3003 -0.2923
   12SAPS  H16X 1588   4.503   2.842   8.292  0.8813  1.0529  0.3112
   12SAPS  H16Y 1589   4.665   2.909   8.257 -1.2752  0.8046  2.6915
   12SAPS  C317 1590   4.664   2.709   8.344  0.1654  0.5863  0.0001
   12SAPS  H17X 1591   4.772   2.703   8.319  0.0656  1.6851 -0.7882
   12SAPS  H17Y 1592   4.621   2.608   8.328 -0.8554  1.3825 -2.7780
   12SAPS  C318 1593   4.639   2.752   8.491 -0.4579 -0.5981 -0.1318
   12SAPS  H18X 1594   4.529   2.759   8.502 -0.7725 -1.0217 -2.3564
   12SAPS  H18Y 1595   4.691   2.847   8.513 -2.4541  0.5187  0.0318
   12SAPS  H18Z 1596   4.681   2.668   8.550  1.0921 -0.4434 -0.9596
   13SAPS     N 1597   2.148   4.978   5.504  0.3961  0.0546  0.1809
   13SAPS   HN1 1598   2.153   5.051   5.578  0.6460  0.2524 -0.0252
   13SAPS   HN2 1599   2.238   4.947   5.461 -1.1212 -0.9014 -2.5441
   13SAPS   HN3 1600   2.088   5.015   5.428 -0.0025  0.2579  0.5866
   13SAPS   C12 1601   2.098   4.852   5.570  0.1517  0.0599 -0.7869
   13SAPS  H12A 1602   1.993   4.866   5.588  0.6762  1.6909  1.3439
   13SAPS   C13 1603   2.127   4.732   5.475  0.3198  0.5503  0.0291
   13SAPS  O13A 1604   2.201   4.743   5.377  0.0538  0.1637  0.3115
   13SAPS  O13B 1605   2.081   4.615   5.507 -0.1407 -0.0062 -0.2099
   13SAPS   C11 1606   2.172   4.841   5.708  0.7605 -0.0304  0.3446
   13SAPS  H11A 1607   2.283   4.841   5.710  0.7568  0.2246  0.9460
   13SAPS  H11B 1608   2.134   4.749   5.757 -0.1568 -0.2159 -0.6841
   13SAPS     P 1609   2.050   4.953   5.919  0.2287 -0.2404 -0.0729
   13SAPS   O13 1610   2.078   5.075   5.994  0.1133 -0.4526  0.7786
   13SAPS   O14 1611   1.903   4.925   5.889 -0.3774 -0.2953 -0.8160
   13SAPS   O12 1612   2.133   4.956   5.788  0.4250  0.3233  0.5794
   13SAPS   O11 1613   2.120   4.837   5.996 -0.3155 -0.0874  0.0997
   13SAPS    C1 1614   2.052   4.718   6.054  0.0558  0.8036  0.4606
   13SAPS    HA 1615   1.999   4.665   5.971  1.7804  1.0152 -0.8304
   13SAPS    HB 1616   2.123   4.658   6.115 -0.3048 -1.7628 -1.4757
   13SAPS    C2 1617   1.943   4.761   6.156 -0.2975  0.6642 -0.4935
   13SAPS    HS 1618   1.879   4.835   6.104 -0.3165  0.9902 -0.0063
   13SAPS   O21 1619   2.017   4.822   6.258 -0.4156 -0.4264  0.0726
   13SAPS   C21 1620   1.949   4.901   6.340  0.1085  0.5673  0.7404
   13SAPS   O22 1621   1.839   4.940   6.321  0.4464 -0.5242 -0.4673
   13SAPS   C22 1622   2.024   4.924   6.470 -0.1233  0.4907  0.8686
   13SAPS   H2R 1623   2.120   4.868   6.466  1.3500  2.9277 -0.3136
   13SAPS   H2S 1624   2.064   5.028   6.472 -1.3412  0.9836  0.8736
   13SAPS    C3 1625   1.858   4.641   6.217  0.6821 -0.0979  0.3550
   13SAPS    HX 1626   1.803   4.596   6.132  0.1657  3.3821 -1.3078
   13SAPS    HY 1627   1.782   4.691   6.280  0.3237  1.3389 -1.1481
   13SAPS   O31 1628   1.946   4.541   6.279 -0.4693 -0.0782 -0.3773
   13SAPS   C31 1629   1.874   4.450   6.331 -0.1205  0.2263 -0.4521
   13SAPS   O32 1630   1.751   4.435   6.314  0.6294 -0.2067  0.5919
   13SAPS   C32 1631   1.962   4.356   6.413 -0.7948  0.0868  0.9231
   13SAPS   H2X 1632   2.062   4.401   6.433  0.7357 -1.1915 -2.8111
   13SAPS   H2Y 1633   1.986   4.270   6.347  0.9296 -1.4763  3.4355
   13SAPS   C23 1634   1.926   4.906   6.586 -0.2751 -0.5447  0.9160
   13SAPS   H3R 1635   1.874   4.808   6.571 -0.9598 -0.2974  1.6204
   13SAPS   H3S 1636   1.854   4.991   6.583 -1.8524 -1.4830  5.4615
   13SAPS   C24 1637   1.999   4.913   6.724 -0.5038  0.1996  0.2056
   13SAPS   H4R 1638   2.043   5.015   6.723 -0.6785  0.2674 -0.9007
   13SAPS   H4S 1639   2.077   4.834   6.719 -0.0729  0.6984 -2.0518
   13SAPS   C25 1640   1.916   4.880   6.842  0.1457  0.7476 -0.9787
   13SAPS   H5R 1641   1.808   4.893   6.827 -0.1519  1.4326  1.2976
   13SAPS   C26 1642   1.967   4.849   6.970 -0.2308 -0.3014  0.3678
   13SAPS   H6R 1643   1.906   4.835   7.061  0.9565 -0.5590  1.1491
   13SAPS   C27 1644   2.115   4.807   6.995  0.6802 -0.0845 -0.1616
   13SAPS   H7R 1645   2.122   4.812   7.106  1.2740  0.5095 -0.2188
   13SAPS   H7S 1646   2.179   4.886   6.950  2.2162 -1.1310  0.1024
   13SAPS   C28 1647   2.156   4.667   6.955 -0.1569  0.3599  0.3954
   13SAPS   H8R 1648   2.125   4.645   6.852 -0.7047  1.7323  0.2396
   13SAPS   C29 1649   2.204   4.571   7.040  0.0602 -0.1852 -0.3642
   13SAPS   H9R 1650   2.229   4.473   6.997 -1.1253  0.0438 -1.6665
   13SAPS  C210 1651   2.243   4.579   7.184  0.0018  0.1664  0.4433
   13SAPS  H10R 1652   2.271   4.685   7.202 -0.8233  1.0011 -2.5073
   13SAPS  H10S 1653   2.344   4.535   7.202  0.1681  1.1515  2.0632
   13SAPS  C211 1654   2.154   4.516   7.293 -0.2425 -0.0748 -0.1251
   13SAPS  H11R 1655   2.078   4.440   7.270 -2.5029  1.6895  1.0584
   13SAPS  C212 1656   2.160   4.542   7.429  0.3163  0.2308  0.0420
   13SAPS  H12R 1657   2.080   4.506   7.495  0.8125 -1.6649 -0.3092
   13SAPS  C213 1658   2.261   4.624   7.496 -0.2685  0.4130 -0.0747
   13SAPS  H13R 1659   2.211   4.720   7.524  2.9798  1.8194  1.4387
   13SAPS  H13S 1660   2.339   4.648   7.421  1.8553 -1.9931  1.2007
   13SAPS  C214 1661   2.341   4.571   7.612 -0.3845  0.7393 -0.2053
   13SAPS  H14R 1662   2.441   4.536   7.581 -0.5843 -1.6660  1.4992
   13SAPS  C215 1663   2.305   4.560   7.744  0.7025  0.3324 -0.7358
   13SAPS  H15R 1664   2.376   4.518   7.817 -0.8905  0.0111  0.6900
   13SAPS  C216 1665   2.168   4.605   7.793 -0.1892  0.0449 -0.5230
   13SAPS  H16R 1666   2.127   4.671   7.713 -0.3591 -0.0099 -0.4804
   13SAPS  H16S 1667   2.177   4.658   7.890  0.8202 -2.4266  0.8159
   13SAPS  C217 1668   2.063   4.488   7.822  0.7163 -0.6575  0.3195
   13SAPS  H17R 1669   2.109   4.425   7.902  2.0618  2.4133  2.1475
   13SAPS  H17S 1670   2.062   4.427   7.729 -0.4950  1.4877 -1.1722
   13SAPS  C218 1671   1.921   4.530   7.857 -1.1363 -0.2130 -0.1741
   13SAPS  H18R 1672   1.890   4.603   7.780 -0.3783 -0.4869 -0.7518
   13SAPS  H18S 1673   1.931   4.594   7.948 -0.2611 -0.7704  0.1473
   13SAPS  C219 1674   1.825   4.416   7.876 -0.4778  1.0746  0.4223
   13SAPS  H19R 1675   1.824   4.355   7.783  1.3135  2.2751 -0.4443
   13SAPS  H19S 1676   1.721   4.456   7.884 -0.3744  1.3360  0.4500
   13SAPS  C220 1677   1.863   4.330   8.000  0.2168 -0.1736 -0.2107
   13SAPS  H20R 1678   1.966   4.289   7.987  0.0651 -1.2358  1.6348
   13SAPS  H20S 1679   1.794   4.244   8.012 -1.0650  0.7567 -0.6111
   13SAPS  H20T 1680   1.869   4.400   8.086  2.5195  1.3764 -1.5175
   13SAPS   C33 1681   1.887   4.310   6.545 -0.3333 -0.1576 -0.1741
   13SAPS   H3X 1682   1.942   4.227   6.595  1.7357  0.7254 -0.8981
   13SAPS   H3Y 1683   1.788   4.270   6.513  0.0341 -0.8830 -0.4250
   13SAPS   C34 1684   1.880   4.426   6.647 -0.6387  0.3242  0.0744
   13SAPS   H4X 1685   1.827   4.511   6.598 -1.5405 -0.2069  0.1246
   13SAPS   H4Y 1686   1.987   4.450   6.668  0.2963 -2.3267 -1.1919
   13SAPS   C35 1687   1.824   4.376   6.783 -0.4864 -0.5506 -0.2188
   13SAPS   H5X 1688   1.887   4.293   6.821  1.1864  1.2848  1.2130
   13SAPS   H5Y 1689   1.723   4.332   6.768 -0.0619 -1.1100 -1.5218
   13SAPS   C36 1690   1.814   4.494   6.890 -0.7372 -0.2014 -0.3844
   13SAPS   H6X 1691   1.745   4.571   6.847  1.5487  1.9632 -0.4214
   13SAPS   H6Y 1692   1.904   4.558   6.901 -1.0342  0.0427  0.7439
   13SAPS   C37 1693   1.776   4.433   7.027  0.7522  0.2244 -0.3743
   13SAPS   H7X 1694   1.846   4.357   7.066 -1.5491 -1.3988  0.8226
   13SAPS   H7Y 1695   1.683   4.375   7.012  1.8531 -2.3825  2.0795
   13SAPS   C38 1696   1.737   4.544   7.125  0.0949 -0.3042  0.2812
   13SAPS   H8X 1697   1.647   4.596   7.086  0.3233 -0.9157 -1.1211
   13SAPS   H8Y 1698   1.807   4.629   7.112 -1.5031  0.6869 -3.2648
   13SAPS   C39 1699   1.716   4.497   7.267  0.0675  0.4191  0.5297
   13SAPS   H9X 1700   1.685   4.586   7.326 -0.0873  1.1330 -0.5963
   13SAPS   H9Y 1701   1.816   4.469   7.305  1.0986  0.6493 -1.8727
   13SAPS  C310 1702   1.620   4.379   7.279 -0.6169  0.0206  0.0797
   13SAPS  H10X 1703   1.661   4.295   7.218  2.2727  1.0697  0.4273
   13SAPS  H10Y 1704   1.523   4.417   7.241 -0.5915 -0.5429 -0.5619
   13SAPS  C311 1705   1.595   4.337   7.431 -0.4705  0.0397  0.6652
   13SAPS  H11X 1706   1.689   4.289   7.467 -0.9932 -1.2426  0.3950
   13SAPS  H11Y 1707   1.524   4.251   7.430 -1.2559  0.6721 -1.4489
   13SAPS  C312 1708   1.532   4.449   7.516 -0.3235  0.3294 -0.1837
   13SAPS  H12X 1709   1.456   4.508   7.460  3.1213  2.9890 -2.5007
   13SAPS  H12Y 1710   1.615   4.516   7.546 -1.5414  1.5663  0.5877
   13SAPS  C313 1711   1.478   4.392   7.649 -0.0258 -0.1698  0.1385
   13SAPS  H13X 1712   1.558   4.324   7.686  1.4474  0.8678 -0.9930
   13SAPS  H13Y 1713   1.381   4.341   7.632 -0.0994 -0.5801  1.6541
   13SAPS  C314 1714   1.440   4.497   7.756 -0.0394 -0.0983 -0.3048
   13SAPS  H14X 1715   1.358   4.566   7.728 -0.5537  0.1011  1.5651
   13SAPS  H14Y 1716   1.522   4.571   7.765  1.4354 -1.7456  0.4984
   13SAPS  C315 1717   1.392   4.426   7.888  0.0708 -0.1409 -0.0002
   13SAPS  H15X 1718   1.470   4.355   7.923  0.0100 -0.2709 -0.1287
   13SAPS  H15Y 1719   1.300   4.369   7.863 -0.7451  1.5651 -1.0904
   13SAPS  C316 1720   1.374   4.515   8.002 -0.2188 -0.8542  0.1408
   13SAPS  H16X 1721   1.441   4.602   7.988 -0.6496 -0.0001  2.7431
   13SAPS  H16Y 1722   1.408   4.462   8.093 -1.5553  0.0562  1.2130
   13SAPS  C317 1723   1.231   4.586   8.017 -0.1261 -0.0320  0.3929
   13SAPS  H17X 1724   1.175   4.584   7.921  0.4024  0.8727  0.0473
   13SAPS  H17Y 1725   1.249   4.691   8.049 -2.0689  0.2092  0.8025
   13SAPS  C318 1726   1.160   4.527   8.135 -0.1703 -0.0160 -0.4333
   13SAPS  H18X 1727   1.130   4.423   8.108 -1.8087  0.5191 -0.8507
   13SAPS  H18Y 1728   1.075   4.595   8.161  0.6480  0.3731  1.3360
   13SAPS  H18Z 1729   1.230   4.532   8.221 -2.6798 -0.2831  1.7582
   14SAPS     N 1730   4.942   2.016   6.231  0.3479  0.6675  0.0805
   14SAPS   HN1 1731   4.924   2.035   6.130  0.9316 -0.2217 -0.2012
   14SAPS   HN2 1732   4.973   2.102   6.281 -3.5997  1.5891  1.2854
   14SAPS   HN3 1733   5.020   1.947   6.225  0.0987  0.3310  0.6148
   14SAPS   C12 1734   4.818   1.955   6.298 -0.4126 -0.6743  0.2982
   14SAPS  H12A 1735   4.748   2.032   6.271  1.0887  1.0673  1.2239
   14SAPS   C13 1736   4.783   1.816   6.244  0.0866 -0.2505 -0.5719
   14SAPS  O13A 1737   4.847   1.763   6.145 -0.0779  0.1319 -0.4990
   14SAPS  O13B 1738   4.675   1.769   6.287  0.0963  0.8526  0.3225
   14SAPS   C11 1739   4.827   1.958   6.453  0.5257  0.3155  0.4438
   14SAPS  H11A 1740   4.722   1.947   6.487  0.6311 -0.7617  0.4843
   14SAPS  H11B 1741   4.859   2.062   6.474 -0.3165  0.8678 -0.8710
   14SAPS     P 1742   5.066   1.889   6.544 -0.1120 -0.1429  0.3025
   14SAPS   O13 1743   5.138   1.763   6.514 -0.1822 -0.1330  0.2744
   14SAPS   O14 1744   5.105   2.009   6.471 -0.3068 -0.4903  0.9455
   14SAPS   O12 1745   4.918   1.861   6.515  0.2983  0.1462 -0.1902
   14SAPS   O11 1746   5.068   1.932   6.695  0.3988  0.9331 -0.4762
   14SAPS    C1 1747   4.985   1.869   6.789  0.2901 -0.1533  0.1426
   14SAPS    HA 1748   4.906   1.804   6.746 -0.5765  1.0389 -0.1371
   14SAPS    HB 1749   5.047   1.799   6.849 -2.1437 -0.1883  2.8922
   14SAPS    C2 1750   4.918   1.972   6.880 -0.0159  0.7438 -0.2194
   14SAPS    HS 1751   4.992   2.054   6.891  2.4581 -1.5985  1.9096
   14SAPS   O21 1752   4.892   1.902   7.005  0.1569  0.1397  0.1848
   14SAPS   C21 1753   4.845   1.974   7.100  0.2792  0.2324 -0.2299
   14SAPS   O22 1754   4.841   2.095   7.108 -0.3384  0.2940 -0.2869
   14SAPS   C22 1755   4.805   1.883   7.217  0.6974  0.3443  0.1590
   14SAPS   H2R 1756   4.708   1.831   7.199  1.5326 -2.6743  3.2664
   14SAPS   H2S 1757   4.890   1.813   7.229 -0.0177 -0.8446 -1.2477
   14SAPS    C3 1758   4.775   2.027   6.822  0.1412 -0.2869 -0.2805
   14SAPS    HX 1759   4.801   2.091   6.735  1.3317  0.7081  0.7763
   14SAPS    HY 1760   4.729   2.096   6.896 -0.0736  0.8154 -1.4185
   14SAPS   O31 1761   4.679   1.921   6.780 -0.2640 -0.7408 -0.2712
   14SAPS   C31 1762   4.561   1.927   6.843 -0.5685  0.0805  0.4606
   14SAPS   O32 1763   4.531   1.984   6.947 -0.0291 -0.1653  0.0676
   14SAPS   C32 1764   4.458   1.835   6.772 -0.1782 -0.0790  0.2650
   14SAPS   H2X 1765   4.476   1.836   6.662 -2.5305  0.1710 -0.1674
   14SAPS   H2Y 1766   4.355   1.869   6.798  0.5823  1.0969  1.8777
   14SAPS   C23 1767   4.780   1.973   7.343  0.2549 -0.4657 -0.2038
   14SAPS   H3R 1768   4.703   2.052   7.327  0.5203  0.3560  2.2053
   14SAPS   H3S 1769   4.870   2.032   7.371 -0.5311  2.8938 -3.8312
   14SAPS   C24 1770   4.719   1.894   7.465 -0.4848  0.8762 -0.2649
   14SAPS   H4R 1771   4.789   1.809   7.484  1.5283  2.4580 -0.1891
   14SAPS   H4S 1772   4.626   1.844   7.432  1.4053 -0.9436 -3.3556
   14SAPS   C25 1773   4.690   1.978   7.589  0.6404  0.8149 -0.1053
   14SAPS   H5R 1774   4.781   2.010   7.643  0.6249  0.9505 -0.1581
   14SAPS   C26 1775   4.571   2.010   7.644 -0.5578  0.5545 -0.7841
   14SAPS   H6R 1776   4.566   2.053   7.745 -2.1983  1.2630 -1.1310
   14SAPS   C27 1777   4.434   1.975   7.593 -0.4391 -0.4412 -0.2763
   14SAPS   H7R 1778   4.438   1.880   7.535  1.6892  0.7217 -2.2238
   14SAPS   H7S 1779   4.411   2.058   7.522 -0.2921 -0.2235 -0.0720
   14SAPS   C28 1780   4.321   1.953   7.693  0.0671 -0.3169 -0.3236
   14SAPS   H8R 1781   4.243   2.031   7.683  2.3519  2.5911  2.2912
   14SAPS   C29 1782   4.305   1.868   7.795 -0.7645  0.2118 -1.0946
   14SAPS   H9R 1783   4.210   1.866   7.850 -0.4809  0.4803 -0.5828
   14SAPS  C210 1784   4.401   1.755   7.821 -1.1436  0.3173  0.0944
   14SAPS  H10R 1785   4.500   1.801   7.799  0.0363 -1.3684  1.5921
   14SAPS  H10S 1786   4.397   1.675   7.744  1.7972 -0.0354  0.1988
   14SAPS  C211 1787   4.405   1.686   7.959  0.5360  0.1431 -0.5678
   14SAPS  H11R 1788   4.335   1.601   7.968 -0.4351  0.9279 -0.4800
   14SAPS  C212 1789   4.471   1.735   8.067  0.2588  0.6360  0.6769
   14SAPS  H12R 1790   4.471   1.670   8.156 -1.0327  1.1374  1.0699
   14SAPS  C213 1791   4.567   1.857   8.057  0.5513 -0.3192  0.2420
   14SAPS  H13R 1792   4.515   1.943   8.104  0.0392 -1.4098  1.7537
   14SAPS  H13S 1793   4.587   1.900   7.956  0.1074 -0.4749  0.0839
   14SAPS  C214 1794   4.703   1.847   8.126 -0.3411 -0.7077  0.4430
   14SAPS  H14R 1795   4.786   1.808   8.065  0.3345  0.1364  0.7768
   14SAPS  C215 1796   4.737   1.884   8.250 -0.1706 -0.5946 -0.7430
   14SAPS  H15R 1797   4.839   1.886   8.292 -0.3573 -0.2033 -0.2961
   14SAPS  C216 1798   4.635   1.947   8.347  0.0128 -0.1741  0.1718
   14SAPS  H16R 1799   4.633   1.879   8.435  2.0862 -0.0184  0.3870
   14SAPS  H16S 1800   4.535   1.935   8.299  0.1585  0.0130 -0.1843
   14SAPS  C217 1801   4.656   2.092   8.388  0.0913 -0.2836  0.1926
   14SAPS  H17R 1802   4.694   2.155   8.305 -1.8648  1.6816  0.6967
   14SAPS  H17S 1803   4.740   2.093   8.461  0.2124 -0.4156  0.0565
   14SAPS  C218 1804   4.534   2.164   8.450  0.5448  1.0881 -0.2062
   14SAPS  H18R 1805   4.504   2.098   8.535 -1.1008 -1.6106 -2.6688
   14SAPS  H18S 1806   4.448   2.156   8.380 -0.0373 -2.4372  0.6944
   14SAPS  C219 1807   4.561   2.308   8.486 -0.2400 -0.4192 -0.0144
   14SAPS  H19R 1808   4.481   2.354   8.548 -1.0428  0.6945 -1.7850
   14SAPS  H19S 1809   4.559   2.368   8.392  1.2446 -1.4316 -0.7339
   14SAPS  C220 1810   4.705   2.337   8.543 -0.0022 -0.6593  0.9355
   14SAPS  H20R 1811   4.730   2.270   8.628 -1.4106 -2.2356  0.1559
   14SAPS  H20S 1812   4.724   2.439   8.584  3.3126 -0.6484 -0.3181
   14SAPS  H20T 1813   4.781   2.325   8.464  0.9065  1.8553  1.3044
   14SAPS   C33 1814   4.458   1.692   6.836  0.0458 -0.2404 -0.1004
   14SAPS   H3X 1815   4.555   1.640   6.825  0.3156 -0.4971  2.7765
   14SAPS   H3Y 1816   4.375   1.647   6.777  0.0139  0.6302 -0.7441
   14SAPS   C34 1817   4.412   1.686   6.983  0.0672 -0.9243  0.0204
   14SAPS   H4X 1818   4.322   1.752   6.983 -0.4938 -1.4743  3.6821
   14SAPS   H4Y 1819   4.488   1.730   7.051 -1.0220  2.0317 -0.5248
   14SAPS   C35 1820   4.373   1.549   7.027 -0.0045  0.2506 -0.2087
   14SAPS   H5X 1821   4.460   1.480   7.025  1.1159  1.5921 -0.0075
   14SAPS   H5Y 1822   4.305   1.507   6.950  0.9269 -1.8760  0.0565
   14SAPS   C36 1823   4.306   1.538   7.161  0.5865 -0.0292 -0.1671
   14SAPS   H6X 1824   4.226   1.615   7.157  1.3636  0.9208  1.5484
   14SAPS   H6Y 1825   4.377   1.576   7.238 -1.1496  1.7684  0.6387
   14SAPS   C37 1826   4.235   1.399   7.183  0.3146  0.1755  0.1030
   14SAPS   H7X 1827   4.253   1.337   7.093 -3.0967 -0.7838 -0.0734
   14SAPS   H7Y 1828   4.131   1.423   7.214 -0.3131 -1.7065 -0.3937
   14SAPS   C38 1829   4.301   1.324   7.298 -0.0762  0.1664 -0.5754
   14SAPS   H8X 1830   4.412   1.314   7.288 -0.0153 -0.7924  0.7568
   14SAPS   H8Y 1831   4.259   1.222   7.302 -1.6913  0.8307  1.8230
   14SAPS   C39 1832   4.264   1.389   7.438  0.6248 -0.2384  0.0497
   14SAPS   H9X 1833   4.153   1.385   7.447  0.4089  1.6069 -1.1955
   14SAPS   H9Y 1834   4.286   1.498   7.443  0.1001 -0.0888 -0.7836
   14SAPS  C310 1835   4.333   1.310   7.545 -0.4948  0.2380 -0.0436
   14SAPS  H10X 1836   4.442   1.323   7.525 -0.7434  1.2690 -0.7685
   14SAPS  H10Y 1837   4.301   1.204   7.534 -1.8752  0.7608 -1.3521
   14SAPS  C311 1838   4.299   1.352   7.690 -0.1510 -0.2722  0.5316
   14SAPS  H11X 1839   4.190   1.366   7.710  0.1147  1.7209  0.7763
   14SAPS  H11Y 1840   4.350   1.446   7.717 -0.5849 -0.4560  2.1535
   14SAPS  C312 1841   4.328   1.255   7.809 -1.1913  0.0426  1.4549
   14SAPS  H12X 1842   4.427   1.210   7.787 -1.8184  0.2426 -2.5392
   14SAPS  H12Y 1843   4.258   1.169   7.809 -1.4865  0.2801  1.0703
   14SAPS  C313 1844   4.325   1.301   7.950  0.1330 -0.1409 -0.6956
   14SAPS  H13X 1845   4.218   1.322   7.970 -0.2836 -1.8254 -0.9898
   14SAPS  H13Y 1846   4.383   1.394   7.967 -1.0972  0.2236  1.9781
   14SAPS  C314 1847   4.392   1.204   8.050  0.8986  0.0906  0.5362
   14SAPS  H14X 1848   4.503   1.204   8.046  0.9051  1.7178 -0.9584
   14SAPS  H14Y 1849   4.368   1.097   8.030 -0.9104  0.2660  1.5317
   14SAPS  C315 1850   4.322   1.227   8.185 -0.6323 -0.6121 -0.3540
   14SAPS  H15X 1851   4.212   1.240   8.178 -0.6976 -0.9548 -0.0284
   14SAPS  H15Y 1852   4.357   1.317   8.239  1.0194 -1.8816  0.8018
   14SAPS  C316 1853   4.370   1.112   8.279  0.2671 -0.2589  0.5104
   14SAPS  H16X 1854   4.481   1.105   8.286  0.1855 -0.9171  1.2027
   14SAPS  H16Y 1855   4.335   1.015   8.239 -0.0354 -0.2564  0.7686
   14SAPS  C317 1856   4.312   1.121   8.421  0.6009  0.3187 -0.2005
   14SAPS  H17X 1857   4.201   1.125   8.417  0.4892 -1.9420 -1.4120
   14SAPS  H17Y 1858   4.326   1.226   8.453 -1.6770  0.5890  0.0833
   14SAPS  C318 1859   4.349   1.009   8.529 -0.2268 -0.0769 -0.2568
   14SAPS  H18X 1860   4.293   0.914   8.517  1.1853 -0.8438 -1.1316
   14SAPS  H18Y 1861   4.313   1.044   8.628  0.3332  1.5361 -0.5894
   14SAPS  H18Z 1862   4.459   0.993   8.525 -0.3323 -0.7298 -3.2049
   15SAPS     N 1863   2.866   2.465   6.131 -0.7918  0.3086  0.1966
   15SAPS   HN1 1864   2.857   2.543   6.200  0.8779  0.5306  0.2103
   15SAPS   HN2 1865   2.817   2.493   6.044  0.4172  1.0177 -0.2796
   15SAPS   HN3 1866   2.829   2.373   6.162  1.0923 -0.9138 -0.9191
   15SAPS   C12 1867   3.010   2.451   6.101  0.2793  0.2381  1.0617
   15SAPS  H12A 1868   3.014   2.375   6.025 -2.2921 -1.4538  2.4609
   15SAPS   C13 1869   3.076   2.581   6.042  0.0186  0.3064 -1.0719
   15SAPS  O13A 1870   3.014   2.688   6.027 -0.3545  0.4868 -0.2269
   15SAPS  O13B 1871   3.197   2.562   6.008  0.0523 -0.4800  0.0555
   15SAPS   C11 1872   3.084   2.400   6.231  0.2880 -0.3896  0.0040
   15SAPS  H11A 1873   3.070   2.469   6.317  3.0705 -0.9225  0.9861
   15SAPS  H11B 1874   3.190   2.400   6.200 -0.1805  1.4596 -1.8502
   15SAPS     P 1875   3.060   2.183   6.405 -0.2550 -0.1269 -0.1957
   15SAPS   O13 1876   2.964   2.065   6.403  0.0230  0.1653 -0.1561
   15SAPS   O14 1877   3.206   2.163   6.420 -0.0526  0.5161  0.0816
   15SAPS   O12 1878   3.038   2.263   6.265 -0.0649 -0.0745  0.2082
   15SAPS   O11 1879   3.014   2.283   6.516  0.1030 -0.1838 -0.3190
   15SAPS    C1 1880   3.055   2.261   6.649 -0.1644 -0.1717  0.0372
   15SAPS    HA 1881   3.158   2.223   6.662  0.2058  0.4482 -0.9606
   15SAPS    HB 1882   3.046   2.363   6.693  2.2193  0.1856 -0.1615
   15SAPS    C2 1883   2.957   2.163   6.723 -0.2853  0.0951 -0.1700
   15SAPS    HS 1884   2.954   2.065   6.672  1.7320  0.2058 -0.5644
   15SAPS   O21 1885   2.824   2.224   6.725  0.0380 -0.0991  0.0548
   15SAPS   C21 1886   2.714   2.151   6.709 -0.3244 -0.4193  0.2526
   15SAPS   O22 1887   2.711   2.039   6.660  0.4204 -0.2966  0.5503
   15SAPS   C22 1888   2.604   2.226   6.778 -0.2499  0.3319 -0.4269
   15SAPS   H2R 1889   2.593   2.328   6.734 -0.2858 -0.0333 -1.2803
   15SAPS   H2S 1890   2.503   2.182   6.762 -0.7477  1.1286  0.4033
   15SAPS    C3 1891   3.011   2.134   6.868 -0.0724  0.0400 -0.3675
   15SAPS    HX 1892   2.996   2.230   6.921  0.9637  0.7307 -1.2808
   15SAPS    HY 1893   3.120   2.114   6.867 -0.1327 -0.3204 -1.6456
   15SAPS   O31 1894   2.934   2.038   6.933  0.1725  0.1237 -0.2512
   15SAPS   C31 1895   2.968   1.912   6.895  0.0170  0.8894 -1.0120
   15SAPS   O32 1896   3.034   1.884   6.799 -0.4074  0.2659  0.4481
   15SAPS   C32 1897   2.898   1.814   6.989 -0.6669  0.0359 -0.3034
   15SAPS   H2X 1898   2.979   1.788   7.061 -0.9500 -0.6817 -0.2347
   15SAPS   H2Y 1899   2.876   1.719   6.935  0.3707 -0.6418  0.4157
   15SAPS   C23 1900   2.634   2.234   6.932  0.0620  1.2265 -0.2847
   15SAPS   H3R 1901   2.743   2.251   6.946  0.3570 -1.1686  0.7765
   15SAPS   H3S 1902   2.625   2.134   6.980  1.6847  1.8986  1.5519
   15SAPS   C24 1903   2.544   2.338   6.996 -0.6473  0.1369 -0.3059
   15SAPS   H4R 1904   2.525   2.431   6.938 -2.5271  0.4283  0.6939
   15SAPS   H4S 1905   2.598   2.367   7.089  0.2573 -2.2046 -0.0325
   15SAPS   C25 1906   2.397   2.288   7.015  0.0512 -1.0075 -0.0928
   15SAPS   H5R 1907   2.329   2.293   6.928  0.6015  0.2328 -0.4636
   15SAPS   C26 1908   2.349   2.237   7.127  0.5945  0.2531 -0.0292
   15SAPS   H6R 1909   2.240   2.223   7.130  0.5295  0.9591  1.5307
   15SAPS   C27 1910   2.420   2.241   7.262  0.4699 -0.0575 -0.0939
   15SAPS   H7R 1911   2.530   2.238   7.247  0.6673  1.1563  0.9968
   15SAPS   H7S 1912   2.391   2.163   7.335  1.5823  1.8041  2.5034
   15SAPS   C28 1913   2.373   2.356   7.345 -0.2941 -0.5764  0.5555
   15SAPS   H8R 1914   2.265   2.352   7.366 -0.1310  1.1440  1.9322
   15SAPS   C29 1915   2.444   2.458   7.390 -0.3005 -0.0949 -1.6029
   15SAPS   H9R 1916   2.400   2.532   7.459  0.9084 -1.0144  0.2463
   15SAPS  C210 1917   2.583   2.483   7.361 -0.2064 -0.1541  0.4508
   15SAPS  H10R 1918   2.576   2.541   7.267 -1.0536  0.6191  0.9704
   15SAPS  H10S 1919   2.635   2.389   7.335  1.7262  1.0888 -0.4111
   15SAPS  C211 1920   2.666   2.568   7.459  0.3104 -0.2244 -0.3709
   15SAPS  H11R 1921   2.669   2.523   7.559 -0.2594  0.4306 -0.0420
   15SAPS  C212 1922   2.727   2.686   7.446 -0.3775 -0.1518 -0.1342
   15SAPS  H12R 1923   2.791   2.721   7.528  0.6903 -0.6093 -0.7589
   15SAPS  C213 1924   2.731   2.771   7.323 -0.0088  0.4886 -0.0443
   15SAPS  H13R 1925   2.690   2.873   7.341  1.3222  1.2396 -1.0955
   15SAPS  H13S 1926   2.663   2.731   7.246 -1.0992  0.7015  0.7802
   15SAPS  C214 1927   2.878   2.775   7.276  1.5925 -0.6371  0.4496
   15SAPS  H14R 1928   2.925   2.874   7.292 -0.1181  0.2732  0.1202
   15SAPS  C215 1929   2.936   2.688   7.192  0.0449  0.2140 -0.4218
   15SAPS  H15R 1930   3.042   2.703   7.165  0.3683 -1.3702 -0.1493
   15SAPS  C216 1931   2.879   2.571   7.118  0.6508  0.2237 -0.3942
   15SAPS  H16R 1932   2.866   2.603   7.012 -2.3939  1.5052  0.2684
   15SAPS  H16S 1933   2.771   2.562   7.140  0.5865 -0.5402 -0.9758
   15SAPS  C217 1934   2.948   2.434   7.133  1.4727 -0.2770 -0.1836
   15SAPS  H17R 1935   3.039   2.436   7.070  0.5469 -2.1442 -1.7138
   15SAPS  H17S 1936   2.889   2.351   7.088 -1.7832 -0.8652  4.4589
   15SAPS  C218 1937   2.998   2.405   7.277  0.2374  0.2420  0.7545
   15SAPS  H18R 1938   2.916   2.401   7.351 -1.6341 -1.9376 -1.2828
   15SAPS  H18S 1939   3.080   2.476   7.304  1.2755 -0.0162 -1.5333
   15SAPS  C219 1940   3.065   2.267   7.269  0.1133  0.3137 -0.1941
   15SAPS  H19R 1941   3.011   2.199   7.200 -0.1296  1.5895 -1.2864
   15SAPS  H19S 1942   3.060   2.235   7.376  0.3547  0.7006 -0.0656
   15SAPS  C220 1943   3.206   2.264   7.223  0.2472  0.4626  0.2317
   15SAPS  H20R 1944   3.220   2.324   7.131  2.4690  0.2561  0.3863
   15SAPS  H20S 1945   3.247   2.162   7.206 -0.5386  0.0569  0.6711
   15SAPS  H20T 1946   3.268   2.312   7.303  1.9461  0.5362 -1.0777
   15SAPS   C33 1947   2.771   1.870   7.066  0.2664  0.3408  0.1002
   15SAPS   H3X 1948   2.705   1.787   7.098 -0.8338  2.1670  2.8972
   15SAPS   H3Y 1949   2.714   1.942   7.004 -0.3396 -1.9896 -2.2577
   15SAPS   C34 1950   2.799   1.949   7.196 -0.4162  0.6084  0.0472
   15SAPS   H4X 1951   2.714   2.015   7.224  0.8118  1.9342  0.7247
   15SAPS   H4Y 1952   2.891   2.008   7.177 -0.7196  1.8530  2.1479
   15SAPS   C35 1953   2.831   1.860   7.316  0.7459  0.6663  0.2876
   15SAPS   H5X 1954   2.920   1.802   7.284 -0.8795 -2.9998  1.8399
   15SAPS   H5Y 1955   2.745   1.791   7.330  1.0727  0.4843  1.4870
   15SAPS   C36 1956   2.864   1.939   7.441 -0.3868  0.0193 -0.0598
   15SAPS   H6X 1957   2.943   2.014   7.416 -0.4949  0.4792  0.9512
   15SAPS   H6Y 1958   2.896   1.870   7.521  1.4182 -0.0709 -0.8042
   15SAPS   C37 1959   2.747   2.034   7.488 -0.0099  0.2936  0.6301
   15SAPS   H7X 1960   2.665   1.964   7.514  0.9130 -1.4337 -0.8468
   15SAPS   H7Y 1961   2.705   2.110   7.418 -2.5675  0.1705  1.9408
   15SAPS   C38 1962   2.775   2.101   7.621  0.4390  0.1638 -0.4625
   15SAPS   H8X 1963   2.819   2.032   7.696  0.7332  0.1713 -0.6301
   15SAPS   H8Y 1964   2.683   2.153   7.655  1.1799  0.6362  0.9039
   15SAPS   C39 1965   2.880   2.217   7.610 -0.0268  0.6812 -0.0760
   15SAPS   H9X 1966   2.855   2.288   7.529  0.2467 -0.1914 -0.9520
   15SAPS   H9Y 1967   2.985   2.191   7.583  0.1741  1.2398  0.1618
   15SAPS  C310 1968   2.887   2.299   7.742 -0.2994  0.0992  0.7563
   15SAPS  H10X 1969   2.962   2.246   7.804  0.4857  1.9901  1.4983
   15SAPS  H10Y 1970   2.788   2.297   7.793  0.6557 -0.3186  2.6933
   15SAPS  C311 1971   2.955   2.443   7.721 -0.1923  0.3949  0.4034
   15SAPS  H11X 1972   2.886   2.510   7.667 -1.5811  0.1687  1.8068
   15SAPS  H11Y 1973   3.048   2.415   7.667 -0.4006  0.2428  0.1201
   15SAPS  C312 1974   2.985   2.508   7.853  0.2615 -0.3535  0.4038
   15SAPS  H12X 1975   3.047   2.448   7.922 -0.7127  1.1307  2.6917
   15SAPS  H12Y 1976   2.884   2.525   7.897 -1.0324  2.2051 -3.0897
   15SAPS  C313 1977   3.058   2.648   7.842 -0.9888  0.0373 -0.1806
   15SAPS  H13X 1978   3.055   2.676   7.950  1.9553 -3.4346  0.9955
   15SAPS  H13Y 1979   2.999   2.720   7.780 -0.2057 -0.0412 -1.0362
   15SAPS  C314 1980   3.210   2.656   7.797 -0.4410 -0.0290  0.4217
   15SAPS  H14X 1981   3.218   2.677   7.688  1.2046 -2.8618 -0.0806
   15SAPS  H14Y 1982   3.249   2.554   7.814 -0.5618 -0.2007 -0.2946
   15SAPS  C315 1983   3.305   2.756   7.858  0.2681 -0.0885  0.1054
   15SAPS  H15X 1984   3.276   2.751   7.965 -0.8358 -0.9312 -0.2168
   15SAPS  H15Y 1985   3.301   2.854   7.807 -0.8316 -1.2676 -2.2152
   15SAPS  C316 1986   3.449   2.700   7.866  0.3853  0.3578  0.6902
   15SAPS  H16X 1987   3.481   2.702   7.760 -3.4081  1.1018 -0.5921
   15SAPS  H16Y 1988   3.446   2.592   7.892  0.8232  0.3782  0.8294
   15SAPS  C317 1989   3.533   2.786   7.954 -0.9770 -0.3845 -0.0982
   15SAPS  H17X 1990   3.489   2.805   8.055  1.3080  1.3651  0.6556
   15SAPS  H17Y 1991   3.535   2.884   7.903  1.2774  0.0151  0.6500
   15SAPS  C318 1992   3.674   2.718   7.967  0.0797 -0.1407 -0.1145
   15SAPS  H18X 1993   3.721   2.697   7.868 -1.1284  0.4336 -0.8287
   15SAPS  H18Y 1994   3.657   2.625   8.025  0.4641 -1.7886 -2.5202
   15SAPS  H18Z 1995   3.742   2.778   8.030  1.1890  0.1597 -1.5420
   16SAPS     N 1996   5.841   3.886   5.862 -0.2520 -0.8631  0.5837
   16SAPS   HN1 1997   5.889   3.802   5.901  3.3249  0.4102 -0.6323
   16SAPS   HN2 1998   5.775   3.864   5.785  1.3200 -1.2873 -0.6922
   16SAPS   HN3 1999   5.923   3.936   5.822  0.8254 -3.0476 -0.1277
   16SAPS   C12 2000   5.769   3.957   5.969  0.2301 -0.4756  0.5578
   16SAPS  H12A 2001   5.839   3.959   6.051  0.5827  1.0895  0.2519
   16SAPS   C13 2002   5.723   4.096   5.936  0.4402 -0.3210 -0.6540
   16SAPS  O13A 2003   5.782   4.157   5.847  0.8195 -0.5743 -0.3147
   16SAPS  O13B 2004   5.648   4.155   6.024  0.4234  0.0049  0.2513
   16SAPS   C11 2005   5.643   3.875   6.009  0.9248  0.6702  0.4405
   16SAPS  H11A 2006   5.568   3.871   5.927  2.0556 -0.2280 -0.5796
   16SAPS  H11B 2007   5.602   3.923   6.101  0.4361  0.6864  0.2186
   16SAPS     P 2008   5.618   3.651   6.137 -0.0540 -0.0925 -0.2474
   16SAPS   O13 2009   5.472   3.687   6.149  0.1793  0.0817  0.2251
   16SAPS   O14 2010   5.650   3.508   6.101  0.1450 -0.0214 -0.0069
   16SAPS   O12 2011   5.692   3.747   6.041  0.0025 -0.2265  0.0389
   16SAPS   O11 2012   5.683   3.683   6.280 -0.1382  0.4465  0.6155
   16SAPS    C1 2013   5.795   3.767   6.294  0.9008 -0.0213  0.4281
   16SAPS    HA 2014   5.863   3.731   6.213  0.7133 -1.4541  0.8827
   16SAPS    HB 2015   5.772   3.872   6.268  0.4362 -0.2687 -0.2209
   16SAPS    C2 2016   5.868   3.759   6.428  0.4531  0.5111 -0.5593
   16SAPS    HS 2017   5.814   3.826   6.499 -1.2795 -0.6362 -0.7535
   16SAPS   O21 2018   6.002   3.803   6.402 -0.0393  0.4848  0.5968
   16SAPS   C21 2019   6.028   3.930   6.430  0.9874  0.0685  0.0785
   16SAPS   O22 2020   5.938   4.012   6.456 -0.1035  0.3345 -0.0005
   16SAPS   C22 2021   6.176   3.956   6.437  0.0071 -0.3457 -0.1374
   16SAPS   H2R 2022   6.226   3.885   6.368  1.4861  0.4658  0.0457
   16SAPS   H2S 2023   6.204   4.060   6.409  3.0517 -1.1426 -0.4466
   16SAPS    C3 2024   5.889   3.622   6.494 -0.1813 -0.6450  0.0593
   16SAPS    HX 2025   5.920   3.554   6.412 -1.0198  1.2562 -1.9485
   16SAPS    HY 2026   5.788   3.595   6.532 -0.9981  0.7723 -0.9855
   16SAPS   O31 2027   5.981   3.631   6.599 -0.2632 -0.1152 -0.0547
   16SAPS   C31 2028   6.018   3.509   6.634 -0.3011  1.0653 -0.0293
   16SAPS   O32 2029   5.979   3.400   6.592 -0.9961 -0.3053 -0.1890
   16SAPS   C32 2030   6.122   3.522   6.744  0.0932 -0.3427  0.4873
   16SAPS   H2X 2031   6.219   3.560   6.706 -0.0037 -0.4313  0.1452
   16SAPS   H2Y 2032   6.145   3.424   6.789  0.6767 -1.4202 -1.9803
   16SAPS   C23 2033   6.242   3.927   6.579 -0.4057  0.2370 -0.4698
   16SAPS   H3R 2034   6.353   3.926   6.568 -0.4882  0.8930 -1.4804
   16SAPS   H3S 2035   6.212   3.824   6.608  1.9742 -0.3828  0.0380
   16SAPS   C24 2036   6.199   4.029   6.681  0.2060 -0.0329  0.7295
   16SAPS   H4R 2037   6.205   3.990   6.785 -2.2405  3.4074  2.3474
   16SAPS   H4S 2038   6.091   4.046   6.660  1.0163  1.4134 -3.0839
   16SAPS   C25 2039   6.270   4.165   6.681 -0.4397 -0.2932 -0.0544
   16SAPS   H5R 2040   6.298   4.199   6.580 -0.0062 -0.4398  0.0128
   16SAPS   C26 2041   6.308   4.235   6.789 -0.0282 -0.8849  0.0652
   16SAPS   H6R 2042   6.338   4.338   6.767  1.1172 -1.0392  0.8729
   16SAPS   C27 2043   6.271   4.219   6.933  0.1726  0.1830 -0.1844
   16SAPS   H7R 2044   6.365   4.221   6.991 -1.4147 -0.0304  2.6008
   16SAPS   H7S 2045   6.235   4.114   6.943 -0.9451  0.6703  1.2650
   16SAPS   C28 2046   6.163   4.305   6.999 -0.0938 -0.3316 -0.4252
   16SAPS   H8R 2047   6.071   4.337   6.948  0.8307  1.8375 -0.8581
   16SAPS   C29 2048   6.161   4.342   7.132  0.0446 -0.4527  0.0472
   16SAPS   H9R 2049   6.073   4.405   7.153  1.7909  2.4799 -0.8802
   16SAPS  C210 2050   6.265   4.327   7.237  0.6167 -0.1669  0.1908
   16SAPS  H10R 2051   6.280   4.424   7.289 -2.6842  0.4417  0.2470
   16SAPS  H10S 2052   6.360   4.305   7.185  1.6233 -1.8476  2.5899
   16SAPS  C211 2053   6.250   4.215   7.342  0.1194 -1.2716  0.0086
   16SAPS  H11R 2054   6.296   4.120   7.309 -0.4861 -1.0824 -1.4568
   16SAPS  C212 2055   6.215   4.229   7.470  0.8057  0.2395 -0.3958
   16SAPS  H12R 2056   6.196   4.139   7.531 -3.3283  1.4647  0.4177
   16SAPS  C213 2057   6.169   4.359   7.529  0.3478  0.3631 -0.5916
   16SAPS  H13R 2058   6.097   4.416   7.468  1.2854  1.4375 -0.7238
   16SAPS  H13S 2059   6.259   4.421   7.547 -0.9224  2.1550 -0.1302
   16SAPS  C214 2060   6.106   4.333   7.668  0.1614 -0.2981  0.3522
   16SAPS  H14R 2061   6.059   4.235   7.687  2.9683 -1.5950  1.3140
   16SAPS  C215 2062   6.073   4.435   7.757 -0.4220 -0.7988  0.1667
   16SAPS  H15R 2063   6.030   4.403   7.853  1.4949 -1.9758  0.6857
   16SAPS  C216 2064   6.124   4.579   7.747  0.0317  0.2248 -0.2158
   16SAPS  H16R 2065   6.051   4.663   7.748 -1.8522 -1.3418 -0.3158
   16SAPS  H16S 2066   6.184   4.597   7.656 -1.4708 -1.0405 -1.5046
   16SAPS  C217 2067   6.232   4.611   7.857  0.6800  0.2921  0.2849
   16SAPS  H17R 2068   6.258   4.719   7.850  1.6430  0.0802  0.5300
   16SAPS  H17S 2069   6.320   4.545   7.846 -1.6646 -3.0852  0.0869
   16SAPS  C218 2070   6.175   4.601   8.004 -0.3677 -0.2872  0.5285
   16SAPS  H18R 2071   6.250   4.625   8.083 -1.1997  0.6132  1.0612
   16SAPS  H18S 2072   6.147   4.496   8.025  1.3489 -0.9180 -0.1075
   16SAPS  C219 2073   6.053   4.692   8.021 -0.0641  0.5321  0.4309
   16SAPS  H19R 2074   6.017   4.685   8.126  1.7294 -1.6911  0.9876
   16SAPS  H19S 2075   5.967   4.671   7.954  0.7678  1.2655 -0.9168
   16SAPS  C220 2076   6.085   4.845   8.002  0.0708 -0.3279 -0.4016
   16SAPS  H20R 2077   6.167   4.877   8.070  0.3795 -2.0891  0.0955
   16SAPS  H20S 2078   5.994   4.901   8.032 -0.3534 -0.9716 -0.4642
   16SAPS  H20T 2079   6.119   4.862   7.897 -4.0254  0.8709 -1.6996
   16SAPS   C33 2080   6.083   3.625   6.850  0.1242 -0.2603 -1.0501
   16SAPS   H3X 2081   6.000   3.588   6.914  1.0309  1.5442  1.3415
   16SAPS   H3Y 2082   6.040   3.712   6.796 -0.3791 -0.8690 -1.6510
   16SAPS   C34 2083   6.199   3.677   6.947  0.3763  0.4462  0.6469
   16SAPS   H4X 2084   6.281   3.704   6.878 -0.2729 -1.0750 -0.8014
   16SAPS   H4Y 2085   6.224   3.586   7.007 -1.4926 -2.6490 -2.8846
   16SAPS   C35 2086   6.146   3.792   7.039 -0.3539 -0.3626  0.2340
   16SAPS   H5X 2087   6.073   3.851   6.979  1.6922  1.6313 -0.4399
   16SAPS   H5Y 2088   6.228   3.862   7.064 -1.4994  1.5916 -1.1117
   16SAPS   C36 2089   6.078   3.758   7.171  0.0073  1.1445 -0.1281
   16SAPS   H6X 2090   6.043   3.653   7.159 -0.2291  1.1221  0.7396
   16SAPS   H6Y 2091   5.986   3.815   7.194 -0.1495  0.0211  2.3393
   16SAPS   C37 2092   6.168   3.770   7.296  0.2035  0.2069  0.2264
   16SAPS   H7X 2093   6.239   3.854   7.279  1.9383 -1.1383  0.5790
   16SAPS   H7Y 2094   6.226   3.675   7.296  0.5237  0.3819  1.6552
   16SAPS   C38 2095   6.102   3.794   7.432  0.5501  0.0037 -0.6459
   16SAPS   H8X 2096   6.011   3.731   7.421 -0.6545  1.3926  0.9589
   16SAPS   H8Y 2097   6.065   3.899   7.432  0.2984 -0.0373  2.0578
   16SAPS   C39 2098   6.199   3.766   7.548 -0.6602  1.2225  0.1186
   16SAPS   H9X 2099   6.302   3.796   7.518 -0.9017 -0.7797 -3.2011
   16SAPS   H9Y 2100   6.208   3.656   7.553  1.3455  1.3744  0.7778
   16SAPS  C310 2101   6.144   3.841   7.668  0.2116  0.4606  0.2992
   16SAPS  H10X 2102   6.035   3.820   7.675  0.1674  0.4815 -0.2960
   16SAPS  H10Y 2103   6.150   3.951   7.655  1.3293  0.2658 -1.0485
   16SAPS  C311 2104   6.212   3.808   7.801  0.1276  0.2015  0.4212
   16SAPS  H11X 2105   6.313   3.854   7.803 -0.2137  0.9713  1.7520
   16SAPS  H11Y 2106   6.227   3.699   7.789  1.8243  0.5108 -0.7154
   16SAPS  C312 2107   6.129   3.838   7.921  0.3644  0.0346 -0.6556
   16SAPS  H12X 2108   6.022   3.852   7.896  0.2376  2.1439  0.7963
   16SAPS  H12Y 2109   6.157   3.938   7.960 -1.3605  0.2577  0.1183
   16SAPS  C313 2110   6.137   3.736   8.026  0.2200  0.3667  0.0877
   16SAPS  H13X 2111   6.117   3.636   7.983 -3.6678  0.8476  0.4472
   16SAPS  H13Y 2112   6.050   3.750   8.093 -0.4612 -1.8108 -0.2868
   16SAPS  C314 2113   6.271   3.733   8.103 -0.2959  0.0238 -0.7284
   16SAPS  H14X 2114   6.278   3.822   8.170 -2.0207 -0.0839 -0.3769
   16SAPS  H14Y 2115   6.350   3.738   8.024  0.2678  0.8568 -0.1397
   16SAPS  C315 2116   6.296   3.602   8.170 -0.8748 -0.7111  0.3283
   16SAPS  H15X 2117   6.406   3.599   8.187 -0.8968  0.4165  0.7636
   16SAPS  H15Y 2118   6.261   3.519   8.105 -2.5210 -0.2724  0.6117
   16SAPS  C316 2119   6.223   3.571   8.307 -0.3539 -0.2686 -0.0393
   16SAPS  H16X 2120   6.113   3.578   8.292 -0.5235 -1.4040  0.5756
   16SAPS  H16Y 2121   6.244   3.658   8.373 -2.2967 -0.8133  1.4068
   16SAPS  C317 2122   6.264   3.435   8.366 -0.0742 -0.1761  0.9952
   16SAPS  H17X 2123   6.375   3.440   8.376  0.3447 -1.4295 -2.1778
   16SAPS  H17Y 2124   6.232   3.362   8.290 -1.1911  1.3324 -0.0471
   16SAPS  C318 2125   6.203   3.405   8.496  0.0705 -0.0866  0.0054
   16SAPS  H18X 2126   6.256   3.322   8.547  0.8799  1.0556  1.0905
   16SAPS  H18Y 2127   6.094   3.384   8.486  0.2840 -1.1360 -0.1811
   16SAPS  H18Z 2128   6.217   3.498   8.555  1.2065 -0.3415  0.1615
   17SAPC     N 2129   3.798   4.221  10.519 -0.1587  0.2521  0.7967
   17SAPC   C12 2130   3.892   4.234  10.630  0.7362  0.4474 -0.1144
   17SAPC  H12A 2131   3.914   4.132  10.659  1.2018  0.7456  0.6139
   17SAPC  H12B 2132   3.840   4.272  10.717 -0.2247 -0.0321 -0.4631
   17SAPC   C13 2133   3.873   4.171  10.392  0.0522 -0.0196 -0.5015
   17SAPC  H13A 2134   3.896   4.066  10.402 -0.6578 -0.0715  0.8182
   17SAPC  H13B 2135   3.797   4.168  10.316 -0.9819  0.2553  0.4925
   17SAPC  H13C 2136   3.954   4.240  10.373  0.1346  0.1750  0.4712
   17SAPC   C14 2137   3.691   4.122  10.559 -0.3790 -0.5544  0.2168
   17SAPC  H14A 2138   3.643   4.143  10.653  2.1228 -2.1699  1.9955
   17SAPC  H14B 2139   3.610   4.124  10.487  0.0172  1.8228 -0.2461
   17SAPC  H14C 2140   3.737   4.030  10.592  0.5272 -0.3569 -0.4698
   17SAPC   C15 2141   3.728   4.354  10.480  0.6856  0.5512 -0.0592
   17SAPC  H15A 2142   3.703   4.347  10.375  1.0793 -0.9187 -0.0751
   17SAPC  H15B 2143   3.646   4.361  10.550  0.5287  1.4103 -0.3211
   17SAPC  H15C 2144   3.790   4.441  10.496  2.1928 -0.5114  0.1355
   17SAPC   C11 2145   4.021   4.320  10.604  0.4833 -0.1942  0.4539
   17SAPC  H11A 2146   4.074   4.283  10.514  1.9552  2.4416  0.1227
   17SAPC  H11B 2147   4.078   4.309  10.699  0.6816  0.8755  0.4725
   17SAPC     P 2148   4.101   4.567  10.598  0.1168 -0.4714 -0.1499
   17SAPC   O13 2149   4.083   4.650  10.717  0.6581 -0.3520 -0.5653
   17SAPC   O14 2150   4.237   4.508  10.574  0.1773  0.2463 -0.0033
   17SAPC   O12 2151   3.988   4.463  10.588 -0.6942 -0.2666 -0.5613
   17SAPC   O11 2152   4.068   4.658  10.466  0.0057  0.6095 -0.7829
   17SAPC    C1 2153   4.101   4.612  10.335 -0.1825 -0.2419 -0.0260
   17SAPC    HA 2154   4.134   4.700  10.275 -1.4772 -0.7068 -1.4761
   17SAPC    HB 2155   4.189   4.544  10.344  0.0064 -0.4714 -2.7663
   17SAPC    C2 2156   3.978   4.560  10.261 -0.2440  0.0532  0.7332
   17SAPC    HS 2157   3.928   4.480  10.320 -0.9109 -0.6234 -0.6907
   17SAPC   O21 2158   4.028   4.509  10.134  0.5602  0.2999 -0.9412
   17SAPC   C21 2159   4.065   4.382  10.124 -0.5293 -0.1851 -0.5986
   17SAPC   O22 2160   4.051   4.304  10.214  1.0755 -0.1788 -0.2812
   17SAPC   C22 2161   4.090   4.363   9.971  0.2494 -0.1627 -0.0268
   17SAPC   H2R 2162   3.992   4.338   9.927  0.4352  4.0878 -3.5313
   17SAPC   H2S 2163   4.131   4.455   9.925 -2.1603  1.7569  1.4583
   17SAPC    C3 2164   3.888   4.679  10.220  0.7405 -0.5392  0.1624
   17SAPC    HX 2165   3.936   4.754  10.152 -0.7647 -0.2128 -0.5878
   17SAPC    HY 2166   3.861   4.736  10.311  0.7346  0.0077 -0.1710
   17SAPC   O31 2167   3.765   4.630  10.163  0.6571  0.4289  0.1337
   17SAPC   C31 2168   3.744   4.662  10.036  0.5452 -0.5537 -0.2156
   17SAPC   O32 2169   3.820   4.732   9.967  0.3010  0.5978 -0.2668
   17SAPC   C32 2170   3.618   4.600   9.984 -0.2280 -0.4947 -0.1833
   17SAPC   H2X 2171   3.543   4.667  10.032 -0.1032 -1.9708  2.2529
   17SAPC   H2Y 2172   3.616   4.498  10.029  2.2235 -1.0251 -1.0788
   17SAPC   C23 2173   4.194   4.246   9.947 -0.4790  0.4809 -0.0433
   17SAPC   H3R 2174   4.151   4.151   9.986 -0.1541  0.1360 -0.5218
   17SAPC   H3S 2175   4.279   4.267  10.016  1.2744 -1.6637 -1.4087
   17SAPC   C24 2176   4.234   4.220   9.799 -0.1243  0.9783  0.3840
   17SAPC   H4R 2177   4.283   4.318   9.777 -1.8989  2.4408  2.4140
   17SAPC   H4S 2178   4.137   4.212   9.746 -1.3045  1.4003  2.3690
   17SAPC   C25 2179   4.345   4.113   9.776 -0.0142  0.4486  0.0249
   17SAPC   H5R 2180   4.442   4.136   9.822  0.4652 -0.9818 -0.2177
   17SAPC   C26 2181   4.337   4.001   9.701  0.0391 -0.6947 -0.1974
   17SAPC   H6R 2182   4.427   3.939   9.683 -0.2133 -1.8886  2.2361
   17SAPC   C27 2183   4.204   3.964   9.629 -0.1250  0.0166  0.3626
   17SAPC   H7R 2184   4.199   4.034   9.543 -1.3610 -1.2438 -0.6216
   17SAPC   H7S 2185   4.117   3.986   9.694  1.7941  0.1864  3.0708
   17SAPC   C28 2186   4.209   3.820   9.589  0.1608 -0.5180  0.2989
   17SAPC   H8R 2187   4.226   3.754   9.676  1.7808  0.9933  1.2066
   17SAPC   C29 2188   4.210   3.784   9.462 -0.4245  0.1341  0.5497
   17SAPC   H9R 2189   4.214   3.677   9.436  1.5711  0.3356 -0.1713
   17SAPC  C210 2190   4.208   3.874   9.344 -0.2988 -0.3504  0.0094
   17SAPC  H10R 2191   4.292   3.945   9.355 -1.1534  0.6539  0.1913
   17SAPC  H10S 2192   4.114   3.934   9.343  0.5170  1.0000 -2.1316
   17SAPC  C211 2193   4.239   3.807   9.214  0.4852  0.6004  0.0149
   17SAPC  H11R 2194   4.215   3.699   9.215 -0.2449  0.7528 -0.1902
   17SAPC  C212 2195   4.233   3.861   9.091 -0.8725  0.4104 -0.0717
   17SAPC  H12R 2196   4.275   3.809   9.004 -0.2199 -1.4463  1.3104
   17SAPC  C213 2197   4.204   4.010   9.059 -0.3141 -0.0957 -0.3136
   17SAPC  H13R 2198   4.293   4.065   9.022 -1.8953  2.2800 -0.8545
   17SAPC  H13S 2199   4.181   4.068   9.151  0.4206  0.4503 -0.4613
   17SAPC  C214 2200   4.101   4.032   8.958 -0.4196  0.7420  0.5109
   17SAPC  H14R 2201   4.003   4.007   9.001 -1.2007  2.4890 -0.1373
   17SAPC  C215 2202   4.107   4.070   8.828 -0.5927  0.3518  0.7384
   17SAPC  H15R 2203   4.015   4.096   8.773 -0.2522  1.7086  0.7735
   17SAPC  C216 2204   4.235   4.100   8.747  0.1498  0.0401  0.3119
   17SAPC  H16R 2205   4.332   4.083   8.799 -0.3374  0.3910  1.3526
   17SAPC  H16S 2206   4.242   4.208   8.725 -0.7102  0.2919  1.2225
   17SAPC  C217 2207   4.234   4.028   8.614  0.0946  0.8759 -0.5378
   17SAPC  H17R 2208   4.143   4.042   8.551 -0.4575 -1.1406 -0.2612
   17SAPC  H17S 2209   4.253   3.922   8.640 -1.4432  0.5923 -0.4532
   17SAPC  C218 2210   4.347   4.088   8.519  0.3884 -0.4869  0.2408
   17SAPC  H18R 2211   4.445   4.076   8.569  0.7084  0.9463 -0.0013
   17SAPC  H18S 2212   4.332   4.198   8.520 -2.3395 -0.7974 -0.0402
   17SAPC  C219 2213   4.366   4.028   8.382 -0.3539  0.0238  1.1166
   17SAPC  H19R 2214   4.269   4.007   8.332  0.4579 -1.6192  0.1670
   17SAPC  H19S 2215   4.409   3.925   8.384 -1.4430 -0.4956 -0.3346
   17SAPC  C220 2216   4.448   4.128   8.302 -0.1828 -0.4716  0.5035
   17SAPC  H20R 2217   4.545   4.135   8.355 -0.4581  2.2336  0.7803
   17SAPC  H20S 2218   4.412   4.233   8.292 -0.8093 -0.7670 -0.5371
   17SAPC  H20T 2219   4.471   4.086   8.201  1.0283  0.4056  0.3979
   17SAPC   C33 2220   3.609   4.611   9.827 -0.9576  0.1646 -0.4043
   17SAPC   H3X 2221   3.686   4.549   9.777 -0.5905 -0.0978  0.4580
   17SAPC   H3Y 2222   3.610   4.720   9.806 -3.2736  0.0288 -1.6132
   17SAPC   C34 2223   3.480   4.543   9.781 -0.5994  0.9239  0.1137
   17SAPC   H4X 2224   3.407   4.528   9.863 -0.9135 -0.9186 -0.4589
   17SAPC   H4Y 2225   3.499   4.442   9.739 -2.1214  0.2817  0.8880
   17SAPC   C35 2226   3.415   4.616   9.662 -0.1413 -0.4639  0.0320
   17SAPC   H5X 2227   3.375   4.711   9.704 -1.5448 -1.0031 -0.0441
   17SAPC   H5Y 2228   3.338   4.545   9.626 -0.6974 -1.6867  3.3051
   17SAPC   C36 2229   3.507   4.658   9.551 -0.6415 -0.2027  0.0996
   17SAPC   H6X 2230   3.605   4.701   9.581  0.3318 -2.3229  0.1606
   17SAPC   H6Y 2231   3.459   4.745   9.502  1.3850  0.6765 -0.4042
   17SAPC   C37 2232   3.555   4.551   9.449  0.1559 -0.4394  0.0930
   17SAPC   H7X 2233   3.607   4.465   9.497  1.9596 -1.0323 -2.6579
   17SAPC   H7Y 2234   3.629   4.593   9.378 -0.6536 -0.7539 -0.9613
   17SAPC   C38 2235   3.445   4.490   9.357 -0.8323 -0.4613 -0.4540
   17SAPC   H8X 2236   3.374   4.436   9.424  1.9478 -0.2190  2.9477
   17SAPC   H8Y 2237   3.486   4.418   9.282 -0.7116 -1.6123  0.6739
   17SAPC   C39 2238   3.381   4.597   9.267  0.5023  0.0566 -0.5063
   17SAPC   H9X 2239   3.302   4.655   9.319  1.1007  0.5723 -0.1608
   17SAPC   H9Y 2240   3.327   4.547   9.184  1.6023  1.1255 -1.9339
   17SAPC  C310 2241   3.478   4.699   9.201 -0.0199 -0.0936 -0.1469
   17SAPC  H10X 2242   3.549   4.638   9.141 -0.2473  0.5326 -1.0611
   17SAPC  H10Y 2243   3.531   4.757   9.280  1.8443 -0.7402 -0.8648
   17SAPC  C311 2244   3.419   4.801   9.105  0.4930  1.1709 -0.3243
   17SAPC  H11X 2245   3.497   4.857   9.048  1.4190 -0.2496 -0.5021
   17SAPC  H11Y 2246   3.375   4.880   9.170  1.5252  2.9831 -1.7284
   17SAPC  C312 2247   3.302   4.754   9.004  0.3923 -0.3812 -0.2588
   17SAPC  H12X 2248   3.257   4.840   8.952 -2.1806 -0.5131  1.5655
   17SAPC  H12Y 2249   3.221   4.710   9.066  0.8301 -1.6799 -0.5724
   17SAPC  C313 2250   3.360   4.637   8.921 -0.4707 -1.1214 -0.1516
   17SAPC  H13X 2251   3.406   4.561   8.988  0.9247 -0.1405  0.0476
   17SAPC  H13Y 2252   3.442   4.674   8.856 -0.5020  0.5171  0.6789
   17SAPC  C314 2253   3.253   4.574   8.827 -0.0439 -0.4891 -0.7857
   17SAPC  H14X 2254   3.151   4.603   8.858  1.5282  1.4062  3.3946
   17SAPC  H14Y 2255   3.273   4.465   8.819  0.4041 -0.5293  0.5833
   17SAPC  C315 2256   3.262   4.635   8.687 -0.4546  0.2296  0.4205
   17SAPC  H15X 2257   3.365   4.612   8.651 -1.2729 -1.6093 -0.8955
   17SAPC  H15Y 2258   3.255   4.746   8.692  0.8697  0.2890  1.2600
   17SAPC  C316 2259   3.160   4.573   8.591 -0.2613 -0.0586  0.4546
   17SAPC  H16X 2260   3.136   4.651   8.516  2.4521  0.4548 -0.0026
   17SAPC  H16Y 2261   3.067   4.535   8.639 -0.7425  0.5147 -0.0129
   17SAPC  C317 2262   3.225   4.452   8.519 -0.2532 -0.0047  0.2727
   17SAPC  H17X 2263   3.237   4.373   8.596  0.3669 -0.2492 -0.0698
   17SAPC  H17Y 2264   3.318   4.491   8.473 -1.2398  3.3535  0.8632
   17SAPC  C318 2265   3.147   4.384   8.414 -0.7310  0.6257 -0.5581
   17SAPC  H18X 2266   3.200   4.308   8.352 -2.4213 -0.7568 -0.3681
   17SAPC  H18Y 2267   3.053   4.335   8.444  0.5582 -3.0176 -1.8184
   17SAPC  H18Z 2268   3.118   4.467   8.346 -2.1948 -0.1285 -0.8890
   18SAPC     N 2269   4.665   4.158  10.548  0.1723  0.4447 -0.3667
   18SAPC   C12 2270   4.644   4.306  10.532  0.3463  0.2116  0.3293
   18SAPC  H12A 2271   4.698   4.357  10.611 -0.4551 -0.1442  1.1232
   18SAPC  H12B 2272   4.539   4.325  10.526  0.6633  1.6601 -0.9447
   18SAPC   C13 2273   4.650   4.082  10.420  0.2476  0.1593 -0.0433
   18SAPC  H13A 2274   4.554   4.097  10.373  0.3429  0.7270 -0.0632
   18SAPC  H13B 2275   4.718   4.113  10.342  1.1354 -1.0906  0.2005
   18SAPC  H13C 2276   4.667   3.976  10.431 -3.1549 -0.3249  1.7804
   18SAPC   C14 2277   4.806   4.144  10.597 -0.1995  0.1910 -0.1153
   18SAPC  H14A 2278   4.822   4.047  10.642  1.4776  0.9091  0.9287
   18SAPC  H14B 2279   4.872   4.152  10.513 -0.6873  0.6780 -0.4608
   18SAPC  H14C 2280   4.840   4.214  10.672  0.5551 -0.3385  0.0518
   18SAPC   C15 2281   4.570   4.091  10.656  0.4129 -0.7150 -0.1426
   18SAPC  H15A 2282   4.585   4.134  10.754  0.8247  0.3285 -0.6463
   18SAPC  H15B 2283   4.469   4.099  10.619 -0.1259  4.1141  1.6497
   18SAPC  H15C 2284   4.597   3.988  10.671 -2.1323 -1.3167  0.6587
   18SAPC   C11 2285   4.709   4.370  10.400  0.0105 -0.4264 -0.3501
   18SAPC  H11A 2286   4.657   4.468  10.386 -1.9053 -1.7220 -3.4551
   18SAPC  H11B 2287   4.682   4.318  10.306 -0.4361  1.6674 -1.4614
   18SAPC     P 2288   4.921   4.486  10.512  0.1003 -0.3844  0.1669
   18SAPC   O13 2289   4.827   4.516  10.623 -0.2792 -0.0575 -0.3675
   18SAPC   O14 2290   5.057   4.444  10.553  0.6835 -0.1586  0.5688
   18SAPC   O12 2291   4.854   4.385  10.413  0.5229 -0.2082  0.1895
   18SAPC   O11 2292   4.948   4.624  10.427  0.4650  0.7802  0.4080
   18SAPC    C1 2293   4.889   4.647  10.296 -0.0707 -0.4057 -0.2774
   18SAPC    HA 2294   4.798   4.585  10.279  0.1822  0.0361 -4.2810
   18SAPC    HB 2295   4.854   4.752  10.290  1.0278 -0.0858 -1.4573
   18SAPC    C2 2296   4.988   4.644  10.176 -0.8861 -0.1441 -0.0457
   18SAPC    HS 2297   4.934   4.669  10.082  0.5144  0.2405 -0.7880
   18SAPC   O21 2298   5.051   4.513  10.177 -0.3382  0.1199 -0.3863
   18SAPC   C21 2299   4.969   4.419  10.133 -0.0021  0.1553 -0.1484
   18SAPC   O22 2300   4.869   4.440  10.066  0.3759  0.2908 -0.5280
   18SAPC   C22 2301   5.020   4.273  10.159 -1.0270 -0.0045 -0.1320
   18SAPC   H2R 2302   5.032   4.273  10.269 -2.0131  0.5193 -0.0166
   18SAPC   H2S 2303   4.935   4.207  10.131  0.2611 -1.7169 -0.1298
   18SAPC    C3 2304   5.099   4.749  10.195  0.0798 -0.4459  0.3388
   18SAPC    HX 2305   5.127   4.733  10.302  1.7308 -0.9890 -0.1459
   18SAPC    HY 2306   5.049   4.848  10.183  0.4896 -0.3394 -0.5775
   18SAPC   O31 2307   5.204   4.742  10.099  0.2254  0.3628  0.1541
   18SAPC   C31 2308   5.296   4.660  10.122  0.2432  0.1824 -0.4400
   18SAPC   O32 2309   5.324   4.601  10.224  0.0332  0.4685 -0.1498
   18SAPC   C32 2310   5.385   4.656   9.999  0.4254 -0.0946 -0.4729
   18SAPC   H2X 2311   5.473   4.593  10.022 -0.5972 -0.9679  1.2175
   18SAPC   H2Y 2312   5.402   4.763   9.974 -0.6949  0.2454  0.1472
   18SAPC   C23 2313   5.153   4.235  10.087  0.2805  0.0672  0.1484
   18SAPC   H3R 2314   5.237   4.304  10.108  0.5920 -0.5945  1.1327
   18SAPC   H3S 2315   5.126   4.242   9.979  0.4824  1.9765  0.1903
   18SAPC   C24 2316   5.215   4.102  10.121 -0.6275 -0.5959  0.1693
   18SAPC   H4R 2317   5.231   4.103  10.231  0.3537  0.2717  0.0382
   18SAPC   H4S 2318   5.312   4.108  10.069 -0.9680  2.7797 -0.3066
   18SAPC   C25 2319   5.127   3.985  10.092 -0.7303  0.9476 -0.0167
   18SAPC   H5R 2320   5.070   3.949  10.178  0.1947 -3.5937 -1.0391
   18SAPC   C26 2321   5.127   3.916   9.972  0.3138  0.5810  0.4021
   18SAPC   H6R 2322   5.074   3.820   9.971 -2.0896  1.8320  0.3965
   18SAPC   C27 2323   5.204   3.948   9.850 -0.1340  0.0177 -0.2967
   18SAPC   H7R 2324   5.304   3.976   9.891 -0.4844 -1.5330  1.7228
   18SAPC   H7S 2325   5.158   4.044   9.817 -1.3031  0.8818  3.3775
   18SAPC   C28 2326   5.229   3.860   9.727 -0.0702  0.3137  0.3429
   18SAPC   H8R 2327   5.291   3.770   9.741  1.0023  1.1225  0.8603
   18SAPC   C29 2328   5.192   3.877   9.601  0.0411 -0.4636 -0.0635
   18SAPC   H9R 2329   5.210   3.793   9.532 -1.9553 -1.6062  0.7307
   18SAPC  C210 2330   5.119   3.992   9.534  0.2579  0.0657 -0.1434
   18SAPC  H10R 2331   5.186   4.064   9.482 -0.4945  0.7663 -0.1410
   18SAPC  H10S 2332   5.072   4.047   9.617  1.0164 -0.6166  0.7661
   18SAPC  C211 2333   5.010   3.937   9.446  0.0616  0.5123 -0.0603
   18SAPC  H11R 2334   4.942   3.871   9.501 -1.0009  1.6106 -0.0218
   18SAPC  C212 2335   4.957   3.964   9.327  0.3200  0.9162 -0.2413
   18SAPC  H12R 2336   4.887   3.891   9.284 -0.0089  0.2909  1.2892
   18SAPC  C213 2337   5.017   4.062   9.237 -0.4886 -0.6014 -0.2669
   18SAPC  H13R 2338   5.100   4.003   9.192  0.7354 -0.0685  1.2229
   18SAPC  H13S 2339   5.056   4.147   9.296 -0.1477 -0.8462 -0.1427
   18SAPC  C214 2340   4.928   4.126   9.136 -1.1977  0.3564 -0.2009
   18SAPC  H14R 2341   4.827   4.130   9.181 -1.6113  3.3982 -1.1856
   18SAPC  C215 2342   4.946   4.167   9.012 -0.7184 -0.2836  0.7396
   18SAPC  H15R 2343   4.856   4.192   8.954 -0.6335  0.3763  0.8839
   18SAPC  C216 2344   5.081   4.186   8.949 -0.4142  0.4729 -0.4351
   18SAPC  H16R 2345   5.072   4.159   8.842  2.1708 -1.3070 -0.3079
   18SAPC  H16S 2346   5.161   4.118   8.987 -0.3631  1.0834  0.5786
   18SAPC  C217 2347   5.127   4.330   8.942  0.2963  0.3478  0.8328
   18SAPC  H17R 2348   5.172   4.357   9.040 -0.5485 -0.3718  1.4406
   18SAPC  H17S 2349   5.047   4.407   8.938 -1.3971 -1.0729  3.6237
   18SAPC  C218 2350   5.231   4.358   8.829  0.5279 -0.4225  0.0793
   18SAPC  H18R 2351   5.171   4.344   8.736  0.0700 -1.6601  0.5333
   18SAPC  H18S 2352   5.311   4.282   8.839  0.5055 -0.3385  0.9576
   18SAPC  C219 2353   5.291   4.496   8.836  0.4853 -0.3732  0.6269
   18SAPC  H19R 2354   5.212   4.575   8.837  0.0058 -0.8482  0.4799
   18SAPC  H19S 2355   5.337   4.521   8.738 -2.6657 -0.6156 -1.0574
   18SAPC  C220 2356   5.371   4.524   8.961 -0.4655  0.6965 -0.1966
   18SAPC  H20R 2357   5.411   4.628   8.960 -0.3746  0.7331  2.2389
   18SAPC  H20S 2358   5.460   4.458   8.960  0.3995  1.6361  2.9591
   18SAPC  H20T 2359   5.320   4.492   9.054 -1.0767  0.0113 -0.7563
   18SAPC   C33 2360   5.299   4.588   9.884 -0.0550 -0.5776  0.4766
   18SAPC   H3X 2361   5.264   4.665   9.811  4.0090  1.1909  0.1183
   18SAPC   H3Y 2362   5.213   4.525   9.914  0.0005  0.1188  2.1879
   18SAPC   C34 2363   5.393   4.500   9.802 -0.3025  0.0862 -0.3038
   18SAPC   H4X 2364   5.425   4.423   9.875 -2.9743 -0.6242  0.2531
   18SAPC   H4Y 2365   5.483   4.558   9.773 -0.4028  0.1104 -0.5714
   18SAPC   C35 2366   5.333   4.431   9.679  1.0816 -0.5033  0.4033
   18SAPC   H5X 2367   5.274   4.505   9.620  0.6724 -0.4926  0.8151
   18SAPC   H5Y 2368   5.270   4.346   9.712 -0.9861  0.3070 -1.2084
   18SAPC   C36 2369   5.439   4.371   9.584  0.4804  0.1140 -0.6502
   18SAPC   H6X 2370   5.501   4.303   9.647 -2.4404  0.5549  3.0707
   18SAPC   H6Y 2371   5.496   4.457   9.543 -2.1656  1.6737 -1.2807
   18SAPC   C37 2372   5.369   4.305   9.470  0.5134  0.1771  0.1944
   18SAPC   H7X 2373   5.311   4.383   9.416 -2.7557 -1.4563  1.1014
   18SAPC   H7Y 2374   5.293   4.231   9.501 -1.2881  2.8670  2.6865
   18SAPC   C38 2375   5.466   4.236   9.373  0.7665  0.1709  0.0664
   18SAPC   H8X 2376   5.504   4.142   9.419 -0.7260  0.5057  2.1249
   18SAPC   H8Y 2377   5.562   4.291   9.362  1.7104 -0.9652  2.0050
   18SAPC   C39 2378   5.401   4.189   9.240 -0.5083  0.5339  0.6771
   18SAPC   H9X 2379   5.357   4.279   9.191  0.9895 -0.2692 -2.3777
   18SAPC   H9Y 2380   5.323   4.115   9.266 -0.8528  1.3497  2.0787
   18SAPC  C310 2381   5.502   4.120   9.147 -0.2371  0.1706 -0.0477
   18SAPC  H10X 2382   5.559   4.043   9.202 -1.2286 -2.0448 -1.9709
   18SAPC  H10Y 2383   5.575   4.201   9.125 -1.2747  1.7169  1.9064
   18SAPC  C311 2384   5.444   4.050   9.026  0.1073 -0.1474  0.2343
   18SAPC  H11X 2385   5.386   4.114   8.956 -0.3679 -1.0629 -0.2320
   18SAPC  H11Y 2386   5.380   3.967   9.065  0.3745  0.2513  1.5714
   18SAPC  C312 2387   5.556   3.993   8.935  0.0321  0.2135 -0.6607
   18SAPC  H12X 2388   5.622   3.934   9.003  0.5034 -0.3353 -1.5640
   18SAPC  H12Y 2389   5.619   4.074   8.891  0.4300  0.7448  0.8501
   18SAPC  C313 2390   5.498   3.897   8.830 -0.7913 -0.0210 -0.5898
   18SAPC  H13X 2391   5.451   3.808   8.876  0.4581 -1.2118 -1.5109
   18SAPC  H13Y 2392   5.582   3.854   8.771  0.0623 -0.9457  1.2381
   18SAPC  C314 2393   5.409   3.974   8.724  0.6490  1.0229 -0.3867
   18SAPC  H14X 2394   5.314   4.011   8.767  1.4769  2.1861  0.5209
   18SAPC  H14Y 2395   5.400   3.890   8.651 -0.5769 -0.6167  1.5459
   18SAPC  C315 2396   5.478   4.091   8.664 -0.3084 -0.8514  0.8121
   18SAPC  H15X 2397   5.581   4.059   8.637  1.0767  2.7731  1.3037
   18SAPC  H15Y 2398   5.494   4.164   8.745  0.8854 -0.4013  0.1869
   18SAPC  C316 2399   5.405   4.163   8.546 -0.9439  0.0736  0.1425
   18SAPC  H16X 2400   5.309   4.198   8.587 -0.4172  1.8172 -0.0193
   18SAPC  H16Y 2401   5.380   4.093   8.464 -0.1631  2.9783 -2.8145
   18SAPC  C317 2402   5.465   4.301   8.503 -0.1431  0.5702  0.7445
   18SAPC  H17X 2403   5.557   4.288   8.442 -1.4130 -1.0346 -0.9040
   18SAPC  H17Y 2404   5.490   4.363   8.593  2.0725  0.1532  0.4822
   18SAPC  C318 2405   5.360   4.380   8.415 -0.0311  0.1178 -0.1060
   18SAPC  H18X 2406   5.385   4.486   8.394  2.5265 -0.4535 -0.1968
   18SAPC  H18Y 2407   5.263   4.375   8.470  0.4575 -2.3361  0.6520
   18SAPC  H18Z 2408   5.340   4.318   8.325  0.1563 -0.4734  0.2575
   19SAPC     N 2409   3.575   0.396  10.922 -0.0128 -0.6500  0.2803
   19SAPC   C12 2410   3.579   0.368  10.773  0.5439 -0.0053  0.3129
   19SAPC  H12A 2411   3.585   0.263  10.750 -0.7019  0.2477 -1.3882
   19SAPC  H12B 2412   3.670   0.408  10.731  0.1261 -0.5599 -1.1829
   19SAPC   C13 2413   3.702   0.336  10.981 -0.7406 -0.3452  0.0948
   19SAPC  H13A 2414   3.723   0.379  11.078  0.2540 -2.0289  0.6642
   19SAPC  H13B 2415   3.699   0.229  10.994 -0.2903 -0.2941  0.6677
   19SAPC  H13C 2416   3.787   0.362  10.920 -0.7880 -2.1573 -0.7977
   19SAPC   C14 2417   3.578   0.544  10.936  0.4703 -0.5194 -0.3473
   19SAPC  H14A 2418   3.488   0.595  10.905 -0.4235 -1.1200  1.1787
   19SAPC  H14B 2419   3.605   0.586  11.032  0.7983  0.3754 -0.8192
   19SAPC  H14C 2420   3.652   0.590  10.872  0.6018  0.0325  0.1854
   19SAPC   C15 2421   3.460   0.328  10.993 -0.2015  0.3674  0.7867
   19SAPC  H15A 2422   3.487   0.224  10.997 -0.3511  0.3564  2.3707
   19SAPC  H15B 2423   3.449   0.368  11.093 -0.8844 -1.0217  1.2811
   19SAPC  H15C 2424   3.368   0.342  10.939  0.0355  1.0226  0.5376
   19SAPC   C11 2425   3.460   0.418  10.681  0.6684 -0.3502  0.6414
   19SAPC  H11A 2426   3.476   0.377  10.579 -1.0489  0.7901 -0.1407
   19SAPC  H11B 2427   3.477   0.528  10.678  0.8521 -0.3921 -0.2669
   19SAPC     P 2428   3.198   0.430  10.653  0.1848  0.4185  0.3392
   19SAPC   O13 2429   3.101   0.317  10.652 -0.0030 -0.0368  0.5016
   19SAPC   O14 2430   3.160   0.553  10.720  0.4426  0.6058 -0.0997
   19SAPC   O12 2431   3.328   0.376  10.725 -0.5775 -0.3248  0.2312
   19SAPC   O11 2432   3.233   0.467  10.500  0.1118 -0.0350 -0.2271
   19SAPC    C1 2433   3.263   0.371  10.397 -0.3136 -0.1881  0.1080
   19SAPC    HA 2434   3.324   0.416  10.316  0.3292  0.5797  0.9944
   19SAPC    HB 2435   3.329   0.296  10.445 -0.0421  1.0509  1.7802
   19SAPC    C2 2436   3.142   0.296  10.331  0.9625 -0.1050 -0.8247
   19SAPC    HS 2437   3.104   0.243  10.422  1.7222  0.4795 -0.1567
   19SAPC   O21 2438   3.191   0.216  10.225 -0.4085  0.4019 -0.1273
   19SAPC   C21 2439   3.120   0.116  10.199 -0.3623 -0.1297 -0.1035
   19SAPC   O22 2440   3.016   0.093  10.258  0.2581  0.2680  0.1458
   19SAPC   C22 2441   3.187   0.015  10.100  0.3859  0.4571  0.0635
   19SAPC   H2R 2442   3.253   0.077  10.037  0.6029  0.2761  0.1102
   19SAPC   H2S 2443   3.254  -0.046  10.164  0.2818  0.3076  0.0304
   19SAPC    C3 2444   3.035   0.400  10.281  0.3678 -0.2977  0.4218
   19SAPC    HX 2445   2.992   0.460  10.364 -3.9699  0.0782 -1.8056
   19SAPC    HY 2446   2.950   0.338  10.248  0.2885 -0.4974  0.9872
   19SAPC   O31 2447   3.093   0.491  10.185 -0.2456  0.8779 -0.3142
   19SAPC   C31 2448   3.072   0.466  10.052 -0.2236 -1.0950 -1.1087
   19SAPC   O32 2449   3.007   0.376  10.003  0.4483  0.0689  0.1387
   19SAPC   C32 2450   3.169   0.560   9.976  0.4957  0.2310 -0.3433
   19SAPC   H2X 2451   3.273   0.546  10.013 -0.1081 -1.4298  0.8506
   19SAPC   H2Y 2452   3.144   0.665  10.003 -0.2645 -0.5820  2.4857
   19SAPC   C23 2453   3.079  -0.057  10.013  0.1437  0.4191 -0.6156
   19SAPC   H3R 2454   2.983  -0.002  10.018  0.2228  0.5777 -0.7948
   19SAPC   H3S 2455   3.053  -0.152  10.065 -1.1772  1.7506  1.2841
   19SAPC   C24 2456   3.121  -0.083   9.867  0.0723  0.5380 -0.1210
   19SAPC   H4R 2457   3.042  -0.144   9.818  1.0148 -1.2312  0.4388
   19SAPC   H4S 2458   3.221  -0.133   9.867  1.7103  3.5168  1.2130
   19SAPC   C25 2459   3.125   0.051   9.806  0.0301  0.1919  0.1276
   19SAPC   H5R 2460   3.140   0.132   9.878 -1.7733  1.2747 -0.6564
   19SAPC   C26 2461   3.089   0.089   9.684  0.6527  0.0875 -0.0794
   19SAPC   H6R 2462   3.115   0.191   9.655  0.4821 -0.3346 -1.8404
   19SAPC   C27 2463   3.059  -0.003   9.573  0.6881 -0.0809 -0.1601
   19SAPC   H7R 2464   2.950  -0.020   9.572  0.8606 -1.8235 -2.7740
   19SAPC   H7S 2465   3.099  -0.105   9.593  0.5308 -0.5096 -1.8269
   19SAPC   C28 2466   3.103   0.039   9.432 -0.1340 -0.3732 -0.4477
   19SAPC   H8R 2467   3.211   0.030   9.414  0.1526  0.1606  0.9081
   19SAPC   C29 2468   3.026   0.097   9.342 -0.5220  0.0098  1.0855
   19SAPC   H9R 2469   3.071   0.125   9.246  1.1636  0.4396  1.9546
   19SAPC  C210 2470   2.881   0.135   9.349 -0.6261 -0.8115  0.4519
   19SAPC  H10R 2471   2.834   0.062   9.419 -1.9388  0.9780  1.5388
   19SAPC  H10S 2472   2.818   0.129   9.258 -0.0463 -0.5679  0.0349
   19SAPC  C211 2473   2.870   0.276   9.409 -0.5346  0.2841  0.0659
   19SAPC  H11R 2474   2.900   0.280   9.515 -0.5055 -0.4794  0.0897
   19SAPC  C212 2475   2.826   0.383   9.341  0.0283 -0.2384  0.1139
   19SAPC  H12R 2476   2.834   0.480   9.392  1.2280  0.2385 -0.9242
   19SAPC  C213 2477   2.755   0.388   9.203 -0.4323  0.1750 -0.2019
   19SAPC  H13R 2478   2.725   0.494   9.192 -0.7791  0.2805  1.4993
   19SAPC  H13S 2479   2.654   0.342   9.201 -0.6011  0.5730 -0.9620
   19SAPC  C214 2480   2.833   0.356   9.085 -0.2283  0.1423  0.0474
   19SAPC  H14R 2481   2.910   0.280   9.105  0.5201  0.4187 -1.5619
   19SAPC  C215 2482   2.802   0.384   8.954 -0.2627 -0.4181 -0.3504
   19SAPC  H15R 2483   2.870   0.344   8.876  2.4400  0.6956  1.2846
   19SAPC  C216 2484   2.678   0.459   8.912 -0.3029  0.1140  0.1677
   19SAPC  H16R 2485   2.713   0.564   8.906 -1.6430  0.6393  1.1073
   19SAPC  H16S 2486   2.596   0.442   8.985 -2.8911 -0.8115 -2.7356
   19SAPC  C217 2487   2.610   0.411   8.781  0.0940 -0.1414  0.4576
   19SAPC  H17R 2488   2.526   0.339   8.795  0.1467 -0.0231  1.4556
   19SAPC  H17S 2489   2.687   0.353   8.726 -0.7395 -1.0354  0.1940
   19SAPC  C218 2490   2.551   0.520   8.693 -0.2547 -0.1284 -0.1695
   19SAPC  H18R 2491   2.603   0.618   8.698 -1.5783  0.6008 -0.3402
   19SAPC  H18S 2492   2.452   0.545   8.735  0.7141  2.1656  0.9077
   19SAPC  C219 2493   2.539   0.480   8.543 -0.0363  0.1543 -0.3252
   19SAPC  H19R 2494   2.465   0.547   8.495 -1.5938  0.1560  1.9179
   19SAPC  H19S 2495   2.499   0.377   8.539  0.9814 -0.2213 -1.9559
   19SAPC  C220 2496   2.670   0.467   8.471 -0.3818  0.1071 -0.2049
   19SAPC  H20R 2497   2.736   0.554   8.491  0.2038 -0.1176 -1.1055
   19SAPC  H20S 2498   2.660   0.457   8.361 -0.1285  1.3965 -0.3670
   19SAPC  H20T 2499   2.714   0.376   8.517 -1.0380 -0.7650 -1.2456
   19SAPC   C33 2500   3.145   0.559   9.822 -0.1618  0.2895  0.5986
   19SAPC   H3X 2501   3.052   0.613   9.794 -1.5253 -1.1178  2.1758
   19SAPC   H3Y 2502   3.132   0.453   9.790  1.3219  0.0754  0.6215
   19SAPC   C34 2503   3.258   0.617   9.739  0.1252 -0.6249  0.4287
   19SAPC   H4X 2504   3.357   0.575   9.765  0.4115 -0.7776 -0.8639
   19SAPC   H4Y 2505   3.266   0.726   9.761  4.7221  0.2219 -3.7223
   19SAPC   C35 2506   3.219   0.610   9.595 -0.8321 -0.1455  0.7625
   19SAPC   H5X 2507   3.294   0.673   9.543 -0.4345 -1.0441  0.2416
   19SAPC   H5Y 2508   3.127   0.672   9.586 -0.9242 -0.1593  1.5309
   19SAPC   C36 2509   3.202   0.469   9.528 -0.2820  0.2236 -0.2094
   19SAPC   H6X 2510   3.096   0.446   9.552 -0.6491  1.1770 -0.8429
   19SAPC   H6Y 2511   3.265   0.387   9.569  0.6028 -0.7566 -3.2736
   19SAPC   C37 2512   3.226   0.469   9.375 -0.1321 -0.6397 -0.7069
   19SAPC   H7X 2513   3.188   0.371   9.339  0.1825 -0.3956 -1.7355
   19SAPC   H7Y 2514   3.334   0.477   9.353  0.3526  1.9510  2.0424
   19SAPC   C38 2515   3.151   0.580   9.301  0.4252 -0.5149 -0.3539
   19SAPC   H8X 2516   3.196   0.679   9.326 -1.1082  0.6680 -2.0129
   19SAPC   H8Y 2517   3.045   0.577   9.334  0.1892 -0.9961 -1.1243
   19SAPC   C39 2518   3.152   0.571   9.145  0.3047  0.5897  0.6058
   19SAPC   H9X 2519   3.058   0.611   9.100  0.2606 -1.5440 -1.4012
   19SAPC   H9Y 2520   3.157   0.463   9.122  1.9355  1.2041 -2.4531
   19SAPC  C310 2521   3.254   0.667   9.080  0.9036  0.4821 -0.2159
   19SAPC  H10X 2522   3.354   0.653   9.127  0.3444 -0.7561  0.6782
   19SAPC  H10Y 2523   3.214   0.770   9.087 -1.8793 -0.2851 -2.5055
   19SAPC  C311 2524   3.263   0.628   8.928 -0.5756 -0.3101  0.9788
   19SAPC  H11X 2525   3.162   0.645   8.885 -0.4561 -2.6333 -0.3695
   19SAPC  H11Y 2526   3.295   0.522   8.932  1.1686  0.1092 -0.4105
   19SAPC  C312 2527   3.393   0.701   8.867  0.0146  0.1330 -0.0847
   19SAPC  H12X 2528   3.482   0.689   8.931  0.4452 -3.1816 -1.0874
   19SAPC  H12Y 2529   3.370   0.810   8.862 -2.4264 -0.3321 -0.4701
   19SAPC  C313 2530   3.425   0.663   8.719 -0.6731  0.3810  0.1021
   19SAPC  H13X 2531   3.332   0.666   8.659 -0.1076 -0.2964 -0.8465
   19SAPC  H13Y 2532   3.462   0.558   8.715 -3.3913 -0.6108 -2.1897
   19SAPC  C314 2533   3.516   0.761   8.646  0.3457 -0.5250  0.0755
   19SAPC  H14X 2534   3.472   0.862   8.639  0.8207 -0.2614  0.7354
   19SAPC  H14Y 2535   3.528   0.726   8.541 -0.2211  0.8765 -0.4802
   19SAPC  C315 2536   3.657   0.771   8.712  0.0158  0.6928 -0.2633
   19SAPC  H15X 2537   3.706   0.672   8.719  0.4493  0.9684  0.7163
   19SAPC  H15Y 2538   3.643   0.791   8.820 -2.3702 -1.9399  0.0246
   19SAPC  C316 2539   3.758   0.866   8.654 -0.7511  0.2050 -0.5180
   19SAPC  H16X 2540   3.716   0.968   8.661  1.3824  1.1069  0.0694
   19SAPC  H16Y 2541   3.776   0.847   8.546 -1.5954  2.1598 -1.0403
   19SAPC  C317 2542   3.894   0.870   8.728 -0.1454 -0.3434  0.7441
   19SAPC  H17X 2543   3.949   0.773   8.732  1.0492  0.3388  1.6691
   19SAPC  H17Y 2544   3.869   0.882   8.835 -2.9903  0.0463  0.1110
   19SAPC  C318 2545   3.986   0.981   8.671  0.5017  0.0737  0.5833
   19SAPC  H18X 2546   3.922   1.060   8.627  1.7329 -0.1309 -1.7479
   19SAPC  H18Y 2547   4.045   0.939   8.587 -3.0398 -0.2013 -1.9806
   19SAPC  H18Z 2548   4.043   1.024   8.756  0.0297  0.1740  0.8497
   20SAPC     N 2549   3.135   3.082  10.641 -0.3181  0.0652 -0.0128
   20SAPC   C12 2550   3.218   2.969  10.597 -0.1804 -0.2857  0.9025
   20SAPC  H12A 2551   3.163   2.901  10.534 -0.0411  0.4206 -0.0132
   20SAPC  H12B 2552   3.247   2.919  10.688 -0.8146  0.1848  1.3765
   20SAPC   C13 2553   3.199   3.143  10.763 -0.2216  0.4061 -0.1266
   20SAPC  H13A 2554   3.285   3.205  10.742 -1.3218  1.5329 -1.5265
   20SAPC  H13B 2555   3.125   3.214  10.795 -0.5284  0.0031  0.0742
   20SAPC  H13C 2556   3.213   3.076  10.847  0.2782  0.0508 -0.4849
   20SAPC   C14 2557   3.120   3.170  10.529  0.2382 -0.4089  0.5929
   20SAPC  H14A 2558   3.049   3.250  10.543  0.7272  0.3443 -0.9808
   20SAPC  H14B 2559   3.212   3.218  10.499 -0.7081  0.5457 -0.9539
   20SAPC  H14C 2560   3.086   3.113  10.444  3.1419  0.5335 -1.3480
   20SAPC   C15 2561   3.010   3.013  10.688 -0.4547  0.0320 -0.3772
   20SAPC  H15A 2562   3.015   2.975  10.789  0.5479  1.0771 -0.0078
   20SAPC  H15B 2563   2.930   3.087  10.692 -0.5648 -0.1388  1.0738
   20SAPC  H15C 2564   2.975   2.940  10.617 -3.1297  1.5654 -0.8041
   20SAPC   C11 2565   3.342   3.013  10.514 -0.6708 -0.7205  0.6189
   20SAPC  H11A 2566   3.312   3.067  10.422 -0.5755  1.9219  2.0326
   20SAPC  H11B 2567   3.391   2.923  10.470  1.4672  0.6025  0.1418
   20SAPC     P 2568   3.544   3.021  10.680 -0.0078  0.1668 -0.0390
   20SAPC   O13 2569   3.589   3.106  10.791 -0.3101 -0.3347 -0.2223
   20SAPC   O14 2570   3.482   2.889  10.718 -0.7515 -0.7928 -0.0859
   20SAPC   O12 2571   3.438   3.095  10.583 -0.0569  0.3461  0.0952
   20SAPC   O11 2572   3.674   3.008  10.587  0.0999 -0.1830 -0.2069
   20SAPC    C1 2573   3.731   3.103  10.506 -0.0091  0.5462 -0.3413
   20SAPC    HA 2574   3.710   3.206  10.542 -2.6400 -0.7605  2.3180
   20SAPC    HB 2575   3.841   3.090  10.508 -0.0997 -0.2784 -0.2108
   20SAPC    C2 2576   3.684   3.079  10.357 -0.6243 -0.0754 -0.0351
   20SAPC    HS 2577   3.575   3.100  10.367 -0.5325 -0.4825  2.4282
   20SAPC   O21 2578   3.716   2.944  10.312  0.2764  0.0510 -0.1758
   20SAPC   C21 2579   3.632   2.895  10.221  0.8523 -0.0523 -0.6491
   20SAPC   O22 2580   3.525   2.946  10.190  0.0057  0.2319  0.2726
   20SAPC   C22 2581   3.665   2.757  10.183  0.1025 -0.2890 -0.2422
   20SAPC   H2R 2582   3.739   2.768  10.101  1.7451  2.5235  1.4409
   20SAPC   H2S 2583   3.706   2.705  10.272 -0.9460  2.3454  1.9080
   20SAPC    C3 2584   3.746   3.193  10.265 -0.7367 -0.3944 -0.3098
   20SAPC    HX 2585   3.850   3.188  10.302 -1.4714  1.4564  2.2683
   20SAPC    HY 2586   3.712   3.296  10.291  1.0269  0.7570 -2.2039
   20SAPC   O31 2587   3.743   3.173  10.122 -0.6144  0.0130 -0.0361
   20SAPC   C31 2588   3.624   3.193  10.061 -0.3423 -0.1619  0.1783
   20SAPC   O32 2589   3.533   3.259  10.104 -0.1937 -0.2417 -0.5818
   20SAPC   C32 2590   3.623   3.105   9.930 -0.1292 -0.1441 -0.0063
   20SAPC   H2X 2591   3.685   3.015   9.954 -2.1710 -1.7740 -0.5263
   20SAPC   H2Y 2592   3.674   3.165   9.852 -0.7454 -1.7379 -1.7054
   20SAPC   C23 2593   3.530   2.680  10.139 -0.4897 -0.3695  0.2699
   20SAPC   H3R 2594   3.451   2.686  10.217 -0.2367 -2.5444  0.7560
   20SAPC   H3S 2595   3.558   2.573  10.140 -5.0551 -1.7842  0.5713
   20SAPC   C24 2596   3.476   2.722  10.000  0.7857 -0.0144 -0.9888
   20SAPC   H4R 2597   3.558   2.732   9.926 -0.1681  4.5664 -1.7209
   20SAPC   H4S 2598   3.421   2.817  10.013 -0.2559 -0.8541  1.3585
   20SAPC   C25 2599   3.383   2.606   9.969  0.1606 -0.0229  0.9373
   20SAPC   H5R 2600   3.320   2.587  10.057  1.0769 -0.5029  1.5144
   20SAPC   C26 2601   3.355   2.554   9.849  0.1770  0.9191  0.3356
   20SAPC   H6R 2602   3.280   2.473   9.849 -0.5551  1.5836  0.6742
   20SAPC   C27 2603   3.421   2.591   9.716  0.3257  0.6767  0.5421
   20SAPC   H7R 2604   3.455   2.497   9.666 -0.8081 -0.8434  2.4613
   20SAPC   H7S 2605   3.509   2.656   9.732  0.4396  0.3401  1.3278
   20SAPC   C28 2606   3.321   2.671   9.642 -0.8479  0.1771  0.4696
   20SAPC   H8R 2607   3.272   2.753   9.696 -0.8958  0.3797  0.1237
   20SAPC   C29 2608   3.293   2.678   9.509  0.0670  0.5407  0.4275
   20SAPC   H9R 2609   3.221   2.746   9.462 -0.2307 -0.5352 -0.7239
   20SAPC  C210 2610   3.364   2.586   9.410 -0.0993  0.0419 -0.2974
   20SAPC  H10R 2611   3.290   2.528   9.351  0.6232 -3.3324  1.8833
   20SAPC  H10S 2612   3.409   2.498   9.461  0.0281 -0.2451 -0.8945
   20SAPC  C211 2613   3.470   2.664   9.335  0.3874  0.2119 -0.0300
   20SAPC  H11R 2614   3.556   2.695   9.397  0.5954 -0.9468  0.2910
   20SAPC  C212 2615   3.464   2.702   9.206  0.3323 -0.7167 -0.1630
   20SAPC  H12R 2616   3.553   2.744   9.158 -0.6110 -0.7939 -2.0500
   20SAPC  C213 2617   3.354   2.672   9.103 -0.3305  0.2074 -0.4839
   20SAPC  H13R 2618   3.305   2.579   9.140 -0.3519 -0.0172 -1.0607
   20SAPC  H13S 2619   3.397   2.649   9.003 -0.3580 -0.8645 -0.2684
   20SAPC  C214 2620   3.259   2.790   9.087  1.3482 -0.4541 -0.2396
   20SAPC  H14R 2621   3.225   2.828   9.185  2.9860  0.6232 -0.0652
   20SAPC  C215 2622   3.228   2.862   8.978 -0.3305  0.6319  0.3492
   20SAPC  H15R 2623   3.151   2.939   8.986 -2.3518 -1.4724  3.0990
   20SAPC  C216 2624   3.263   2.822   8.838 -0.3666 -0.0362  0.0766
   20SAPC  H16R 2625   3.213   2.729   8.806  1.4352 -1.3903  1.0399
   20SAPC  H16S 2626   3.372   2.799   8.837 -0.1646  0.8012  1.0297
   20SAPC  C217 2627   3.223   2.928   8.737  0.1344 -0.0477  0.3342
   20SAPC  H17R 2628   3.113   2.943   8.741 -0.0625 -1.3347  0.0603
   20SAPC  H17S 2629   3.238   2.894   8.633 -0.8989 -0.2636  0.2411
   20SAPC  C218 2630   3.325   3.045   8.734 -0.2779  0.0852  1.0431
   20SAPC  H18R 2631   3.419   3.022   8.679 -0.1057  2.6368  0.1073
   20SAPC  H18S 2632   3.353   3.063   8.840  1.0060 -0.7782  0.8779
   20SAPC  C219 2633   3.256   3.172   8.680 -0.4930 -0.6123  0.7771
   20SAPC  H19R 2634   3.175   3.198   8.750 -0.5974 -0.2889  0.5394
   20SAPC  H19S 2635   3.216   3.139   8.581 -2.0157  2.3139  0.3211
   20SAPC  C220 2636   3.356   3.288   8.652  0.6353 -0.1093 -0.6900
   20SAPC  H20R 2637   3.420   3.264   8.565  0.1713  1.0317 -1.3624
   20SAPC  H20S 2638   3.415   3.315   8.743 -0.4138 -0.2207  0.0452
   20SAPC  H20T 2639   3.310   3.386   8.628  0.0582 -0.5739 -1.5046
   20SAPC   C33 2640   3.487   3.060   9.874  0.0098 -0.3374  0.6650
   20SAPC   H3X 2641   3.419   3.147   9.886  0.8539  0.0325  3.4778
   20SAPC   H3Y 2642   3.446   2.991   9.951  0.7116 -1.3771  0.1260
   20SAPC   C34 2643   3.480   2.991   9.737 -0.1103  0.0394  0.9840
   20SAPC   H4X 2644   3.375   2.978   9.706  0.4965  0.1447 -1.3263
   20SAPC   H4Y 2645   3.522   2.888   9.741  1.0323  0.3377 -1.5239
   20SAPC   C35 2646   3.558   3.065   9.624  0.2813  0.0614 -0.3079
   20SAPC   H5X 2647   3.667   3.067   9.641  0.4419 -1.5541 -0.9656
   20SAPC   H5Y 2648   3.510   3.165   9.616 -1.9343 -0.9099  0.0662
   20SAPC   C36 2649   3.541   3.002   9.487 -0.5534  0.1135 -0.3410
   20SAPC   H6X 2650   3.435   3.015   9.458 -0.4425  2.5948  0.0954
   20SAPC   H6Y 2651   3.577   2.897   9.489 -0.2098  0.2387  2.1457
   20SAPC   C37 2652   3.621   3.082   9.381 -0.2620  0.0812 -0.2244
   20SAPC   H7X 2653   3.723   3.040   9.369  0.6156  2.2943 -0.8691
   20SAPC   H7Y 2654   3.620   3.189   9.409 -2.8040 -0.4698  2.2649
   20SAPC   C38 2655   3.558   3.071   9.241 -0.2611  0.3544  0.6573
   20SAPC   H8X 2656   3.458   3.119   9.233 -0.7594 -0.8006 -0.4535
   20SAPC   H8Y 2657   3.533   2.963   9.229  1.5790 -0.0119 -0.2143
   20SAPC   C39 2658   3.636   3.130   9.128 -0.1169  0.4292 -0.1035
   20SAPC   H9X 2659   3.741   3.099   9.147  1.7460  5.2003 -1.2272
   20SAPC   H9Y 2660   3.644   3.241   9.125  2.3229  0.3224  0.1189
   20SAPC  C310 2661   3.608   3.085   8.987 -0.4778  0.4529  0.1084
   20SAPC  H10X 2662   3.506   3.120   8.962 -0.9902 -1.1586 -0.1604
   20SAPC  H10Y 2663   3.615   2.976   8.967  0.8008  1.0631 -3.5330
   20SAPC  C311 2664   3.715   3.141   8.891  0.5550  0.1583 -0.0900
   20SAPC  H11X 2665   3.700   3.251   8.891 -2.2849 -0.1704  0.3445
   20SAPC  H11Y 2666   3.686   3.117   8.786  0.9555  1.6132 -0.5509
   20SAPC  C312 2667   3.862   3.092   8.904 -0.2500  0.0334 -0.3422
   20SAPC  H12X 2668   3.901   3.145   8.993  1.7018 -0.4311 -0.8541
   20SAPC  H12Y 2669   3.911   3.130   8.812  0.0282  0.0193 -0.2021
   20SAPC  C313 2670   3.872   2.940   8.903 -0.3832 -0.4981  0.1110
   20SAPC  H13X 2671   3.820   2.911   8.809  1.2718  0.4487 -1.1460
   20SAPC  H13Y 2672   3.813   2.879   8.975  1.0471 -0.6539  1.1879
   20SAPC  C314 2673   4.022   2.887   8.906  0.2866 -0.6486 -0.5190
   20SAPC  H14X 2674   4.019   2.777   8.892 -0.8663 -0.5982 -0.7365
   20SAPC  H14Y 2675   4.053   2.905   9.011 -0.7942 -1.4303 -0.0485
   20SAPC  C315 2676   4.114   2.957   8.811  0.1963 -0.1214 -0.0721
   20SAPC  H15X 2677   4.134   3.063   8.836 -0.9988 -0.2536  1.6428
   20SAPC  H15Y 2678   4.074   2.947   8.707 -0.8160 -1.9091  0.4474
   20SAPC  C316 2679   4.243   2.881   8.809 -0.5878  0.4824  0.1150
   20SAPC  H16X 2680   4.299   2.896   8.714 -2.4897 -0.0123 -1.1362
   20SAPC  H16Y 2681   4.233   2.772   8.830 -1.8407  0.6383  0.3930
   20SAPC  C317 2682   4.345   2.935   8.923  0.3246  0.6749  0.3696
   20SAPC  H17X 2683   4.283   2.943   9.015  0.0439  0.4160  0.2043
   20SAPC  H17Y 2684   4.377   3.039   8.900  0.6489  0.1940 -1.4713
   20SAPC  C318 2685   4.474   2.854   8.962 -0.1790  0.2944 -0.2533
   20SAPC  H18X 2686   4.533   2.832   8.870  1.1415 -0.2951  0.6998
   20SAPC  H18Y 2687   4.442   2.762   9.015  0.0720  0.7684  0.7518
   20SAPC  H18Z 2688   4.539   2.911   9.033  0.8344 -2.2666  1.0188
   21SAPC     N 2689   3.403   3.864  10.915  0.2735  0.0894 -0.4872
   21SAPC   C12 2690   3.353   4.001  10.945  0.6855 -0.2949  0.0332
   21SAPC  H12A 2691   3.433   4.073  10.932  2.1974 -1.8378  0.5070
   21SAPC  H12B 2692   3.310   4.001  11.044  0.2897  3.2349 -0.0014
   21SAPC   C13 2693   3.290   3.769  10.908 -0.8682  0.0890  0.3021
   21SAPC  H13A 2694   3.253   3.763  11.010  0.0282  0.0932  0.6398
   21SAPC  H13B 2695   3.208   3.816  10.857 -0.9413 -0.4704 -0.1070
   21SAPC  H13C 2696   3.323   3.670  10.879  1.3078  1.3398 -1.8039
   21SAPC   C14 2697   3.469   3.858  10.778 -0.0257  0.1494  0.6267
   21SAPC  H14A 2698   3.408   3.880  10.692  0.0511  1.0342  0.7874
   21SAPC  H14B 2699   3.543   3.936  10.779  2.5727 -2.1215 -0.0289
   21SAPC  H14C 2700   3.523   3.765  10.763 -0.0015  0.5146 -2.0181
   21SAPC   C15 2701   3.498   3.827  11.017  0.0580 -0.1725 -0.6075
   21SAPC  H15A 2702   3.532   3.725  11.007  0.5014 -0.0568 -0.3333
   21SAPC  H15B 2703   3.580   3.895  11.030  1.1083 -1.8141  2.2177
   21SAPC  H15C 2704   3.437   3.832  11.106 -2.0255  2.3134 -2.0224
   21SAPC   C11 2705   3.226   4.055  10.872  0.2377 -0.6620  0.7192
   21SAPC  H11A 2706   3.199   4.148  10.927  3.4646 -1.1886  3.5187
   21SAPC  H11B 2707   3.136   3.992  10.885 -0.8368  0.8859  1.1063
   21SAPC     P 2708   3.320   4.195  10.680  0.2006  0.1286  0.0280
   21SAPC   O13 2709   3.211   4.291  10.656  0.3104 -0.1896  0.0909
   21SAPC   O14 2710   3.431   4.235  10.763  1.1111  0.5896 -0.1640
   21SAPC   O12 2711   3.253   4.066  10.734  0.0687  0.1658  0.1867
   21SAPC   O11 2712   3.389   4.152  10.545 -0.0762  0.7541  0.6051
   21SAPC    C1 2713   3.306   4.059  10.458 -0.0588  0.8361 -0.2375
   21SAPC    HA 2714   3.298   3.963  10.514  3.1133 -0.8854 -2.3883
   21SAPC    HB 2715   3.201   4.092  10.443 -0.4816  0.3462  1.4160
   21SAPC    C2 2716   3.368   4.046  10.322 -0.0165  0.1651  0.3095
   21SAPC    HS 2717   3.293   4.009  10.249 -0.3709  1.0595  0.1996
   21SAPC   O21 2718   3.479   3.958  10.325  0.0817  0.5255 -0.5487
   21SAPC   C21 2719   3.459   3.828  10.322  0.0175  0.6044 -0.1639
   21SAPC   O22 2720   3.350   3.773  10.338 -0.2609  0.1061 -0.6008
   21SAPC   C22 2721   3.591   3.746  10.300  0.4850  0.2343  0.9749
   21SAPC   H2R 2722   3.672   3.809  10.258 -0.9013  0.4029 -1.6752
   21SAPC   H2S 2723   3.613   3.706  10.401  0.1623  0.4869  1.1503
   21SAPC    C3 2724   3.410   4.183  10.261  0.2495  0.1523 -0.2299
   21SAPC    HX 2725   3.480   4.241  10.325 -0.6002  1.2662 -0.2860
   21SAPC    HY 2726   3.314   4.239  10.268  0.5269  0.5555  0.3934
   21SAPC   O31 2727   3.448   4.168  10.118 -0.1490  0.1282  0.2347
   21SAPC   C31 2728   3.579   4.170  10.089  0.1978  0.0232 -0.6218
   21SAPC   O32 2729   3.661   4.198  10.177 -0.3284 -0.3162  0.2082
   21SAPC   C32 2730   3.599   4.148   9.944 -0.1846 -0.3195 -0.2730
   21SAPC   H2X 2731   3.569   4.238   9.886 -0.9779 -0.1112  0.4504
   21SAPC   H2Y 2732   3.543   4.058   9.910  0.0456 -0.0456 -1.4126
   21SAPC   C23 2733   3.555   3.625  10.200  0.7979 -0.2863 -0.9861
   21SAPC   H3R 2734   3.450   3.589  10.209  0.6988  0.4182  1.6904
   21SAPC   H3S 2735   3.620   3.535  10.213  1.9152  0.6933  0.6089
   21SAPC   C24 2736   3.570   3.656  10.051 -0.1242 -0.8368  0.2425
   21SAPC   H4R 2737   3.564   3.556  10.003 -1.3185 -1.6117  1.9258
   21SAPC   H4S 2738   3.676   3.687  10.042 -0.2173 -0.3494  0.7528
   21SAPC   C25 2739   3.487   3.752   9.968  0.7024 -0.3355  0.1301
   21SAPC   H5R 2740   3.395   3.792  10.014  1.3248  0.4055  0.7611
   21SAPC   C26 2741   3.504   3.784   9.835  0.2930  0.3034  0.0657
   21SAPC   H6R 2742   3.434   3.847   9.778  0.9616 -0.6740 -1.9260
   21SAPC   C27 2743   3.615   3.738   9.740  0.4298  0.0379 -0.1292
   21SAPC   H7R 2744   3.685   3.669   9.791  0.7295  1.1996  1.0793
   21SAPC   H7S 2745   3.669   3.831   9.714  1.4965 -1.2822 -3.0807
   21SAPC   C28 2746   3.562   3.669   9.620 -0.2840  0.1516 -0.1778
   21SAPC   H8R 2747   3.497   3.584   9.645  0.2964 -0.0514  0.6944
   21SAPC   C29 2748   3.595   3.693   9.492  0.5257 -0.2715  0.3894
   21SAPC   H9R 2749   3.544   3.645   9.407  2.2551  0.2163 -0.9804
   21SAPC  C210 2750   3.673   3.809   9.439  0.4870  0.2239 -0.6025
   21SAPC  H10R 2751   3.687   3.898   9.505  1.1575 -0.5282  0.3020
   21SAPC  H10S 2752   3.604   3.849   9.362 -0.2138 -2.1196 -1.2673
   21SAPC  C211 2753   3.815   3.780   9.389  0.3356 -0.0413 -0.6350
   21SAPC  H11R 2754   3.886   3.789   9.472 -0.0514  0.2994 -0.3372
   21SAPC  C212 2755   3.849   3.748   9.262  1.1790 -0.0599 -0.1693
   21SAPC  H12R 2756   3.955   3.744   9.234  1.1659  0.3674 -0.2799
   21SAPC  C213 2757   3.755   3.744   9.143 -0.3435  0.1012 -0.1027
   21SAPC  H13R 2758   3.650   3.722   9.171 -0.3514  0.0378 -0.1815
   21SAPC  H13S 2759   3.779   3.663   9.070 -0.0489  0.3176 -0.2486
   21SAPC  C214 2760   3.747   3.876   9.078 -0.4195 -0.6707  0.1590
   21SAPC  H14R 2761   3.796   3.959   9.133  0.6492 -0.8455 -0.4977
   21SAPC  C215 2762   3.696   3.905   8.953 -0.5424 -0.5254  0.7764
   21SAPC  H15R 2763   3.695   4.008   8.915  0.3437 -0.5613  0.6379
   21SAPC  C216 2764   3.638   3.791   8.870  0.0940  0.5479 -0.2934
   21SAPC  H16R 2765   3.547   3.831   8.819 -0.8311  0.0325  0.9129
   21SAPC  H16S 2766   3.596   3.710   8.933 -0.4388  0.8090 -0.3050
   21SAPC  C217 2767   3.726   3.726   8.759 -0.2895  0.4884 -0.4033
   21SAPC  H17R 2768   3.814   3.675   8.803 -0.6873  0.2902  0.1741
   21SAPC  H17S 2769   3.748   3.804   8.683  1.5757  1.1149  0.7128
   21SAPC  C218 2770   3.637   3.621   8.683  0.1928  0.1967 -0.5382
   21SAPC  H18R 2771   3.550   3.676   8.641 -0.6032 -0.7853 -0.2074
   21SAPC  H18S 2772   3.594   3.560   8.765 -1.2145  2.7889  0.7878
   21SAPC  C219 2773   3.701   3.539   8.578 -0.1681  0.3082  1.2147
   21SAPC  H19R 2774   3.801   3.507   8.615 -0.9347 -0.8738  2.3465
   21SAPC  H19S 2775   3.712   3.606   8.490 -0.5284 -1.2627 -0.0730
   21SAPC  C220 2776   3.632   3.422   8.511  0.2087 -0.1760  0.2499
   21SAPC  H20R 2777   3.678   3.397   8.413 -2.4499 -2.3957 -0.5444
   21SAPC  H20S 2778   3.527   3.446   8.483  0.0193  0.7591  1.6064
   21SAPC  H20T 2779   3.644   3.340   8.585 -1.1473 -0.0807  0.5955
   21SAPC   C33 2780   3.749   4.113   9.902  0.4967  0.9493 -0.1781
   21SAPC   H3X 2781   3.756   4.008   9.935  0.4416  0.6957 -0.9524
   21SAPC   H3Y 2782   3.817   4.168   9.970 -0.0461 -0.8482  1.9273
   21SAPC   C34 2783   3.789   4.142   9.757 -0.0618  0.3207  0.3085
   21SAPC   H4X 2784   3.727   4.073   9.694 -1.5164  2.2538 -0.4991
   21SAPC   H4Y 2785   3.893   4.104   9.752  0.1024  0.7330  0.5562
   21SAPC   C35 2786   3.776   4.285   9.701  0.4159  0.7187 -0.3174
   21SAPC   H5X 2787   3.812   4.359   9.775  0.3071  0.7927 -0.3395
   21SAPC   H5Y 2788   3.667   4.299   9.686  0.2530 -0.6708 -0.5992
   21SAPC   C36 2789   3.848   4.307   9.561 -0.2580 -0.4789 -0.0079
   21SAPC   H6X 2790   3.953   4.279   9.586  0.1252 -0.0820 -1.1186
   21SAPC   H6Y 2791   3.851   4.413   9.530 -1.4997  0.0713  1.6443
   21SAPC   C37 2792   3.798   4.225   9.442 -0.3297  0.1155  0.9173
   21SAPC   H7X 2793   3.694   4.246   9.412 -0.3313  0.1696  0.9623
   21SAPC   H7Y 2794   3.805   4.120   9.480 -0.1296 -0.1834  0.0761
   21SAPC   C38 2795   3.900   4.237   9.328 -0.4924 -0.3130  0.6741
   21SAPC   H8X 2796   3.926   4.137   9.285  1.4387  0.9370 -1.2464
   21SAPC   H8Y 2797   3.995   4.279   9.369 -1.5578  1.6861  1.1913
   21SAPC   C39 2798   3.857   4.331   9.216  0.2635 -1.1389 -0.5326
   21SAPC   H9X 2799   3.933   4.369   9.145 -1.8420  1.3443 -1.6232
   21SAPC   H9Y 2800   3.808   4.427   9.244  0.8452 -1.4144  1.5770
   21SAPC  C310 2801   3.759   4.259   9.117  0.4099 -0.4942 -0.0466
   21SAPC  H10X 2802   3.683   4.216   9.186 -2.5417  0.9349 -2.1850
   21SAPC  H10Y 2803   3.817   4.182   9.062  1.3400  0.4305 -0.3836
   21SAPC  C311 2804   3.688   4.353   9.018  0.2285 -0.2587 -0.0912
   21SAPC  H11X 2805   3.756   4.439   8.999 -2.3851  2.0538  0.2186
   21SAPC  H11Y 2806   3.604   4.411   9.063  0.8246 -0.3413  1.1435
   21SAPC  C312 2807   3.659   4.307   8.873 -0.8090  0.3348  0.0717
   21SAPC  H12X 2808   3.588   4.375   8.821  0.9003  1.8126 -0.4633
   21SAPC  H12Y 2809   3.610   4.208   8.879  1.9356 -1.0280  2.0082
   21SAPC  C313 2810   3.777   4.289   8.780 -1.1094 -0.1333 -0.2965
   21SAPC  H13X 2811   3.861   4.261   8.847 -1.7709 -1.0915  0.1589
   21SAPC  H13Y 2812   3.829   4.381   8.744  1.0142 -0.8316  0.7836
   21SAPC  C314 2813   3.762   4.187   8.669  0.0914 -0.1072  0.3261
   21SAPC  H14X 2814   3.725   4.090   8.711 -0.5884 -0.5684 -1.2461
   21SAPC  H14Y 2815   3.852   4.168   8.607  0.7816 -0.0704  1.2970
   21SAPC  C315 2816   3.664   4.231   8.561  0.3028  0.2027 -0.1069
   21SAPC  H15X 2817   3.564   4.246   8.608  0.8996  1.1241  0.8970
   21SAPC  H15Y 2818   3.652   4.152   8.484  0.7450  1.2030 -1.2414
   21SAPC  C316 2819   3.703   4.361   8.492 -0.2698 -0.0508  0.3461
   21SAPC  H16X 2820   3.813   4.342   8.489 -0.0078  1.2168  1.1816
   21SAPC  H16Y 2821   3.688   4.453   8.552 -0.1952  0.6914 -0.7581
   21SAPC  C317 2822   3.650   4.389   8.346 -0.0197 -0.0744  0.5108
   21SAPC  H17X 2823   3.542   4.366   8.334  0.2239 -0.7191 -0.5318
   21SAPC  H17Y 2824   3.704   4.320   8.278 -0.7220  0.8233 -1.0121
   21SAPC  C318 2825   3.662   4.531   8.299  0.7130  0.3234 -0.0587
   21SAPC  H18X 2826   3.769   4.561   8.298  1.0209 -0.7378  0.2953
   21SAPC  H18Y 2827   3.606   4.602   8.364 -1.0062 -1.9358  1.0813
   21SAPC  H18Z 2828   3.617   4.542   8.198  1.7848 -1.8975 -0.8208
   22SAPC     N 2829   0.062   0.015  10.888  0.0663 -0.1720 -0.2538
   22SAPC   C12 2830  -0.056   0.006  10.979 -0.2147  0.3658 -0.0488
   22SAPC  H12A 2831  -0.050   0.054  11.076 -0.9103  0.6081 -0.1150
   22SAPC  H12B 2832  -0.055  -0.096  11.015  3.1244  0.4347  0.3343
   22SAPC   C13 2833   0.074   0.155  10.832  0.1452  0.4309 -0.9506
   22SAPC  H13A 2834   0.153   0.152  10.759 -0.2809 -2.4281 -1.3912
   22SAPC  H13B 2835  -0.018   0.183  10.782 -0.5223  1.3522  0.6934
   22SAPC  H13C 2836   0.090   0.229  10.910  0.2939 -0.3400 -0.2308
   22SAPC   C14 2837   0.190  -0.028  10.956  1.1294  0.0245  0.1819
   22SAPC  H14A 2838   0.279  -0.006  10.899  1.6417 -3.3376 -0.5631
   22SAPC  H14B 2839   0.194   0.025  11.049  0.5067  0.8919 -0.2796
   22SAPC  H14C 2840   0.183  -0.134  10.979  1.6726 -0.5416 -1.9485
   22SAPC   C15 2841   0.053  -0.085  10.772  0.1446  0.6112 -0.7331
   22SAPC  H15A 2842   0.136  -0.056  10.709  1.4924  1.2497  1.2482
   22SAPC  H15B 2843   0.058  -0.182  10.818  1.3657  1.1039  0.2173
   22SAPC  H15C 2844  -0.035  -0.071  10.710  1.0405  1.7305 -1.8040
   22SAPC   C11 2845  -0.196   0.045  10.928 -0.2900  0.6508  0.3375
   22SAPC  H11A 2846  -0.192   0.156  10.916 -0.8497  0.7180  0.7201
   22SAPC  H11B 2847  -0.272   0.023  11.006  1.9113 -2.9184  1.7248
   22SAPC     P 2848  -0.293   0.043  10.693 -0.2646 -0.3739  0.0052
   22SAPC   O13 2849  -0.238  -0.015  10.571 -0.0621 -0.1122  0.1920
   22SAPC   O14 2850  -0.443   0.030  10.713  0.0375  0.1385 -0.1539
   22SAPC   O12 2851  -0.218  -0.029  10.813 -0.1160  0.5191 -0.0007
   22SAPC   O11 2852  -0.248   0.200  10.695 -0.6420 -0.0387  0.4436
   22SAPC    C1 2853  -0.161   0.255  10.593  0.9568 -0.0295  0.2050
   22SAPC    HA 2854  -0.139   0.361  10.622  0.0262  0.5701 -1.1753
   22SAPC    HB 2855  -0.067   0.199  10.580  1.6108  1.2307 -0.7125
   22SAPC    C2 2856  -0.233   0.282  10.458 -0.3865  0.1288  1.1003
   22SAPC    HS 2857  -0.181   0.364  10.404 -1.0130 -1.4083 -2.0427
   22SAPC   O21 2858  -0.368   0.312  10.472  0.8582  0.0277  0.3382
   22SAPC   C21 2859  -0.399   0.429  10.527  0.0639 -0.0285 -0.0507
   22SAPC   O22 2860  -0.321   0.521  10.554 -0.0033  0.6409 -0.1590
   22SAPC   C22 2861  -0.550   0.424  10.558 -0.3362 -0.3307  0.4448
   22SAPC   H2R 2862  -0.590   0.337  10.503  0.6403 -0.5727  0.1013
   22SAPC   H2S 2863  -0.558   0.412  10.668  1.9227 -1.1384  0.5745
   22SAPC    C3 2864  -0.209   0.169  10.351 -0.7230  0.0417 -0.4278
   22SAPC    HX 2865  -0.290   0.093  10.358  0.1625 -0.8442  0.9378
   22SAPC    HY 2866  -0.113   0.121  10.379 -0.1975 -0.5269 -2.9782
   22SAPC   O31 2867  -0.213   0.220  10.218 -0.2769 -0.0198  0.4637
   22SAPC   C31 2868  -0.135   0.162  10.131 -0.2103 -0.1584 -0.0522
   22SAPC   O32 2869  -0.036   0.089  10.154 -0.0347  0.0752 -0.3850
   22SAPC   C32 2870  -0.171   0.212   9.989 -0.6710  0.2483  0.7007
   22SAPC   H2X 2871  -0.152   0.322   9.986 -0.8706  0.2626 -1.2301
   22SAPC   H2Y 2872  -0.281   0.203   9.975 -0.2756 -0.6669 -2.6691
   22SAPC   C23 2873  -0.617   0.553  10.511  0.4920  0.6347  0.2672
   22SAPC   H3R 2874  -0.588   0.636  10.579 -0.8347  0.9795  0.4359
   22SAPC   H3S 2875  -0.726   0.542  10.530  0.9925 -3.0980  1.8622
   22SAPC   C24 2876  -0.589   0.582  10.356  0.5647 -0.0486 -0.1305
   22SAPC   H4R 2877  -0.481   0.571  10.337  0.7623 -0.1261  0.9838
   22SAPC   H4S 2878  -0.610   0.691  10.343 -0.9037 -0.3256 -0.2550
   22SAPC   C25 2879  -0.677   0.507  10.259  0.1816  0.3577  0.0636
   22SAPC   H5R 2880  -0.783   0.531  10.275  0.0643 -0.2212  0.1985
   22SAPC   C26 2881  -0.638   0.416  10.162  0.2771  0.1612 -0.0044
   22SAPC   H6R 2882  -0.717   0.384  10.093 -0.2050 -0.3562  0.7816
   22SAPC   C27 2883  -0.499   0.366  10.118  0.3546  0.7700 -0.0381
   22SAPC   H7R 2884  -0.510   0.264  10.074  1.6808 -0.5113  2.3249
   22SAPC   H7S 2885  -0.436   0.353  10.209  0.6791 -0.5467 -0.4317
   22SAPC   C28 2886  -0.424   0.463  10.029  0.0699  0.1115 -0.5441
   22SAPC   H8R 2887  -0.349   0.522  10.084 -1.7229  0.7763  1.3439
   22SAPC   C29 2888  -0.442   0.484   9.906 -0.4970  0.3153  0.9126
   22SAPC   H9R 2889  -0.384   0.552   9.843 -0.3532 -1.5730 -1.1123
   22SAPC  C210 2890  -0.540   0.416   9.816 -0.2113  0.2189  0.1565
   22SAPC  H10R 2891  -0.592   0.335   9.873 -0.7491  0.0504 -0.5585
   22SAPC  H10S 2892  -0.490   0.368   9.730  0.7660 -0.1797  0.9228
   22SAPC  C211 2893  -0.649   0.509   9.775  0.3123  0.1601 -0.0956
   22SAPC  H11R 2894  -0.699   0.549   9.865 -0.8596 -1.3824 -0.0279
   22SAPC  C212 2895  -0.703   0.536   9.655 -0.1438 -0.2607 -0.3943
   22SAPC  H12R 2896  -0.794   0.597   9.655 -0.8892 -1.3017 -1.8306
   22SAPC  C213 2897  -0.674   0.475   9.520  0.5422 -0.1272  0.2847
   22SAPC  H13R 2898  -0.757   0.405   9.498 -2.2519  3.0420 -0.1057
   22SAPC  H13S 2899  -0.583   0.411   9.519  0.2454 -0.5725 -1.3508
   22SAPC  C214 2900  -0.679   0.579   9.410  0.0940 -0.0648  0.4116
   22SAPC  H14R 2901  -0.668   0.686   9.436  2.1551  0.1287 -0.9879
   22SAPC  C215 2902  -0.679   0.551   9.279  0.1316  0.0235 -0.9159
   22SAPC  H15R 2903  -0.691   0.633   9.207  0.1357  1.3098  0.4857
   22SAPC  C216 2904  -0.681   0.409   9.214  0.5157 -0.6185 -0.0260
   22SAPC  H16R 2905  -0.782   0.397   9.167  0.1446 -0.1555  0.6443
   22SAPC  H16S 2906  -0.657   0.323   9.280 -2.1696  0.0901  2.0572
   22SAPC  C217 2907  -0.596   0.400   9.083  0.9919  0.3259 -0.1631
   22SAPC  H17R 2908  -0.598   0.300   9.034 -0.9575 -0.5620  1.5624
   22SAPC  H17S 2909  -0.489   0.405   9.113  0.4146 -0.8979  2.4512
   22SAPC  C218 2910  -0.635   0.501   8.976  0.0112  0.2774 -0.5898
   22SAPC  H18R 2911  -0.608   0.603   9.009 -1.2223  0.0312  1.3255
   22SAPC  H18S 2912  -0.746   0.501   8.972 -0.0839 -1.2264  0.6982
   22SAPC  C219 2913  -0.566   0.479   8.834 -0.1127 -0.1277 -1.3265
   22SAPC  H19R 2914  -0.459   0.456   8.854  0.3240  1.1345 -2.0815
   22SAPC  H19S 2915  -0.558   0.573   8.776  3.1756 -0.3280 -1.3738
   22SAPC  C220 2916  -0.637   0.378   8.751  0.3052 -0.0157 -0.3864
   22SAPC  H20R 2917  -0.743   0.410   8.740  0.9121  1.8325 -1.1838
   22SAPC  H20S 2918  -0.646   0.282   8.806 -4.5299  1.8246  2.7548
   22SAPC  H20T 2919  -0.596   0.364   8.649  1.3643  1.1796 -0.1496
   22SAPC   C33 2920  -0.105   0.146   9.869  0.0483  0.7449 -0.2222
   22SAPC   H3X 2921  -0.147   0.045   9.852  1.3679  0.4324 -1.8674
   22SAPC   H3Y 2922   0.003   0.125   9.880  0.0090  0.7656  0.2417
   22SAPC   C34 2923  -0.141   0.216   9.742  0.5595 -0.0668 -0.2732
   22SAPC   H4X 2924  -0.070   0.302   9.737 -0.7749  1.2520  1.8468
   22SAPC   H4Y 2925  -0.243   0.259   9.748  1.1672  1.3603  0.2049
   22SAPC   C35 2926  -0.129   0.127   9.618  0.0797 -0.1799 -0.3161
   22SAPC   H5X 2927  -0.204   0.045   9.617 -0.9408  0.7236 -0.8451
   22SAPC   H5Y 2928  -0.028   0.082   9.612  0.4607  0.8735 -3.3139
   22SAPC   C36 2929  -0.132   0.203   9.494  0.0646  0.2132  0.9269
   22SAPC   H6X 2930  -0.147   0.134   9.409 -1.7033  3.1756 -1.3786
   22SAPC   H6Y 2931  -0.043   0.269   9.492  0.1132  0.1911  1.8669
   22SAPC   C37 2932  -0.257   0.290   9.484 -0.1620 -0.1362 -0.1084
   22SAPC   H7X 2933  -0.255   0.367   9.563 -0.8780  0.1814 -0.3940
   22SAPC   H7Y 2934  -0.346   0.226   9.503 -0.3900  0.1099 -0.3452
   22SAPC   C38 2935  -0.273   0.348   9.341  0.3939 -0.3777  0.4994
   22SAPC   H8X 2936  -0.374   0.392   9.329  0.7580  0.0136 -1.3967
   22SAPC   H8Y 2937  -0.283   0.273   9.259 -1.3237  0.8309 -0.4533
   22SAPC   C39 2938  -0.170   0.445   9.299 -0.7914 -0.7847  0.8010
   22SAPC   H9X 2939  -0.074   0.390   9.297  0.0605  0.6559 -0.2739
   22SAPC   H9Y 2940  -0.153   0.539   9.357 -0.6924 -1.5141  1.9867
   22SAPC  C310 2941  -0.197   0.480   9.146  0.7716 -0.3058 -0.3141
   22SAPC  H10X 2942  -0.292   0.537   9.151  0.1185 -1.4823  1.8412
   22SAPC  H10Y 2943  -0.214   0.385   9.090 -0.4639  0.4250 -1.2222
   22SAPC  C311 2944  -0.081   0.559   9.085 -0.4793  0.2321 -0.2569
   22SAPC  H11X 2945   0.013   0.517   9.127 -0.0684 -1.7288 -2.8707
   22SAPC  H11Y 2946  -0.091   0.664   9.121 -1.9705  0.1459 -0.3409
   22SAPC  C312 2947  -0.085   0.546   8.933  0.3018 -0.0546  0.9222
   22SAPC  H12X 2948  -0.186   0.560   8.890  0.8746  1.4249 -0.0297
   22SAPC  H12Y 2949  -0.058   0.442   8.903  0.9536  0.5434 -0.6536
   22SAPC  C313 2950   0.009   0.652   8.864 -0.5868 -0.5835 -0.4599
   22SAPC  H13X 2951  -0.014   0.759   8.882  0.7420 -0.6364  2.1100
   22SAPC  H13Y 2952  -0.003   0.638   8.754  1.9774  1.3796 -1.0886
   22SAPC  C314 2953   0.155   0.624   8.906 -0.1876 -0.7038 -0.2818
   22SAPC  H14X 2954   0.184   0.521   8.876 -0.8490 -0.9411 -0.1089
   22SAPC  H14Y 2955   0.164   0.642   9.015 -1.8317  1.3049 -0.4040
   22SAPC  C315 2956   0.258   0.728   8.841 -0.2096  0.3710 -0.1442
   22SAPC  H15X 2957   0.238   0.825   8.892 -0.9599  0.6850 -1.0064
   22SAPC  H15Y 2958   0.220   0.747   8.738 -1.9026  2.9730  0.8446
   22SAPC  C316 2959   0.407   0.679   8.843  0.1985  0.5764 -0.4228
   22SAPC  H16X 2960   0.429   0.600   8.768 -0.0078  0.8864 -0.8155
   22SAPC  H16Y 2961   0.430   0.617   8.932  0.3262 -1.5780 -1.8794
   22SAPC  C317 2962   0.502   0.798   8.830 -0.0713  0.0474 -0.2006
   22SAPC  H17X 2963   0.474   0.873   8.907 -2.2168 -1.2626  0.3930
   22SAPC  H17Y 2964   0.484   0.847   8.732 -2.0119 -1.2585 -0.5372
   22SAPC  C318 2965   0.651   0.765   8.847 -0.7181  0.5004 -0.2217
   22SAPC  H18X 2966   0.686   0.675   8.793  0.7200  1.2254 -0.5695
   22SAPC  H18Y 2967   0.658   0.743   8.955  0.2327  1.0352 -0.1615
   22SAPC  H18Z 2968   0.710   0.856   8.820  0.5375 -0.1023  0.4160
   23SAPC     N 2969   3.467   1.312  10.477 -0.3382 -0.3381  0.0626
   23SAPC   C12 2970   3.458   1.161  10.480  0.0989 -0.1569 -0.1165
   23SAPC  H12A 2971   3.549   1.116  10.442  0.3887 -1.0452  1.5318
   23SAPC  H12B 2972   3.370   1.136  10.422 -1.4558  1.1199  1.6039
   23SAPC   C13 2973   3.505   1.346  10.337  0.3596  0.3053 -0.5438
   23SAPC  H13A 2974   3.429   1.316  10.266 -0.5490  0.9118  0.1546
   23SAPC  H13B 2975   3.521   1.452  10.321  1.3586  0.0786 -1.1699
   23SAPC  H13C 2976   3.602   1.306  10.312  1.0489 -0.3911  2.7882
   23SAPC   C14 2977   3.339   1.385  10.504  0.6270 -0.1499 -0.2765
   23SAPC  H14A 2978   3.271   1.327  10.565  1.1748 -3.0685 -2.2345
   23SAPC  H14B 2979   3.343   1.488  10.535  3.1841 -0.4296  0.5906
   23SAPC  H14C 2980   3.278   1.387  10.415  1.9164  0.7913 -1.1698
   23SAPC   C15 2981   3.577   1.370  10.565 -0.2224  0.4830  1.2201
   23SAPC  H15A 2982   3.668   1.316  10.547 -0.8744 -0.3735  0.3803
   23SAPC  H15B 2983   3.601   1.474  10.549 -0.8814  0.7421  1.8475
   23SAPC  H15C 2984   3.563   1.351  10.670  0.8618 -2.8390  0.8534
   23SAPC   C11 2985   3.432   1.092  10.620  0.0052 -0.1578 -0.4869
   23SAPC  H11A 2986   3.403   0.986  10.603  1.2924 -0.5265 -0.5426
   23SAPC  H11B 2987   3.339   1.131  10.665 -0.9089 -1.2740 -1.3463
   23SAPC     P 2988   3.678   1.021  10.667  0.4932 -0.2087  0.5839
   23SAPC   O13 2989   3.785   1.117  10.690  0.0177  0.0775 -0.4381
   23SAPC   O14 2990   3.672   0.892  10.740 -0.3734  0.0198  0.7887
   23SAPC   O12 2991   3.543   1.093  10.706 -0.1971 -0.5137  0.1299
   23SAPC   O11 2992   3.669   0.988  10.516  0.4980  0.1129 -0.0893
   23SAPC    C1 2993   3.758   1.038  10.413  0.7607 -0.2615 -0.0303
   23SAPC    HA 2994   3.698   1.097  10.341 -1.8716 -2.4098  0.2534
   23SAPC    HB 2995   3.830   1.108  10.462  0.3666 -1.5155  2.5023
   23SAPC    C2 2996   3.839   0.932  10.335  0.3051  0.6332 -0.0271
   23SAPC    HS 2997   3.901   0.970  10.250  2.9974 -0.9641  1.0875
   23SAPC   O21 2998   3.734   0.843  10.281 -0.1727 -0.7921  0.5966
   23SAPC   C21 2999   3.681   0.890  10.173 -0.2368 -0.4217 -0.8535
   23SAPC   O22 3000   3.679   1.007  10.139 -0.3725 -0.4094 -0.3363
   23SAPC   C22 3001   3.617   0.780  10.084 -0.9441 -0.3200  0.2119
   23SAPC   H2R 3002   3.689   0.696  10.079  0.9989  1.3441 -1.1330
   23SAPC   H2S 3003   3.528   0.743  10.140 -1.2089  0.8788  0.6173
   23SAPC    C3 3004   3.938   0.855  10.432  0.7441 -0.0863 -0.5081
   23SAPC    HX 3005   3.986   0.775  10.372 -1.5943  0.2803 -3.0722
   23SAPC    HY 3006   3.869   0.802  10.501 -0.9868 -0.8473 -2.6792
   23SAPC   O31 3007   4.028   0.928  10.510 -0.6158 -0.4722  0.2679
   23SAPC   C31 3008   4.150   0.941  10.447 -0.3706 -0.6302 -0.0902
   23SAPC   O32 3009   4.199   0.878  10.357  0.2411  0.1755 -0.0118
   23SAPC   C32 3010   4.229   1.051  10.517 -0.2655 -0.3297 -0.0330
   23SAPC   H2X 3011   4.275   1.013  10.611  0.9403 -1.9504 -1.2048
   23SAPC   H2Y 3012   4.157   1.133  10.537  1.0682  1.1507 -1.0827
   23SAPC   C23 3013   3.591   0.827   9.946 -0.2661  0.2673  0.1271
   23SAPC   H3R 3014   3.674   0.889   9.906  0.3501  0.8650  2.2030
   23SAPC   H3S 3015   3.503   0.894   9.961 -0.8909 -0.3365 -0.7552
   23SAPC   C24 3016   3.569   0.724   9.838  0.0192  0.7108 -0.4212
   23SAPC   H4R 3017   3.526   0.787   9.757 -1.2082  0.6386  0.1530
   23SAPC   H4S 3018   3.495   0.648   9.872  1.8702  0.0645  2.5636
   23SAPC   C25 3019   3.692   0.639   9.794 -0.2838 -0.4213  0.3099
   23SAPC   H5R 3020   3.756   0.610   9.879  0.1463  0.2404  0.2203
   23SAPC   C26 3021   3.728   0.617   9.667  0.2403 -0.0318  0.2634
   23SAPC   H6R 3022   3.818   0.555   9.655  2.0482  2.6158 -0.7956
   23SAPC   C27 3023   3.667   0.660   9.539  0.5125  0.9663 -0.2799
   23SAPC   H7R 3024   3.565   0.618   9.530  1.8908 -2.4260 -1.7551
   23SAPC   H7S 3025   3.728   0.609   9.462  2.3188 -1.1893  2.3831
   23SAPC   C28 3026   3.671   0.809   9.511 -0.6034 -0.0192  0.1922
   23SAPC   H8R 3027   3.696   0.876   9.595 -0.2054  0.0587  0.0140
   23SAPC   C29 3028   3.654   0.861   9.390  0.4455 -0.2689  0.0640
   23SAPC   H9R 3029   3.644   0.970   9.386  2.0020 -0.1296 -0.7747
   23SAPC  C210 3030   3.614   0.791   9.266  0.9154 -0.4180 -0.0945
   23SAPC  H10R 3031   3.536   0.853   9.218  0.2130 -0.9327  0.3520
   23SAPC  H10S 3032   3.558   0.700   9.295 -2.1504  1.3406 -0.1488
   23SAPC  C211 3033   3.727   0.781   9.163  0.0338 -1.3989 -0.1814
   23SAPC  H11R 3034   3.753   0.881   9.126  0.0852 -1.8645 -1.4627
   23SAPC  C212 3035   3.770   0.671   9.104 -0.2430  0.4826 -0.1842
   23SAPC  H12R 3036   3.839   0.688   9.019 -1.1597  0.5218 -0.9332
   23SAPC  C213 3037   3.744   0.524   9.125 -0.3972 -0.6376  0.2506
   23SAPC  H13R 3038   3.656   0.493   9.065  1.2327  0.3343 -2.8792
   23SAPC  H13S 3039   3.719   0.512   9.233  2.6912 -0.1366  1.1282
   23SAPC  C214 3040   3.862   0.429   9.104  0.3158  0.5631 -0.2073
   23SAPC  H14R 3041   3.953   0.439   9.165  0.2528  2.0654 -0.3321
   23SAPC  C215 3042   3.870   0.330   9.009  0.6024  0.4548  0.5492
   23SAPC  H15R 3043   3.968   0.289   8.981 -0.9814 -1.9426 -2.0648
   23SAPC  C216 3044   3.753   0.278   8.914 -0.2649 -0.0429 -0.5876
   23SAPC  H16R 3045   3.671   0.353   8.904 -1.1514 -0.3108  3.1213
   23SAPC  H16S 3046   3.705   0.181   8.935  1.7242 -1.1675 -0.9622
   23SAPC  C217 3047   3.807   0.262   8.773  0.0056 -0.2241  0.1974
   23SAPC  H17R 3048   3.898   0.199   8.775  1.6419  1.9380 -1.2432
   23SAPC  H17S 3049   3.838   0.361   8.733  0.1002 -0.2901  0.1081
   23SAPC  C218 3050   3.708   0.206   8.674  0.2098  0.4541 -0.5826
   23SAPC  H18R 3051   3.610   0.259   8.675  0.2414  0.5656  1.6242
   23SAPC  H18S 3052   3.688   0.100   8.703  1.1485  0.1182 -1.1244
   23SAPC  C219 3053   3.764   0.204   8.532 -0.0636 -0.2756 -0.9090
   23SAPC  H19R 3054   3.800   0.306   8.505 -2.0887  0.4934 -0.9313
   23SAPC  H19S 3055   3.683   0.181   8.460  0.0108 -1.8842 -0.5209
   23SAPC  C220 3056   3.869   0.108   8.504 -0.7936  1.7360 -0.4303
   23SAPC  H20R 3057   3.913   0.128   8.404  0.8280  0.7923  0.0618
   23SAPC  H20S 3058   3.823   0.008   8.490  1.2409  1.0658 -2.9539
   23SAPC  H20T 3059   3.952   0.098   8.578 -1.9417 -1.8715  0.5503
   23SAPC   C33 3060   4.338   1.109  10.420  0.0600  0.4561  1.1763
   23SAPC   H3X 3061   4.393   1.024  10.374  0.1285  0.4770  1.2214
   23SAPC   H3Y 3062   4.413   1.165  10.478  2.3733 -0.6583 -0.5610
   23SAPC   C34 3063   4.280   1.204  10.312  0.1320 -0.0374 -0.0197
   23SAPC   H4X 3064   4.256   1.299  10.364 -0.4923 -0.7879  1.0895
   23SAPC   H4Y 3065   4.184   1.159  10.277  1.2306 -1.5283 -1.2624
   23SAPC   C35 3066   4.377   1.217  10.192 -0.2597  0.4391 -0.0461
   23SAPC   H5X 3067   4.410   1.115  10.164 -0.1770  1.0359 -2.4050
   23SAPC   H5Y 3068   4.465   1.275  10.226 -1.3516  1.3970  1.2561
   23SAPC   C36 3069   4.322   1.291  10.065  0.1165 -0.3013  0.1686
   23SAPC   H6X 3070   4.340   1.400  10.064 -0.3201 -0.2159 -1.3165
   23SAPC   H6Y 3071   4.214   1.270  10.049  0.6055 -1.0295 -2.8825
   23SAPC   C37 3072   4.395   1.242   9.940  0.2423  0.3692 -0.7789
   23SAPC   H7X 3073   4.406   1.132   9.947  3.6023  0.5917 -0.9773
   23SAPC   H7Y 3074   4.496   1.289   9.945  0.5515 -0.4096  1.0460
   23SAPC   C38 3075   4.323   1.275   9.810  1.4939 -0.0313 -0.5733
   23SAPC   H8X 3076   4.250   1.352   9.841  0.1058 -1.0546 -1.1778
   23SAPC   H8Y 3077   4.266   1.185   9.780 -2.5677  1.6181  1.4723
   23SAPC   C39 3078   4.412   1.328   9.696  0.0940 -0.4597 -0.1179
   23SAPC   H9X 3079   4.496   1.255   9.687  0.4002 -0.4162  1.7903
   23SAPC   H9Y 3080   4.449   1.429   9.722 -0.3019 -0.1416 -0.7722
   23SAPC  C310 3081   4.342   1.339   9.561  0.4508 -0.3535 -0.0460
   23SAPC  H10X 3082   4.255   1.407   9.569  0.5935 -0.2702  0.8381
   23SAPC  H10Y 3083   4.307   1.237   9.531 -0.5610 -0.5318  1.6157
   23SAPC  C311 3084   4.437   1.401   9.450  0.3117 -0.1138 -0.5417
   23SAPC  H11X 3085   4.522   1.330   9.462 -1.0945 -1.4819  2.4492
   23SAPC  H11Y 3086   4.470   1.501   9.486 -1.7574  0.7841 -0.9761
   23SAPC  C312 3087   4.394   1.405   9.308 -0.3450  0.0657  0.5771
   23SAPC  H12X 3088   4.284   1.420   9.320 -0.1635  0.1044  2.4101
   23SAPC  H12Y 3089   4.424   1.311   9.256 -0.0028  1.3134 -1.5685
   23SAPC  C313 3090   4.454   1.520   9.220 -0.3164  0.5568 -0.2970
   23SAPC  H13X 3091   4.561   1.492   9.211  0.0982  1.8044  0.4444
   23SAPC  H13Y 3092   4.441   1.620   9.266  1.2823  0.4136  0.5369
   23SAPC  C314 3093   4.403   1.533   9.075  0.3940  0.0567 -0.7247
   23SAPC  H14X 3094   4.294   1.523   9.093  0.4309  1.3872  0.4076
   23SAPC  H14Y 3095   4.443   1.450   9.013 -0.8441  1.5825 -3.7632
   23SAPC  C315 3096   4.448   1.663   9.001 -0.0533 -0.0072  0.4955
   23SAPC  H15X 3097   4.557   1.682   8.999 -0.1092  0.2874  0.0280
   23SAPC  H15Y 3098   4.397   1.744   9.056  2.8648  2.9958 -0.8852
   23SAPC  C316 3099   4.408   1.664   8.856 -0.2025 -0.2734  0.7372
   23SAPC  H16X 3100   4.300   1.685   8.844 -0.4049 -0.3617  2.2074
   23SAPC  H16Y 3101   4.410   1.571   8.795 -0.3188  1.2519 -1.7288
   23SAPC  C317 3102   4.484   1.760   8.757  0.0357  0.1085  0.3305
   23SAPC  H17X 3103   4.588   1.723   8.751 -0.3073 -0.8311  0.0568
   23SAPC  H17Y 3104   4.495   1.862   8.800 -2.3705 -0.5843  2.9473
   23SAPC  C318 3105   4.428   1.774   8.619 -0.2403 -0.2017  0.5317
   23SAPC  H18X 3106   4.473   1.695   8.555 -1.2199 -1.4385  1.3061
   23SAPC  H18Y 3107   4.448   1.873   8.574  0.5856 -1.2784 -1.5723
   23SAPC  H18Z 3108   4.318   1.761   8.623 -0.0503 -2.5516 -0.2634
   24SAPC     N 3109   6.219   3.333  11.029  0.7616  0.1784 -0.1586
   24SAPC   C12 3110   6.131   3.215  10.972  0.4475 -0.5382  0.5540
   24SAPC  H12A 3111   6.080   3.158  11.048 -2.3044 -0.2263 -0.9320
   24SAPC  H12B 3112   6.190   3.145  10.915 -1.2869 -1.2974 -0.4016
   24SAPC   C13 3113   6.130   3.421  11.116  0.1670 -0.7260  0.2909
   24SAPC  H13A 3114   6.192   3.500  11.156 -0.2685  1.9263 -3.7672
   24SAPC  H13B 3115   6.050   3.462  11.057  1.0362  0.2128 -0.2772
   24SAPC  H13C 3116   6.084   3.376  11.203 -2.1276  0.0249 -0.4650
   24SAPC   C14 3117   6.327   3.269  11.112  0.0174 -0.1715  0.0848
   24SAPC  H14A 3118   6.389   3.343  11.161  1.0062 -0.1659 -1.1273
   24SAPC  H14B 3119   6.282   3.202  11.183 -1.2704  0.7985  0.2211
   24SAPC  H14C 3120   6.391   3.201  11.057 -0.9626  0.2913 -1.7315
   24SAPC   C15 3121   6.281   3.412  10.923  0.6899  0.1130 -0.5221
   24SAPC  H15A 3122   6.290   3.354  10.833  0.8524 -0.3062 -0.2398
   24SAPC  H15B 3123   6.219   3.495  10.894  2.1910  1.4062 -0.1750
   24SAPC  H15C 3124   6.378   3.454  10.948  1.1283  0.1445 -2.1619
   24SAPC   C11 3125   6.007   3.255  10.881  0.0803 -0.2757 -0.5699
   24SAPC  H11A 3126   6.035   3.332  10.806 -0.2308 -0.4003 -0.8160
   24SAPC  H11B 3127   5.928   3.288  10.952  0.8219  0.6629 -0.1608
   24SAPC     P 3128   6.035   3.065  10.700  0.2037 -0.3513  0.3196
   24SAPC   O13 3129   6.163   3.021  10.762  0.2412 -0.4228  0.1935
   24SAPC   O14 3130   5.951   2.966  10.634  0.0397 -0.3768  0.3862
   24SAPC   O12 3131   5.963   3.136  10.815  1.1311  0.2194 -0.6096
   24SAPC   O11 3132   6.060   3.185  10.598 -0.5887  0.7610 -0.3987
   24SAPC    C1 3133   5.947   3.263  10.555  0.8871  0.4030  0.2171
   24SAPC    HA 3134   5.849   3.218  10.580  0.7481 -0.9624 -2.4190
   24SAPC    HB 3135   5.953   3.364  10.602  0.3831  0.5779 -0.0840
   24SAPC    C2 3136   5.954   3.284  10.402 -0.4397  0.4937 -0.8233
   24SAPC    HS 3137   5.865   3.343  10.372 -0.9960 -0.9973 -2.1791
   24SAPC   O21 3138   5.963   3.151  10.340  0.3312 -0.3506 -0.3802
   24SAPC   C21 3139   5.847   3.092  10.314 -0.7724 -0.1538  0.7514
   24SAPC   O22 3140   5.737   3.131  10.341  0.0114 -1.0171 -0.7425
   24SAPC   C22 3141   5.877   2.971  10.224  0.6177 -0.6548 -0.3482
   24SAPC   H2R 3142   5.984   2.972  10.194  0.1607 -0.5417 -2.0652
   24SAPC   H2S 3143   5.849   2.876  10.275 -0.6645  0.3109  0.7952
   24SAPC    C3 3144   6.081   3.356  10.367  0.2729 -0.4786  0.3336
   24SAPC    HX 3145   6.170   3.300  10.403  1.6974 -0.5399 -2.9318
   24SAPC    HY 3146   6.094   3.450  10.424  0.9971 -0.4179  0.0859
   24SAPC   O31 3147   6.102   3.371  10.225  0.0534  0.0899  0.0418
   24SAPC   C31 3148   6.030   3.470  10.165  0.3956 -0.4370 -0.8207
   24SAPC   O32 3149   5.961   3.545  10.232 -0.4307 -0.5350  0.5717
   24SAPC   C32 3150   6.054   3.469  10.014  0.3726  0.2060  0.6463
   24SAPC   H2X 3151   6.074   3.368   9.973 -0.9727  0.3876 -0.5614
   24SAPC   H2Y 3152   6.143   3.536  10.009  1.2198 -0.8600  1.2563
   24SAPC   C23 3153   5.793   2.995  10.099  1.3530 -0.3634  0.9859
   24SAPC   H3R 3154   5.686   3.002  10.129  1.7473 -1.5161  2.7415
   24SAPC   H3S 3155   5.798   2.906  10.033 -1.9188  0.4853 -0.6686
   24SAPC   C24 3156   5.829   3.125  10.023  0.6246  0.0577  0.5199
   24SAPC   H4R 3157   5.940   3.119  10.010  0.4065  0.2559 -1.9837
   24SAPC   H4S 3158   5.817   3.215  10.087  1.6003 -1.4868  3.0184
   24SAPC   C25 3159   5.759   3.126   9.893 -0.5885  0.4893  1.1065
   24SAPC   H5R 3160   5.657   3.166   9.885 -0.6537  0.3559  1.2772
   24SAPC   C26 3161   5.803   3.064   9.782  0.0832 -0.7078  0.4675
   24SAPC   H6R 3162   5.739   3.069   9.693 -2.4809 -0.0199  2.2423
   24SAPC   C27 3163   5.935   2.990   9.761  0.5799  0.7291 -0.0209
   24SAPC   H7R 3164   5.999   2.986   9.852 -1.1884 -1.7710  1.2167
   24SAPC   H7S 3165   5.993   3.033   9.677  1.2281  2.6859  1.3399
   24SAPC   C28 3166   5.901   2.845   9.740  0.7475 -0.1284 -0.3141
   24SAPC   H8R 3167   5.851   2.800   9.827  2.0913  0.5746  0.8686
   24SAPC   C29 3168   5.938   2.762   9.636 -0.1197 -0.6324 -0.0671
   24SAPC   H9R 3169   5.898   2.659   9.637  0.0616 -0.7419  2.6943
   24SAPC  C210 3170   6.007   2.802   9.509  0.2689  0.0542  0.2416
   24SAPC  H10R 3171   6.096   2.865   9.532  0.5211 -0.3377  0.3496
   24SAPC  H10S 3172   5.938   2.859   9.443 -0.7730 -2.2865 -0.7971
   24SAPC  C211 3173   6.060   2.689   9.416  0.1714 -0.2851 -0.5153
   24SAPC  H11R 3174   5.981   2.671   9.342  0.9699 -3.4006 -0.7381
   24SAPC  C212 3175   6.183   2.626   9.411  0.2490 -0.1305 -0.0416
   24SAPC  H12R 3176   6.194   2.546   9.337 -1.8117 -2.2884  1.8061
   24SAPC  C213 3177   6.296   2.644   9.513 -0.8583  0.1075 -0.0562
   24SAPC  H13R 3178   6.310   2.753   9.529 -0.6414  0.1121 -0.2730
   24SAPC  H13S 3179   6.393   2.614   9.468 -0.6351  1.9169 -0.8856
   24SAPC  C214 3180   6.267   2.561   9.639  0.3906  0.6418 -0.2390
   24SAPC  H14R 3181   6.256   2.458   9.604  0.2239  1.3728 -2.4913
   24SAPC  C215 3182   6.266   2.593   9.772 -0.3150  0.3198  0.1650
   24SAPC  H15R 3183   6.258   2.516   9.851 -0.8621  0.4294  0.2236
   24SAPC  C216 3184   6.289   2.724   9.833 -0.3680 -0.5363  0.0770
   24SAPC  H16R 3185   6.188   2.750   9.872 -0.2338  1.2882 -0.6995
   24SAPC  H16S 3186   6.309   2.803   9.757  1.3221 -0.7363  0.2786
   24SAPC  C217 3187   6.404   2.731   9.946 -0.0897 -0.1103  0.6025
   24SAPC  H17R 3188   6.393   2.830   9.997  3.4417  0.6246  0.2193
   24SAPC  H17S 3189   6.506   2.720   9.903  0.3572  0.0650  1.5788
   24SAPC  C218 3190   6.379   2.623  10.051  0.0902 -0.1071  0.7172
   24SAPC  H18R 3191   6.406   2.524  10.008  1.3114  0.7178 -0.4892
   24SAPC  H18S 3192   6.271   2.616  10.075  0.1221 -1.1707  0.6133
   24SAPC  C219 3193   6.458   2.634  10.173 -0.7937  0.0669 -0.0258
   24SAPC  H19R 3194   6.415   2.572  10.255 -0.2960 -2.2368 -1.4480
   24SAPC  H19S 3195   6.444   2.734  10.219 -1.4981 -0.8053  1.7686
   24SAPC  C220 3196   6.603   2.606  10.172  0.1258  0.8097 -0.0349
   24SAPC  H20R 3197   6.647   2.673  10.249 -3.0123  2.2169  0.6957
   24SAPC  H20S 3198   6.629   2.617  10.064 -2.0898  0.6125 -0.6503
   24SAPC  H20T 3199   6.606   2.499  10.201 -2.2052 -0.2880 -3.2885
   24SAPC   C33 3200   5.929   3.526   9.934 -0.1033 -0.0191 -0.0605
   24SAPC   H3X 3201   5.910   3.624   9.983 -0.7769  0.2223 -0.7833
   24SAPC   H3Y 3202   5.838   3.462   9.936  0.3154 -0.8129 -2.8328
   24SAPC   C34 3203   5.955   3.538   9.787 -0.1862 -0.8700  0.4655
   24SAPC   H4X 3204   6.048   3.593   9.762 -0.2908 -0.7713  0.2847
   24SAPC   H4Y 3205   5.880   3.607   9.743 -0.2511 -0.1662  1.6452
   24SAPC   C35 3206   5.951   3.405   9.710 -0.0226 -0.8359 -0.2275
   24SAPC   H5X 3207   5.850   3.358   9.716  1.2502 -3.7326 -0.0346
   24SAPC   H5Y 3208   6.022   3.336   9.759 -0.9311 -1.3672  0.3726
   24SAPC   C36 3209   5.979   3.424   9.562 -0.2229  0.1222 -0.2895
   24SAPC   H6X 3210   6.090   3.437   9.557 -0.2213  0.0741 -0.3697
   24SAPC   H6Y 3211   5.928   3.517   9.530  0.6598  0.1377 -1.7319
   24SAPC   C37 3212   5.936   3.306   9.465 -0.2986  0.6059  0.7271
   24SAPC   H7X 3213   5.835   3.331   9.427  0.4872  1.0461 -1.1773
   24SAPC   H7Y 3214   5.936   3.209   9.519 -2.4102  1.9780  3.4338
   24SAPC   C38 3215   6.034   3.297   9.341 -0.0183 -0.1429 -0.5847
   24SAPC   H8X 3216   6.132   3.271   9.386 -0.2859 -1.0608 -0.5248
   24SAPC   H8Y 3217   6.035   3.402   9.303 -2.3668  0.1119 -0.1212
   24SAPC   C39 3218   5.979   3.203   9.228  0.0855  0.6770 -0.1484
   24SAPC   H9X 3219   5.878   3.241   9.203 -0.7915 -1.1488  0.4568
   24SAPC   H9Y 3220   5.961   3.102   9.270  1.1802 -0.4457 -2.1823
   24SAPC  C310 3221   6.068   3.188   9.106  0.2208  0.1918  0.0291
   24SAPC  H10X 3222   6.095   3.287   9.064 -0.2529  0.2431 -0.1618
   24SAPC  H10Y 3223   6.004   3.134   9.033 -3.0960  0.7893  2.2414
   24SAPC  C311 3224   6.183   3.083   9.126 -0.2918 -0.0158  0.7377
   24SAPC  H11X 3225   6.130   2.986   9.137 -2.5505  0.6211 -2.6309
   24SAPC  H11Y 3226   6.234   3.102   9.223 -0.5740 -0.3690  0.9566
   24SAPC  C312 3227   6.288   3.077   9.006 -0.0982 -0.8103 -0.4572
   24SAPC  H12X 3228   6.240   3.110   8.911 -0.0276 -1.2059 -0.6301
   24SAPC  H12Y 3229   6.339   2.979   9.004  0.5288 -0.5032  0.2891
   24SAPC  C313 3230   6.404   3.180   9.036 -0.3850 -0.2829 -0.4834
   24SAPC  H13X 3231   6.466   3.131   9.114  0.3516 -0.5543 -1.2326
   24SAPC  H13Y 3232   6.353   3.267   9.084 -1.1739  0.0185 -1.8262
   24SAPC  C314 3233   6.480   3.217   8.913  0.1707 -0.6120 -0.3648
   24SAPC  H14X 3234   6.534   3.306   8.952 -0.4039  0.2248 -1.4119
   24SAPC  H14Y 3235   6.416   3.255   8.830  0.7366  1.3473  0.0342
   24SAPC  C315 3236   6.572   3.103   8.859  0.7056 -0.8765 -0.0389
   24SAPC  H15X 3237   6.517   3.027   8.800 -0.4029  1.6348 -2.4274
   24SAPC  H15Y 3238   6.623   3.059   8.947 -0.6264  0.4497  1.4560
   24SAPC  C316 3239   6.693   3.155   8.771  0.4237 -0.3378  0.1107
   24SAPC  H16X 3240   6.752   3.067   8.738  0.1756 -0.4682  0.0108
   24SAPC  H16Y 3241   6.758   3.229   8.821 -0.6983  0.9022 -0.2101
   24SAPC  C317 3242   6.630   3.211   8.640 -0.4786  0.1079 -0.5221
   24SAPC  H17X 3243   6.560   3.289   8.677 -1.9555 -1.3082 -0.1732
   24SAPC  H17Y 3244   6.572   3.124   8.601  0.9866 -1.4582  0.6033
   24SAPC  C318 3245   6.728   3.266   8.536  0.0705  0.3401 -0.3548
   24SAPC  H18X 3246   6.777   3.178   8.490  1.0302 -0.0681  1.4006
   24SAPC  H18Y 3247   6.796   3.337   8.588 -0.8883 -0.0389  1.4802
   24SAPC  H18Z 3248   6.662   3.311   8.458  0.4503  0.3896 -0.6496
   25SAPC     N 3249   2.841   6.179   5.845  0.0842 -0.3011 -0.7241
   25SAPC   C12 3250   2.742   6.211   5.958  0.0834  0.1751 -0.3687
   25SAPC  H12A 3251   2.668   6.133   5.954  1.7663 -1.4675 -1.6767
   25SAPC  H12B 3252   2.707   6.313   5.952 -0.8519 -0.2167 -2.4122
   25SAPC   C13 3253   2.758   6.207   5.719  0.7175 -0.6739 -0.2311
   25SAPC  H13A 3254   2.811   6.226   5.628  1.9845 -1.0010  0.4122
   25SAPC  H13B 3255   2.692   6.122   5.705 -0.7770  0.1581  1.3294
   25SAPC  H13C 3256   2.687   6.282   5.750  1.3805 -1.2082  3.0353
   25SAPC   C14 3257   2.951   6.270   5.849  0.1017  0.4286  0.0515
   25SAPC  H14A 3258   3.015   6.257   5.936 -0.9758 -0.6800  0.7009
   25SAPC  H14B 3259   3.019   6.264   5.766  1.9166  2.1326  1.2987
   25SAPC  H14C 3260   2.915   6.372   5.845 -1.5229 -0.1024  0.4050
   25SAPC   C15 3261   2.892   6.044   5.847 -0.2570  0.5255  0.0218
   25SAPC  H15A 3262   2.948   6.030   5.938  0.4034  0.2046 -0.4218
   25SAPC  H15B 3263   2.808   5.975   5.850 -0.2358  0.2910 -2.5332
   25SAPC  H15C 3264   2.954   6.009   5.765  0.0771 -0.8080  0.8109
   25SAPC   C11 3265   2.788   6.199   6.106  1.0315 -0.0981  0.2282
   25SAPC  H11A 3266   2.703   6.237   6.166  1.2140  1.0034 -0.2054
   25SAPC  H11B 3267   2.877   6.260   6.134  1.1100  0.7127 -1.6958
   25SAPC     P 3268   2.690   5.971   6.179  0.4260 -0.1016  0.3947
   25SAPC   O13 3269   2.564   6.021   6.111 -0.1245 -0.2899 -0.8177
   25SAPC   O14 3270   2.725   5.832   6.130  0.3390 -0.2596 -0.1099
   25SAPC   O12 3271   2.812   6.067   6.143  0.2998 -0.2633  0.4338
   25SAPC   O11 3272   2.669   5.979   6.330  0.2440 -0.0801  0.4263
   25SAPC    C1 3273   2.771   5.983   6.437  0.1268  0.2821  0.5534
   25SAPC    HA 3274   2.760   5.905   6.514  1.8717 -1.8438 -1.2184
   25SAPC    HB 3275   2.876   5.969   6.404  0.6406 -0.7174  2.4754
   25SAPC    C2 3276   2.773   6.122   6.496 -0.4985 -0.1646  0.7971
   25SAPC    HS 3277   2.817   6.193   6.423 -0.3488  0.7752  1.7613
   25SAPC   O21 3278   2.846   6.110   6.620  0.4488 -0.1161  0.4843
   25SAPC   C21 3279   2.921   6.216   6.662 -0.4824 -0.2288  0.0002
   25SAPC   O22 3280   2.931   6.329   6.617 -0.0526 -0.0507  0.2723
   25SAPC   C22 3281   2.991   6.162   6.787 -0.1564  0.1013  0.3751
   25SAPC   H2R 3282   2.968   6.054   6.801 -2.5070  0.1754 -2.0099
   25SAPC   H2S 3283   3.099   6.179   6.768 -0.1988  2.1952  1.6510
   25SAPC    C3 3284   2.629   6.168   6.531 -0.1365  0.2061  0.5969
   25SAPC    HX 3285   2.578   6.082   6.579  0.9547  0.4731  2.3410
   25SAPC    HY 3286   2.572   6.184   6.438  1.4758 -0.8184 -0.6152
   25SAPC   O31 3287   2.626   6.275   6.627 -0.6658  0.0225  0.2601
   25SAPC   C31 3288   2.533   6.366   6.603 -0.9162  0.0791  0.3468
   25SAPC   O32 3289   2.464   6.376   6.505  0.4544 -0.8706 -0.1097
   25SAPC   C32 3290   2.545   6.476   6.708 -0.1679  0.2199  0.2303
   25SAPC   H2X 3291   2.582   6.563   6.651 -0.2093  0.3134  0.3443
   25SAPC   H2Y 3292   2.615   6.443   6.788 -0.7332 -3.4834 -0.6280
   25SAPC   C23 3293   2.946   6.246   6.916  0.0329  0.3127 -0.4995
   25SAPC   H3R 3294   2.839   6.274   6.907 -0.3864  0.4365  3.3401
   25SAPC   H3S 3295   3.006   6.336   6.945 -1.7295  2.1575 -2.2469
   25SAPC   C24 3296   2.956   6.159   7.040  0.4724 -0.1831 -0.5954
   25SAPC   H4R 3297   3.064   6.144   7.061  0.0900 -0.5918  1.2352
   25SAPC   H4S 3298   2.916   6.056   7.027  3.2130 -1.1446 -2.2633
   25SAPC   C25 3299   2.879   6.223   7.160 -0.7250  0.0287 -0.1594
   25SAPC   H5R 3300   2.771   6.205   7.172 -0.7643  1.1746  1.4703
   25SAPC   C26 3301   2.933   6.270   7.276  0.0535 -0.1581 -0.3783
   25SAPC   H6R 3302   2.868   6.314   7.352 -1.0019  0.0432 -1.3654
   25SAPC   C27 3303   3.080   6.281   7.302 -0.2301 -0.5053  1.1352
   25SAPC   H7R 3304   3.121   6.313   7.204 -0.0797  2.1706  1.9809
   25SAPC   H7S 3305   3.118   6.180   7.327 -1.9041 -1.0707  1.5525
   25SAPC   C28 3306   3.136   6.378   7.406  0.0538  0.1639 -0.3549
   25SAPC   H8R 3307   3.198   6.455   7.357 -0.1168 -1.3387 -3.1430
   25SAPC   C29 3308   3.118   6.382   7.540  0.6420  0.7834 -0.1892
   25SAPC   H9R 3309   3.173   6.465   7.587  2.5921  1.2208 -3.0155
   25SAPC  C210 3310   3.024   6.304   7.623 -0.1442 -0.3113 -0.5045
   25SAPC  H10R 3311   3.085   6.233   7.683 -0.6652 -2.7014 -2.6040
   25SAPC  H10S 3312   2.959   6.241   7.558 -1.2205  0.0379  0.2028
   25SAPC  C211 3313   2.936   6.393   7.700  0.0786 -0.2638  0.8947
   25SAPC  H11R 3314   2.883   6.467   7.638 -0.5422 -0.0752  1.6329
   25SAPC  C212 3315   2.919   6.384   7.833  0.3557 -0.7636 -0.6352
   25SAPC  H12R 3316   2.855   6.457   7.885  2.3134 -0.9131  2.2214
   25SAPC  C213 3317   2.985   6.286   7.926 -0.0770 -0.8452 -0.4409
   25SAPC  H13R 3318   3.070   6.343   7.970  0.0944 -0.9118 -0.6824
   25SAPC  H13S 3319   3.037   6.198   7.883  0.7015 -0.4958 -0.2327
   25SAPC  C214 3320   2.885   6.239   8.030  0.1036  0.1539 -0.6813
   25SAPC  H14R 3321   2.793   6.200   7.984  1.9681 -1.4237 -3.3877
   25SAPC  C215 3322   2.896   6.250   8.167 -0.0783 -0.0779  0.4164
   25SAPC  H15R 3323   2.810   6.215   8.226  0.8758 -1.3534  1.0914
   25SAPC  C216 3324   3.013   6.308   8.240  0.0795 -0.2115  0.2043
   25SAPC  H16R 3325   2.982   6.399   8.296 -0.2950 -0.3607  0.2466
   25SAPC  H16S 3326   3.092   6.344   8.171  0.1222  2.3099  1.4492
   25SAPC  C217 3327   3.061   6.212   8.350 -0.1288 -0.4894  0.0831
   25SAPC  H17R 3328   2.990   6.195   8.434  0.5503  1.3152  1.0831
   25SAPC  H17S 3329   3.143   6.272   8.395 -1.1925  0.7483  0.4570
   25SAPC  C218 3330   3.129   6.091   8.294 -0.1915  0.4006 -0.4055
   25SAPC  H18R 3331   3.193   6.122   8.209 -0.3920 -0.6423 -0.9540
   25SAPC  H18S 3332   3.055   6.025   8.245  1.9628 -2.4513 -0.0960
   25SAPC  C219 3333   3.216   6.023   8.403 -0.8445  0.4168  0.4519
   25SAPC  H19R 3334   3.155   6.005   8.495 -0.8635 -2.5590 -0.0644
   25SAPC  H19S 3335   3.294   6.099   8.423 -0.1409 -0.3175  0.5297
   25SAPC  C220 3336   3.273   5.895   8.356 -0.2511  0.3378 -0.2073
   25SAPC  H20R 3337   3.352   5.858   8.424  1.5347  1.2697 -1.6882
   25SAPC  H20S 3338   3.324   5.912   8.259 -0.2983 -1.2780 -0.5348
   25SAPC  H20T 3339   3.191   5.821   8.345 -0.2073  0.5593 -2.4525
   25SAPC   C33 3340   2.401   6.496   6.779  0.4943  0.1898  0.5087
   25SAPC   H3X 3341   2.361   6.393   6.790 -1.2425  0.9211  1.4634
   25SAPC   H3Y 3342   2.331   6.547   6.711  0.9106 -2.0390 -1.7421
   25SAPC   C34 3343   2.392   6.563   6.916 -0.1230  0.2079 -0.3730
   25SAPC   H4X 3344   2.284   6.574   6.937 -0.3595 -0.1404 -1.3462
   25SAPC   H4Y 3345   2.439   6.663   6.904 -2.2134  0.9959 -2.9252
   25SAPC   C35 3346   2.449   6.474   7.025 -0.1645  0.2841  0.3538
   25SAPC   H5X 3347   2.556   6.443   7.016 -0.5517 -0.5158 -2.2652
   25SAPC   H5Y 3348   2.401   6.374   7.020 -1.2060  0.8240 -2.2096
   25SAPC   C36 3349   2.434   6.545   7.166 -0.2215  0.7791  0.3314
   25SAPC   H6X 3350   2.329   6.582   7.176 -1.1795 -1.4032 -0.8249
   25SAPC   H6Y 3351   2.502   6.632   7.153 -0.3225  1.0509  1.5243
   25SAPC   C37 3352   2.477   6.450   7.278 -0.0640 -0.1333 -0.1986
   25SAPC   H7X 3353   2.576   6.411   7.247 -0.2197 -2.0249  1.4567
   25SAPC   H7Y 3354   2.406   6.364   7.276 -0.4483  0.1266  1.1860
   25SAPC   C38 3355   2.466   6.528   7.407  0.4455  0.2453  0.2297
   25SAPC   H8X 3356   2.360   6.559   7.416  0.2297 -0.4314  0.0885
   25SAPC   H8Y 3357   2.524   6.620   7.383  0.4559  0.6366  1.6570
   25SAPC   C39 3358   2.510   6.455   7.537  0.5148 -0.5118  0.2203
   25SAPC   H9X 3359   2.619   6.436   7.527  0.1038 -2.8474 -0.3373
   25SAPC   H9Y 3360   2.454   6.359   7.536 -2.6086  1.1550 -2.2110
   25SAPC  C310 3361   2.486   6.531   7.661 -0.9958 -0.2433 -0.5156
   25SAPC  H10X 3362   2.380   6.564   7.669 -0.5566  1.3520 -0.9062
   25SAPC  H10Y 3363   2.567   6.607   7.669 -1.0380 -0.3621  1.4473
   25SAPC  C311 3364   2.508   6.444   7.784  0.2512  0.3532 -0.0049
   25SAPC  H11X 3365   2.601   6.384   7.790  0.1883  0.4040  4.5297
   25SAPC  H11Y 3366   2.430   6.366   7.778  1.2630 -0.6259 -1.0226
   25SAPC  C312 3367   2.512   6.513   7.923  0.6062 -0.4401  0.0752
   25SAPC  H12X 3368   2.418   6.570   7.942 -0.1743 -1.2411 -1.2300
   25SAPC  H12Y 3369   2.594   6.587   7.917  0.4025 -0.2390 -0.2679
   25SAPC  C313 3370   2.545   6.418   8.039 -0.8823 -0.2842  0.1172
   25SAPC  H13X 3371   2.631   6.357   8.004 -1.2767 -1.0926  0.5182
   25SAPC  H13Y 3372   2.462   6.347   8.058 -0.0149 -1.0438  1.2430
   25SAPC  C314 3373   2.583   6.500   8.165 -0.5235  0.0654  0.4478
   25SAPC  H14X 3374   2.512   6.582   8.188 -1.2712 -0.7970  1.3409
   25SAPC  H14Y 3375   2.688   6.532   8.146  0.4246 -2.8721  0.1783
   25SAPC  C315 3376   2.578   6.413   8.291  0.2053 -0.8300 -0.0060
   25SAPC  H15X 3377   2.653   6.331   8.284 -0.2511 -1.1624 -1.3775
   25SAPC  H15Y 3378   2.474   6.372   8.294 -0.3308  0.5359  1.3182
   25SAPC  C316 3379   2.606   6.493   8.420 -0.0341 -0.3238 -0.3663
   25SAPC  H16X 3380   2.715   6.516   8.413  0.1153 -1.4292 -2.1553
   25SAPC  H16Y 3381   2.598   6.425   8.508 -2.3521 -2.7706 -2.3197
   25SAPC  C317 3382   2.523   6.618   8.429  0.7858  0.0947 -0.5801
   25SAPC  H17X 3383   2.417   6.585   8.423  0.5464 -0.2985  3.2359
   25SAPC  H17Y 3384   2.554   6.688   8.349 -0.8017 -1.7745 -2.9945
   25SAPC  C318 3385   2.535   6.704   8.555  0.2196 -0.0379  0.3356
   25SAPC  H18X 3386   2.474   6.795   8.537  0.6342  0.0669 -0.5953
   25SAPC  H18Y 3387   2.632   6.758   8.563  0.9159 -1.0668 -0.7789
   25SAPC  H18Z 3388   2.503   6.646   8.644  0.5687  0.2028  0.6160
   26SAPC     N 3389   2.956   1.428   5.982 -0.0822 -0.3780 -0.2327
   26SAPC   C12 3390   2.836   1.340   6.002 -0.2637  0.1209  0.1160
   26SAPC  H12A 3391   2.866   1.251   6.055 -2.1738  0.4273  1.8433
   26SAPC  H12B 3392   2.802   1.311   5.904  1.4625 -0.3041 -0.3816
   26SAPC   C13 3393   3.052   1.358   5.880  0.4578  0.0177  0.0939
   26SAPC  H13A 3394   3.128   1.421   5.836  1.1472 -0.4636  0.5710
   26SAPC  H13B 3395   3.089   1.263   5.915 -1.3040 -0.6171  0.3630
   26SAPC  H13C 3396   2.984   1.320   5.805 -1.2631  0.2568  1.4566
   26SAPC   C14 3397   2.922   1.559   5.921  0.2059 -0.2398 -0.0489
   26SAPC  H14A 3398   3.013   1.618   5.915  0.2638 -0.2919  0.3035
   26SAPC  H14B 3399   2.882   1.540   5.822 -0.1504  1.4379 -0.2596
   26SAPC  H14C 3400   2.852   1.614   5.982  1.6489  0.9873  0.5624
   26SAPC   C15 3401   3.031   1.444   6.105  0.0152  0.4597 -0.8240
   26SAPC  H15A 3402   2.958   1.476   6.178  0.0461  0.4553 -0.7917
   26SAPC  H15B 3403   3.085   1.354   6.129  1.8609  1.6364 -0.2836
   26SAPC  H15C 3404   3.104   1.524   6.097  1.2325 -0.5341 -0.0759
   26SAPC   C11 3405   2.721   1.409   6.077  0.4653  0.4268 -0.4705
   26SAPC  H11A 3406   2.638   1.336   6.083  1.7502 -1.0402  0.3101
   26SAPC  H11B 3407   2.688   1.500   6.022  0.4219  1.4529  1.1817
   26SAPC     P 3408   2.698   1.538   6.309 -0.2221 -0.1707 -0.1986
   26SAPC   O13 3409   2.768   1.668   6.305 -0.3000 -0.1822 -0.7855
   26SAPC   O14 3410   2.551   1.531   6.295 -0.5522 -0.4192  0.1207
   26SAPC   O12 3411   2.769   1.450   6.203  0.1990 -0.5333 -0.5254
   26SAPC   O11 3412   2.739   1.458   6.442  0.2312  0.1055 -0.0002
   26SAPC    C1 3413   2.880   1.442   6.476  0.8048  0.0157  0.0009
   26SAPC    HA 3414   2.939   1.425   6.382 -0.2687 -0.3374 -0.6267
   26SAPC    HB 3415   2.921   1.532   6.525  0.4289 -0.2083  0.7402
   26SAPC    C2 3416   2.893   1.321   6.568  1.0517 -0.4411 -0.5996
   26SAPC    HS 3417   2.855   1.233   6.511  1.6021 -0.7685 -0.4724
   26SAPC   O21 3418   2.812   1.347   6.684  0.1805  0.1423 -0.1872
   26SAPC   C21 3419   2.794   1.262   6.775 -0.1945 -0.0346  0.4552
   26SAPC   O22 3420   2.833   1.144   6.766 -0.0003  0.2958 -0.6853
   26SAPC   C22 3421   2.720   1.308   6.898  0.0714  0.0341  0.0368
   26SAPC   H2R 3422   2.750   1.415   6.909 -1.4247  0.5226 -0.4048
   26SAPC   H2S 3423   2.611   1.302   6.878 -0.1781  1.5965  0.7586
   26SAPC    C3 3424   3.046   1.296   6.602 -0.1010  0.6458  0.7468
   26SAPC    HX 3425   3.093   1.283   6.503 -0.9491  1.7373  0.1671
   26SAPC    HY 3426   3.047   1.211   6.674  0.3431 -0.1398 -0.1711
   26SAPC   O31 3427   3.103   1.410   6.676 -0.3455  0.8003  0.3783
   26SAPC   C31 3428   3.221   1.450   6.632 -0.1976  0.3590  0.2153
   26SAPC   O32 3429   3.287   1.392   6.550  0.0565 -0.3242 -0.2752
   26SAPC   C32 3430   3.260   1.573   6.706  0.1365  0.0003  0.4004
   26SAPC   H2X 3431   3.188   1.654   6.682 -0.7830 -0.7409  0.5878
   26SAPC   H2Y 3432   3.365   1.593   6.676  1.1274 -1.1554  2.8513
   26SAPC   C23 3433   2.749   1.229   7.034  0.1366 -0.2464 -0.6910
   26SAPC   H3R 3434   2.794   1.312   7.093  0.0264  1.2302 -2.5464
   26SAPC   H3S 3435   2.830   1.155   7.015  0.2133 -0.1147 -0.8910
   26SAPC   C24 3436   2.621   1.162   7.100 -0.4646 -0.6100 -0.3935
   26SAPC   H4R 3437   2.595   1.078   7.032  1.8411 -2.4904  0.9273
   26SAPC   H4S 3438   2.541   1.239   7.103  0.3513  0.2810 -0.8572
   26SAPC   C25 3439   2.647   1.092   7.233 -0.0109  0.5638 -0.1544
   26SAPC   H5R 3440   2.745   1.042   7.234  0.4211  1.3365 -1.5628
   26SAPC   C26 3441   2.579   1.109   7.351 -1.0393  0.2090  0.2547
   26SAPC   H6R 3442   2.610   1.046   7.436 -0.1169  1.0672  0.5792
   26SAPC   C27 3443   2.460   1.203   7.372  0.0279  0.6422 -0.2724
   26SAPC   H7R 3444   2.385   1.177   7.294 -0.2615 -0.2330  0.2782
   26SAPC   H7S 3445   2.482   1.309   7.345 -2.5125  1.0213 -1.0887
   26SAPC   C28 3446   2.385   1.180   7.504 -0.0193 -0.1205  0.8095
   26SAPC   H8R 3447   2.303   1.107   7.498 -0.1887  0.0776  0.6912
   26SAPC   C29 3448   2.415   1.223   7.629  0.5885 -0.3323 -0.1809
   26SAPC   H9R 3449   2.341   1.207   7.709  0.7913 -0.7080 -0.0638
   26SAPC  C210 3450   2.541   1.298   7.678  0.6957 -0.5360 -0.4069
   26SAPC  H10R 3451   2.519   1.358   7.769 -0.2267 -1.1404 -0.2229
   26SAPC  H10S 3452   2.591   1.370   7.610 -0.3819  0.2037 -0.4414
   26SAPC  C211 3453   2.652   1.205   7.720 -0.4388  0.7361  0.1139
   26SAPC  H11R 3454   2.676   1.130   7.643  0.1760  0.8155  0.2226
   26SAPC  C212 3455   2.716   1.194   7.838 -0.0249  0.1924 -0.4163
   26SAPC  H12R 3456   2.808   1.136   7.852 -1.3954 -2.1398 -0.5023
   26SAPC  C213 3457   2.690   1.281   7.958 -0.0279  0.4200 -0.1035
   26SAPC  H13R 3458   2.667   1.384   7.922 -0.3352 -0.0053 -1.1711
   26SAPC  H13S 3459   2.785   1.310   8.007 -0.5431  1.0625  0.5191
   26SAPC  C214 3460   2.597   1.234   8.063  0.0011 -0.4415 -0.1115
   26SAPC  H14R 3461   2.600   1.126   8.081  0.7016 -0.4189 -0.0619
   26SAPC  C215 3462   2.534   1.314   8.144  0.5053 -0.3542 -0.4826
   26SAPC  H15R 3463   2.465   1.263   8.214 -0.0355 -0.3612 -1.0130
   26SAPC  C216 3464   2.542   1.469   8.156  0.2888  0.0814 -0.0329
   26SAPC  H16R 3465   2.641   1.509   8.125  0.8155  1.1410  2.6988
   26SAPC  H16S 3466   2.533   1.505   8.261 -0.0731 -1.5485  0.5252
   26SAPC  C217 3467   2.428   1.524   8.074 -0.1025 -0.5319  0.1220
   26SAPC  H17R 3468   2.329   1.496   8.117 -1.1284  2.5023 -0.0740
   26SAPC  H17S 3469   2.433   1.481   7.971  0.4496  0.2522 -0.1899
   26SAPC  C218 3470   2.438   1.673   8.055 -0.4616  0.5523  0.1768
   26SAPC  H18R 3471   2.364   1.703   7.978  0.0141 -2.3330 -1.5822
   26SAPC  H18S 3472   2.539   1.681   8.009  0.7013 -3.4448  1.5584
   26SAPC  C219 3473   2.426   1.764   8.175 -0.1139  0.4480 -0.9144
   26SAPC  H19R 3474   2.418   1.871   8.147  0.7179  0.5595 -0.7548
   26SAPC  H19S 3475   2.519   1.742   8.232 -0.4504  3.6793  1.1441
   26SAPC  C220 3476   2.310   1.742   8.275 -0.0917  0.2241 -0.0577
   26SAPC  H20R 3477   2.214   1.788   8.241 -0.0321 -0.9253 -1.9078
   26SAPC  H20S 3478   2.341   1.789   8.370  1.5013 -2.9016  1.1177
   26SAPC  H20T 3479   2.309   1.632   8.287  1.4026  0.3360  1.3966
   26SAPC   C33 3480   3.273   1.555   6.864  0.0565 -0.2080 -0.4372
   26SAPC   H3X 3481   3.341   1.640   6.887  1.7514 -2.1402  2.2855
   26SAPC   H3Y 3482   3.328   1.465   6.897 -0.2450 -0.6158 -1.0255
   26SAPC   C34 3483   3.137   1.558   6.931 -0.4488 -0.1087  0.3974
   26SAPC   H4X 3484   3.075   1.471   6.900 -0.3774  0.0728 -0.2570
   26SAPC   H4Y 3485   3.077   1.646   6.903  0.4792  0.5970  0.5688
   26SAPC   C35 3486   3.153   1.562   7.082  0.1744 -0.4918 -0.8067
   26SAPC   H5X 3487   3.163   1.666   7.118 -1.7385 -0.1104 -1.2632
   26SAPC   H5Y 3488   3.239   1.496   7.109  0.3188  0.0079 -0.0261
   26SAPC   C36 3489   3.045   1.500   7.174 -0.9041 -0.1363  0.6991
   26SAPC   H6X 3490   3.030   1.397   7.135 -2.3361  0.4218 -0.2801
   26SAPC   H6Y 3491   2.946   1.544   7.153 -0.2815  0.1403 -2.0373
   26SAPC   C37 3492   3.082   1.501   7.314 -0.5860  0.4512 -0.9883
   26SAPC   H7X 3493   3.101   1.602   7.356  0.9287 -0.7733  1.4583
   26SAPC   H7Y 3494   3.179   1.447   7.317 -1.9301 -2.0578  0.8197
   26SAPC   C38 3495   2.989   1.413   7.399 -0.6491  0.1496  0.8213
   26SAPC   H8X 3496   2.977   1.325   7.333 -0.7487  1.1985 -0.5948
   26SAPC   H8Y 3497   2.893   1.468   7.409 -0.5764  0.1513  1.6091
   26SAPC   C39 3498   3.037   1.367   7.537 -0.3731 -0.4394 -0.4026
   26SAPC   H9X 3499   3.135   1.315   7.535 -0.4133 -0.5094 -0.6344
   26SAPC   H9Y 3500   2.957   1.298   7.573 -1.5333  0.3280 -1.3967
   26SAPC  C310 3501   3.054   1.482   7.642  0.6020  0.7279  0.0392
   26SAPC  H10X 3502   3.103   1.568   7.593  0.3314  0.8244 -0.0681
   26SAPC  H10Y 3503   3.123   1.443   7.719  1.5433  1.2227 -0.5328
   26SAPC  C311 3504   2.925   1.525   7.717 -0.2641  0.2448  0.7868
   26SAPC  H11X 3505   2.890   1.438   7.777  1.0387  0.2324  1.5525
   26SAPC  H11Y 3506   2.844   1.548   7.644 -0.1828  0.4704  0.7669
   26SAPC  C312 3507   2.962   1.651   7.798 -0.2667  0.0842 -0.1902
   26SAPC  H12X 3508   2.999   1.737   7.738  0.9521  0.5518  1.1568
   26SAPC  H12Y 3509   3.050   1.613   7.855 -1.2616 -0.3750  1.0888
   26SAPC  C313 3510   2.853   1.692   7.896 -0.2590 -0.4232 -0.4249
   26SAPC  H13X 3511   2.832   1.612   7.970  0.6899 -0.0119  0.3083
   26SAPC  H13Y 3512   2.765   1.724   7.837  1.1046  3.6309 -0.5374
   26SAPC  C314 3513   2.891   1.822   7.972 -0.3345 -0.3303 -0.1083
   26SAPC  H14X 3514   2.914   1.908   7.905  0.1782  0.8650  1.5389
   26SAPC  H14Y 3515   2.984   1.786   8.021 -0.2224  2.1865  1.7589
   26SAPC  C315 3516   2.794   1.875   8.080 -0.3502  0.5660 -0.0213
   26SAPC  H15X 3517   2.766   1.802   8.158 -1.8334  0.6773 -0.4325
   26SAPC  H15Y 3518   2.706   1.902   8.019  0.0331 -0.6972 -1.1769
   26SAPC  C316 3519   2.846   2.008   8.145  0.5197  0.0426  0.6512
   26SAPC  H16X 3520   2.955   1.993   8.165  0.1993 -0.9132  1.7548
   26SAPC  H16Y 3521   2.804   2.008   8.248  2.2129 -3.6735  1.5284
   26SAPC  C317 3522   2.829   2.134   8.060 -0.1203 -0.0537  0.1404
   26SAPC  H17X 3523   2.721   2.136   8.035 -0.0872  0.1477  0.0156
   26SAPC  H17Y 3524   2.888   2.135   7.966  0.3987  1.4885  0.4442
   26SAPC  C318 3525   2.875   2.256   8.140 -1.5721  0.4801 -0.6356
   26SAPC  H18X 3526   2.985   2.266   8.147 -1.5555 -0.1103  0.1308
   26SAPC  H18Y 3527   2.845   2.238   8.245 -1.6825 -2.6395 -1.0844
   26SAPC  H18Z 3528   2.832   2.353   8.106 -1.8862  1.2377  1.7435
   27SAPC     N 3529   0.017   2.066   6.418  0.0025  0.5646  0.2796
   27SAPC   C12 3530  -0.058   2.190   6.452  0.2198 -0.1661 -0.6995
   27SAPC  H12A 3531   0.011   2.254   6.506 -0.4191  0.7722 -0.9520
   27SAPC  H12B 3532  -0.137   2.161   6.520 -1.0797  1.8411 -1.2526
   27SAPC   C13 3533  -0.050   1.973   6.326  0.6394 -0.5979  0.2563
   27SAPC  H13A 3534  -0.126   1.917   6.379 -0.2400  0.6908  0.3877
   27SAPC  H13B 3535  -0.096   2.019   6.240  1.9549  0.8915  0.3201
   27SAPC  H13C 3536   0.030   1.904   6.301  2.9896  2.0691 -0.0528
   27SAPC   C14 3537   0.133   2.110   6.338 -1.1256 -0.3149  0.1306
   27SAPC  H14A 3538   0.200   2.171   6.396 -0.7373  0.8978 -1.5170
   27SAPC  H14B 3539   0.190   2.034   6.286  1.0890  1.8967 -0.8318
   27SAPC  H14C 3540   0.090   2.177   6.266  0.4851 -1.3874 -1.9340
   27SAPC   C15 3541   0.061   2.002   6.545 -0.3430  0.2178 -0.4992
   27SAPC  H15A 3542  -0.021   1.988   6.614 -0.6249  1.6224 -0.5068
   27SAPC  H15B 3543   0.109   1.908   6.525 -2.2453 -0.8383 -0.3016
   27SAPC  H15C 3544   0.123   2.065   6.607 -0.4599 -0.0622 -0.0952
   27SAPC   C11 3545  -0.114   2.287   6.343 -0.3055  0.0501 -0.5630
   27SAPC  H11A 3546  -0.190   2.341   6.403 -2.1067  0.3283 -2.9668
   27SAPC  H11B 3547  -0.176   2.236   6.267  0.7840 -1.7237 -0.3269
   27SAPC     P 3548   0.056   2.485   6.380 -0.1527  0.2269  0.2156
   27SAPC   O13 3549   0.173   2.418   6.440 -0.3887  0.6159 -0.2362
   27SAPC   O14 3550   0.081   2.613   6.302 -0.7543  0.2035  0.1314
   27SAPC   O12 3551  -0.005   2.370   6.288  0.1830  0.2822 -0.2609
   27SAPC   O11 3552  -0.048   2.506   6.499 -0.0561  0.2806 -0.3075
   27SAPC    C1 3553  -0.135   2.620   6.518 -0.2081 -0.0972 -0.2573
   27SAPC    HA 3554  -0.128   2.701   6.442  1.2278  0.8569  0.8461
   27SAPC    HB 3555  -0.242   2.591   6.519 -0.2657  0.0349 -1.3309
   27SAPC    C2 3556  -0.105   2.682   6.653 -0.3630 -0.3754  0.1376
   27SAPC    HS 3557  -0.167   2.774   6.644  0.3175 -0.0676 -2.3559
   27SAPC   O21 3558   0.032   2.715   6.669  0.1603  0.1639 -0.6578
   27SAPC   C21 3559   0.074   2.798   6.572  0.6500  0.3944  0.0894
   27SAPC   O22 3560   0.001   2.882   6.512 -0.3118  0.0645 -0.6557
   27SAPC   C22 3561   0.221   2.776   6.544  0.3573 -0.4950 -0.8392
   27SAPC   H2R 3562   0.249   2.669   6.531  0.7799 -0.5317  0.3147
   27SAPC   H2S 3563   0.236   2.818   6.442 -1.3222 -0.4389 -1.1042
   27SAPC    C3 3564  -0.148   2.597   6.772 -0.2860 -0.0279 -0.2817
   27SAPC    HX 3565  -0.062   2.532   6.798  0.5040  1.2010  0.2703
   27SAPC    HY 3566  -0.240   2.543   6.739 -0.1714 -0.7644  0.5525
   27SAPC   O31 3567  -0.173   2.676   6.895 -0.0934 -0.1605 -0.6110
   27SAPC   C31 3568  -0.277   2.749   6.895 -0.2610 -0.4839 -0.4650
   27SAPC   O32 3569  -0.365   2.768   6.816 -0.1950  0.7550 -0.4904
   27SAPC   C32 3570  -0.263   2.830   7.025  0.2398  0.4028 -0.0470
   27SAPC   H2X 3571  -0.307   2.932   7.014  0.5976  0.6503  0.7541
   27SAPC   H2Y 3572  -0.155   2.845   7.048  0.7933  0.0111 -2.1944
   27SAPC   C23 3573   0.329   2.856   6.630  0.5627  0.2873  0.2738
   27SAPC   H3R 3574   0.301   2.964   6.633 -1.1614 -0.1104 -0.2885
   27SAPC   H3S 3575   0.427   2.851   6.578  0.7773  0.9128  0.6048
   27SAPC   C24 3576   0.347   2.806   6.772  0.3980 -0.9438  0.0458
   27SAPC   H4R 3577   0.254   2.822   6.832  0.0538 -0.0820 -0.6863
   27SAPC   H4S 3578   0.415   2.879   6.822  1.2479 -2.5536  1.3065
   27SAPC   C25 3579   0.396   2.665   6.785 -0.4558 -0.1369 -0.0501
   27SAPC   H5R 3580   0.498   2.643   6.751  0.9944  1.0262  3.1047
   27SAPC   C26 3581   0.344   2.583   6.875 -0.0028  0.1865 -0.6483
   27SAPC   H6R 3582   0.393   2.486   6.895 -0.8616  0.2863  2.4494
   27SAPC   C27 3583   0.224   2.602   6.956 -0.0155  0.3424 -0.4705
   27SAPC   H7R 3584   0.133   2.594   6.893 -1.3135  1.3452  1.1698
   27SAPC   H7S 3585   0.207   2.702   7.003  1.0193 -0.1653  1.0556
   27SAPC   C28 3586   0.204   2.497   7.067 -0.4350 -0.0907 -0.1014
   27SAPC   H8R 3587   0.131   2.419   7.044 -0.0239 -0.1429 -1.3176
   27SAPC   C29 3588   0.262   2.496   7.188 -0.4635 -0.1241  0.3075
   27SAPC   H9R 3589   0.229   2.418   7.259 -0.6623 -1.3119 -1.0327
   27SAPC  C210 3590   0.360   2.595   7.245 -0.6365  0.2707 -0.0136
   27SAPC  H10R 3591   0.389   2.656   7.157 -0.7116  0.8373  0.3490
   27SAPC  H10S 3592   0.448   2.547   7.293  0.8958  0.3162 -2.6010
   27SAPC  C211 3593   0.314   2.710   7.325 -0.2967 -0.2647  0.4751
   27SAPC  H11R 3594   0.310   2.807   7.274  0.6749  0.2944  1.4121
   27SAPC  C212 3595   0.252   2.709   7.446  0.0282 -0.2595 -0.5246
   27SAPC  H12R 3596   0.251   2.805   7.500  0.8655 -0.3516 -0.3335
   27SAPC  C213 3597   0.225   2.580   7.528  0.1002 -0.8547  0.2643
   27SAPC  H13R 3598   0.292   2.575   7.616  1.2008 -1.0752 -0.5742
   27SAPC  H13S 3599   0.249   2.489   7.470  1.1274 -0.7593  0.5298
   27SAPC  C214 3600   0.081   2.584   7.563  0.4783 -0.4336 -1.1401
   27SAPC  H14R 3601   0.006   2.579   7.483 -1.9500 -0.9324  1.0189
   27SAPC  C215 3602   0.026   2.571   7.686 -0.2293 -0.1442 -0.4833
   27SAPC  H15R 3603  -0.083   2.560   7.692 -0.2438 -0.0499 -0.5659
   27SAPC  C216 3604   0.094   2.578   7.816 -1.3291  0.4269  0.1998
   27SAPC  H16R 3605   0.037   2.641   7.888 -2.6033  1.0833 -1.3063
   27SAPC  H16S 3606   0.195   2.624   7.808 -1.1390 -0.0064  0.0652
   27SAPC  C217 3607   0.109   2.442   7.878  1.0377  0.6420  0.2395
   27SAPC  H17R 3608   0.187   2.376   7.834  0.0215 -2.2127  2.3644
   27SAPC  H17S 3609   0.009   2.394   7.881  0.9193  0.8810  0.0981
   27SAPC  C218 3610   0.156   2.456   8.026  0.5260  0.7611  0.0275
   27SAPC  H18R 3611   0.098   2.535   8.078  1.8645 -0.2373  3.2778
   27SAPC  H18S 3612   0.257   2.501   8.040  0.2380  1.5739 -0.4223
   27SAPC  C219 3613   0.143   2.313   8.096 -0.4215  0.1500 -0.4000
   27SAPC  H19R 3614   0.221   2.309   8.175 -1.2791  0.2938  0.4629
   27SAPC  H19S 3615   0.168   2.234   8.022 -0.6300 -0.9045  0.6254
   27SAPC  C220 3616   0.011   2.287   8.170 -0.6666 -1.2187 -0.1418
   27SAPC  H20R 3617  -0.079   2.267   8.108 -1.5802 -0.0704  0.7615
   27SAPC  H20S 3618  -0.016   2.370   8.238  0.0289 -0.3892 -0.8527
   27SAPC  H20T 3619   0.021   2.201   8.239 -0.9476 -2.4432 -1.5822
   27SAPC   C33 3620  -0.335   2.756   7.140  0.5268 -0.2480 -0.0076
   27SAPC   H3X 3621  -0.285   2.657   7.131  1.7500  0.4842 -1.8942
   27SAPC   H3Y 3622  -0.443   2.735   7.121  0.7884 -0.0345 -1.8947
   27SAPC   C34 3623  -0.318   2.811   7.285 -0.0683 -0.2530  1.0163
   27SAPC   H4X 3624  -0.374   2.907   7.282  1.2674  0.5832 -2.8174
   27SAPC   H4Y 3625  -0.212   2.833   7.307  0.8871 -1.3093 -2.0623
   27SAPC   C35 3626  -0.368   2.713   7.391  0.1022  0.3233  0.3099
   27SAPC   H5X 3627  -0.300   2.625   7.391  0.6513  0.6064 -2.9406
   27SAPC   H5Y 3628  -0.473   2.684   7.374  0.6911 -1.1818 -0.9434
   27SAPC   C36 3629  -0.364   2.772   7.536  0.0662 -0.2993 -0.9510
   27SAPC   H6X 3630  -0.456   2.831   7.556 -0.7441 -1.6563 -0.5643
   27SAPC   H6Y 3631  -0.267   2.827   7.542  1.3643 -2.5123 -0.5014
   27SAPC   C37 3632  -0.371   2.659   7.643 -0.1296  0.7014  0.2644
   27SAPC   H7X 3633  -0.327   2.562   7.613 -1.8721  0.3717 -1.3483
   27SAPC   H7Y 3634  -0.479   2.634   7.650 -0.2185  0.2892 -2.0215
   27SAPC   C38 3635  -0.315   2.711   7.779  0.1897 -0.9227  0.9770
   27SAPC   H8X 3636  -0.389   2.791   7.804  1.1179  0.0834  0.5781
   27SAPC   H8Y 3637  -0.210   2.746   7.773  0.0739  0.4628  4.5222
   27SAPC   C39 3638  -0.330   2.613   7.893  0.4966  0.2539  0.4532
   27SAPC   H9X 3639  -0.291   2.673   7.978 -0.1089 -2.7333  3.0194
   27SAPC   H9Y 3640  -0.261   2.527   7.884 -0.7138 -0.5807 -1.5116
   27SAPC  C310 3641  -0.473   2.579   7.932  0.6413 -0.5594  0.3883
   27SAPC  H10X 3642  -0.509   2.516   7.848  0.7761  0.9435 -0.8410
   27SAPC  H10Y 3643  -0.535   2.670   7.921  0.3593 -0.7494  0.3900
   27SAPC  C311 3644  -0.488   2.515   8.075  0.3461  0.1819 -0.1105
   27SAPC  H11X 3645  -0.596   2.531   8.095 -0.0878 -1.9045 -0.5251
   27SAPC  H11Y 3646  -0.429   2.562   8.157 -0.3775 -0.3423  0.7286
   27SAPC  C312 3647  -0.464   2.373   8.072 -0.2209  0.8535  0.4265
   27SAPC  H12X 3648  -0.372   2.354   8.012  0.5861 -0.1000  1.8967
   27SAPC  H12Y 3649  -0.548   2.331   8.012  2.5730 -1.4718 -2.2252
   27SAPC  C313 3650  -0.439   2.315   8.210  0.0960  0.3782  0.4551
   27SAPC  H13X 3651  -0.446   2.205   8.201 -0.7528  0.3626  1.1480
   27SAPC  H13Y 3652  -0.524   2.355   8.270  0.5193  0.8533  0.7458
   27SAPC  C314 3653  -0.311   2.363   8.281  0.4057  0.0053 -0.3345
   27SAPC  H14X 3654  -0.275   2.457   8.232  0.1945 -0.8021 -2.1402
   27SAPC  H14Y 3655  -0.246   2.273   8.277 -3.7147 -3.2417 -0.5636
   27SAPC  C315 3656  -0.334   2.385   8.436  0.3155 -0.1714  0.0471
   27SAPC  H15X 3657  -0.412   2.464   8.438  2.6302  2.2948 -0.3364
   27SAPC  H15Y 3658  -0.247   2.433   8.486  0.4350 -1.5033  1.1730
   27SAPC  C316 3659  -0.378   2.256   8.516  0.2657  0.0079  0.8839
   27SAPC  H16X 3660  -0.304   2.176   8.491 -1.1142 -1.2024  0.5478
   27SAPC  H16Y 3661  -0.477   2.221   8.481  0.9073  0.8456 -2.0989
   27SAPC  C317 3662  -0.375   2.277   8.666  0.8241 -0.3723 -0.3421
   27SAPC  H17X 3663  -0.456   2.350   8.689  1.1656 -0.5733  1.6354
   27SAPC  H17Y 3664  -0.278   2.312   8.709  0.5954 -1.5550  1.2029
   27SAPC  C318 3665  -0.399   2.148   8.743 -0.4378  0.0950  0.5042
   27SAPC  H18X 3666  -0.310   2.084   8.730  0.3244  0.9000  1.6286
   27SAPC  H18Y 3667  -0.493   2.100   8.707  0.1448 -0.2954 -0.5579
   27SAPC  H18Z 3668  -0.409   2.167   8.852  1.8042 -1.1830  0.9881
   28SAPC     N 3669   0.739   1.286   6.387 -0.3316  0.1014  0.5266
   28SAPC   C12 3670   0.652   1.187   6.451  0.6932 -0.0458  0.0275
   28SAPC  H12A 3671   0.702   1.155   6.542  1.6438  1.6029  0.1231
   28SAPC  H12B 3672   0.636   1.101   6.388 -2.4014 -0.2940  0.9850
   28SAPC   C13 3673   0.685   1.316   6.244  0.2732  0.0036 -0.1387
   28SAPC  H13A 3674   0.668   1.223   6.191 -0.8800 -1.1381  2.0994
   28SAPC  H13B 3675   0.584   1.353   6.248 -0.7465 -2.2412 -2.1094
   28SAPC  H13C 3676   0.757   1.376   6.191  2.5154 -1.9511  0.4994
   28SAPC   C14 3677   0.735   1.413   6.465 -0.2003  1.0160  0.4945
   28SAPC  H14A 3678   0.748   1.394   6.571 -1.5397 -1.7598  0.2557
   28SAPC  H14B 3679   0.807   1.485   6.429  0.3257  1.6708  2.6869
   28SAPC  H14C 3680   0.636   1.455   6.453 -0.6222  0.2112  1.0370
   28SAPC   C15 3681   0.880   1.232   6.379  0.1724 -0.1090  0.6333
   28SAPC  H15A 3682   0.928   1.218   6.474  2.1771 -0.9444 -0.4515
   28SAPC  H15B 3683   0.877   1.139   6.323 -1.5811  0.7706 -0.8378
   28SAPC  H15C 3684   0.939   1.300   6.320 -0.8717 -0.1106 -0.4644
   28SAPC   C11 3685   0.504   1.240   6.476 -0.5105  0.6753 -0.1498
   28SAPC  H11A 3686   0.524   1.327   6.542  0.2215  1.0629 -0.8598
   28SAPC  H11B 3687   0.454   1.168   6.544 -0.1506 -2.2022 -2.7363
   28SAPC     P 3688   0.346   1.175   6.272 -0.5640 -0.4210 -0.2825
   28SAPC   O13 3689   0.247   1.245   6.187 -0.6168 -0.3229 -0.1895
   28SAPC   O14 3690   0.447   1.086   6.210  0.3905  0.6152  0.2109
   28SAPC   O12 3691   0.432   1.282   6.359 -0.3067 -0.1606  0.3310
   28SAPC   O11 3692   0.265   1.107   6.389  0.0926 -0.3694 -0.3418
   28SAPC    C1 3693   0.123   1.108   6.370  0.3139  0.5288 -0.8708
   28SAPC    HA 3694   0.103   1.096   6.262  1.8230  1.3105 -1.2588
   28SAPC    HB 3695   0.090   1.018   6.427  1.9374  0.4815  0.0661
   28SAPC    C2 3696   0.054   1.237   6.433  0.1115 -0.7568  0.1804
   28SAPC    HS 3697   0.070   1.310   6.351 -3.1534 -0.7165 -0.5456
   28SAPC   O21 3698   0.120   1.278   6.556 -0.1376 -0.1922  0.0462
   28SAPC   C21 3699   0.113   1.405   6.578 -0.4311 -0.0994 -0.1791
   28SAPC   O22 3700   0.057   1.492   6.511 -0.4124 -0.0017 -0.0892
   28SAPC   C22 3701   0.192   1.435   6.712  0.7192 -0.3528 -0.4637
   28SAPC   H2R 3702   0.150   1.358   6.780 -0.2227 -0.2333 -0.8864
   28SAPC   H2S 3703   0.300   1.423   6.690  1.0634 -0.3823  1.1168
   28SAPC    C3 3704  -0.097   1.210   6.460  0.3703 -0.2433  0.0639
   28SAPC    HX 3705  -0.145   1.172   6.367  1.7748 -0.6328 -0.5269
   28SAPC    HY 3706  -0.151   1.307   6.474  0.5183 -0.0582 -0.6132
   28SAPC   O31 3707  -0.123   1.113   6.567 -0.0543  0.3659  0.2937
   28SAPC   C31 3708  -0.133   1.174   6.685  0.0699  0.4619  0.5205
   28SAPC   O32 3709  -0.155   1.294   6.696  0.1370  0.6998 -0.6437
   28SAPC   C32 3710  -0.109   1.071   6.800  0.1191  0.2955  0.2230
   28SAPC   H2X 3711  -0.091   1.143   6.883 -1.3362  1.1341 -0.1363
   28SAPC   H2Y 3712  -0.025   1.005   6.770 -0.9749 -0.1133 -2.2767
   28SAPC   C23 3713   0.181   1.577   6.777 -0.1238  0.1067 -0.0852
   28SAPC   H3R 3714   0.073   1.605   6.777  0.0753  0.8932  0.5578
   28SAPC   H3S 3715   0.243   1.648   6.719  0.4975  1.2232  1.8602
   28SAPC   C24 3716   0.229   1.581   6.927 -0.2587  0.6524 -0.0987
   28SAPC   H4R 3717   0.189   1.490   6.977 -0.7282  0.2128 -1.2487
   28SAPC   H4S 3718   0.340   1.581   6.936 -0.0986 -0.9944 -1.6889
   28SAPC   C25 3719   0.177   1.711   7.000  0.2665 -0.4881 -0.1457
   28SAPC   H5R 3720   0.155   1.803   6.942 -0.4112 -0.5581 -0.0003
   28SAPC   C26 3721   0.155   1.711   7.139  0.5724 -0.0864 -0.7349
   28SAPC   H6R 3722   0.129   1.807   7.185  0.1559  1.0467 -3.1588
   28SAPC   C27 3723   0.173   1.592   7.231 -0.2777 -0.0446 -0.5940
   28SAPC   H7R 3724   0.272   1.608   7.279 -1.0495  0.2367  0.9610
   28SAPC   H7S 3725   0.173   1.497   7.174 -0.5638 -0.1054 -0.4937
   28SAPC   C28 3726   0.079   1.587   7.355 -0.6595  0.5001  0.6453
   28SAPC   H8R 3727  -0.011   1.527   7.332 -0.8169  1.2010 -0.7188
   28SAPC   C29 3728   0.094   1.635   7.475  0.5820 -0.1903  0.6488
   28SAPC   H9R 3729   0.018   1.603   7.547 -2.1134  2.3438 -0.8296
   28SAPC  C210 3730   0.214   1.703   7.542  0.0882 -0.6653  0.1556
   28SAPC  H10R 3731   0.175   1.782   7.611  1.1056  2.7836 -2.8679
   28SAPC  H10S 3732   0.266   1.774   7.473 -1.1974  0.3392  0.1776
   28SAPC  C211 3733   0.317   1.611   7.596 -0.0067 -0.1200  0.2282
   28SAPC  H11R 3734   0.338   1.531   7.523  0.7031  0.4534 -0.2094
   28SAPC  C212 3735   0.391   1.626   7.710 -0.1226 -0.2908 -0.1286
   28SAPC  H12R 3736   0.453   1.539   7.736 -1.6777 -1.4156 -0.0206
   28SAPC  C213 3737   0.392   1.739   7.815  0.2302 -0.3300  0.6436
   28SAPC  H13R 3738   0.347   1.827   7.763 -1.0567 -1.5957 -0.4516
   28SAPC  H13S 3739   0.496   1.779   7.823  0.4202  0.6237 -3.7142
   28SAPC  C214 3740   0.341   1.702   7.948  0.0120  0.4954 -0.1150
   28SAPC  H14R 3741   0.346   1.596   7.977  1.5127  0.5277 -0.1814
   28SAPC  C215 3742   0.272   1.785   8.031 -0.2917 -0.4253 -0.0754
   28SAPC  H15R 3743   0.227   1.748   8.125 -1.8942  3.6154  0.9556
   28SAPC  C216 3744   0.251   1.934   8.013  0.1534  0.0150  0.0741
   28SAPC  H16R 3745   0.145   1.961   8.029  0.2299 -0.6232  1.9143
   28SAPC  H16S 3746   0.281   1.975   7.914  2.1582  0.5444  0.8298
   28SAPC  C217 3747   0.337   2.006   8.124 -0.0035 -0.1245 -0.0669
   28SAPC  H17R 3748   0.352   2.112   8.095  0.7680  0.3000  1.7030
   28SAPC  H17S 3749   0.442   1.968   8.124 -0.0706 -0.8927  4.4496
   28SAPC  C218 3750   0.284   2.000   8.271  0.6089  0.6777  0.3681
   28SAPC  H18R 3751   0.251   1.898   8.300 -0.6290  0.7272 -0.7751
   28SAPC  H18S 3752   0.207   2.077   8.292  0.8584  1.6267 -1.8733
   28SAPC  C219 3753   0.409   2.016   8.364  0.4360 -0.4269 -1.0646
   28SAPC  H19R 3754   0.492   1.945   8.343  0.9652 -1.3478  3.2141
   28SAPC  H19S 3755   0.370   1.997   8.467 -0.4627 -0.0570 -1.3298
   28SAPC  C220 3756   0.462   2.153   8.370  0.0427  0.0085 -0.1989
   28SAPC  H20R 3757   0.373   2.216   8.391 -0.7029  0.1082 -3.2585
   28SAPC  H20S 3758   0.491   2.190   8.270 -1.8201  3.2587  0.3184
   28SAPC  H20T 3759   0.537   2.154   8.453 -3.3579 -2.0988  3.2591
   28SAPC   C33 3760  -0.237   0.993   6.849 -0.6028 -0.1343  0.4534
   28SAPC   H3X 3761  -0.269   0.915   6.776  2.8348 -0.2206 -1.1959
   28SAPC   H3Y 3762  -0.328   1.055   6.851 -1.4522 -1.3210 -0.2235
   28SAPC   C34 3763  -0.218   0.918   6.980 -0.4964 -0.5415  0.8129
   28SAPC   H4X 3764  -0.204   0.995   7.060 -1.5654  1.1332 -0.5448
   28SAPC   H4Y 3765  -0.127   0.856   6.969 -2.3835 -3.6918  1.9056
   28SAPC   C35 3766  -0.334   0.829   7.021 -0.6218 -0.7088  0.4276
   28SAPC   H5X 3767  -0.333   0.741   6.953 -0.8059 -0.5045  0.1579
   28SAPC   H5Y 3768  -0.433   0.880   7.014 -0.5057  0.4274  4.3865
   28SAPC   C36 3769  -0.330   0.787   7.167  0.3259  0.0236 -0.2532
   28SAPC   H6X 3770  -0.236   0.738   7.198  1.2780  1.6570 -0.4454
   28SAPC   H6Y 3771  -0.417   0.722   7.191 -3.3610  3.8514 -1.8958
   28SAPC   C37 3772  -0.372   0.900   7.268  0.4400  0.1091  0.2587
   28SAPC   H7X 3773  -0.465   0.946   7.227 -0.7621 -1.3347  1.2464
   28SAPC   H7Y 3774  -0.294   0.978   7.276  1.2061 -0.6967  0.7163
   28SAPC   C38 3775  -0.413   0.852   7.410 -0.9578  0.0816  0.0958
   28SAPC   H8X 3776  -0.481   0.766   7.388 -0.4647 -0.0976 -0.7634
   28SAPC   H8Y 3777  -0.458   0.936   7.467  0.4842  0.5774  0.5500
   28SAPC   C39 3778  -0.297   0.793   7.490 -0.6755 -0.3788 -0.4958
   28SAPC   H9X 3779  -0.218   0.871   7.492 -0.6465 -0.4051 -0.6045
   28SAPC   H9Y 3780  -0.256   0.708   7.431  2.2266 -0.1745  1.0196
   28SAPC  C310 3781  -0.326   0.741   7.629  0.1929  0.6660 -0.4993
   28SAPC  H10X 3782  -0.251   0.667   7.665  0.2970  0.6089 -0.8303
   28SAPC  H10Y 3783  -0.420   0.683   7.625  1.2904 -1.5862  2.5790
   28SAPC  C311 3784  -0.331   0.849   7.738  0.2520 -0.2596  0.9103
   28SAPC  H11X 3785  -0.403   0.926   7.703  1.3549  0.2202 -0.3868
   28SAPC  H11Y 3786  -0.233   0.901   7.745  0.7245 -0.6319 -1.7504
   28SAPC  C312 3787  -0.376   0.799   7.873  0.1118 -0.4651 -0.5395
   28SAPC  H12X 3788  -0.454   0.722   7.857  0.2313 -0.3727 -1.6664
   28SAPC  H12Y 3789  -0.418   0.881   7.935 -1.4661 -1.5709 -0.0826
   28SAPC  C313 3790  -0.269   0.745   7.971  0.7855 -0.7678  1.1065
   28SAPC  H13X 3791  -0.193   0.821   7.996  0.9814 -0.7730  0.5343
   28SAPC  H13Y 3792  -0.213   0.660   7.927  0.4394  0.5890 -2.2300
   28SAPC  C314 3793  -0.330   0.709   8.104  0.3433  0.5217  0.1131
   28SAPC  H14X 3794  -0.403   0.625   8.098 -0.1879  1.0629 -1.3483
   28SAPC  H14Y 3795  -0.391   0.796   8.133 -3.5897 -0.7708 -3.3400
   28SAPC  C315 3796  -0.216   0.696   8.206 -0.0808  0.0425 -0.6990
   28SAPC  H15X 3797  -0.138   0.776   8.198 -0.1571  0.1530 -0.3428
   28SAPC  H15Y 3798  -0.159   0.603   8.188  1.0578  0.1630  1.8443
   28SAPC  C316 3799  -0.272   0.704   8.357 -0.0280 -0.0230  0.1103
   28SAPC  H16X 3800  -0.306   0.808   8.378 -0.2780  0.3728 -2.0619
   28SAPC  H16Y 3801  -0.185   0.674   8.419 -0.4087  0.8343  1.0910
   28SAPC  C317 3802  -0.382   0.600   8.390  0.2743  0.6673 -0.0862
   28SAPC  H17X 3803  -0.375   0.510   8.327 -0.8441  1.7782 -1.8773
   28SAPC  H17Y 3804  -0.479   0.653   8.380 -0.9093 -0.6976  2.8413
   28SAPC  C318 3805  -0.379   0.564   8.538  0.2580 -0.3114  0.6327
   28SAPC  H18X 3806  -0.459   0.489   8.554 -0.2117 -0.1034 -0.6238
   28SAPC  H18Y 3807  -0.407   0.644   8.610 -0.0098 -1.4540  1.8371
   28SAPC  H18Z 3808  -0.286   0.512   8.572 -0.0353 -0.6224  0.9602
   29SAPC     N 3809   0.492   3.023   5.912  0.3688 -0.0873  0.3494
   29SAPC   C12 3810   0.576   3.074   6.032 -0.0473 -0.0018 -0.1929
   29SAPC  H12A 3811   0.667   3.017   6.039 -0.2000 -0.2492 -0.2293
   29SAPC  H12B 3812   0.530   3.057   6.128  2.1059 -0.8193  0.7623
   29SAPC   C13 3813   0.353   3.078   5.906 -0.7096 -0.6430 -0.0704
   29SAPC  H13A 3814   0.342   3.185   5.920  0.7460 -0.0455 -2.7850
   29SAPC  H13B 3815   0.303   3.055   5.813  0.7856  0.0095 -1.0889
   29SAPC  H13C 3816   0.289   3.048   5.988 -0.3958 -0.2918  0.3095
   29SAPC   C14 3817   0.564   3.059   5.780 -0.1380 -0.2089  0.3407
   29SAPC  H14A 3818   0.671   3.046   5.791  0.1955  2.4773  1.1428
   29SAPC  H14B 3819   0.543   3.007   5.688  0.9207 -1.3925  0.7511
   29SAPC  H14C 3820   0.561   3.167   5.770  0.8117  0.1084  2.7086
   29SAPC   C15 3821   0.492   2.870   5.917  0.1788 -0.4038 -0.2071
   29SAPC  H15A 3822   0.589   2.827   5.933  1.0677  2.0164  1.4244
   29SAPC  H15B 3823   0.438   2.831   6.002  0.7228 -2.3280 -0.7034
   29SAPC  H15C 3824   0.437   2.832   5.832  0.7980 -1.8637  0.0121
   29SAPC   C11 3825   0.624   3.221   6.025  0.4780  0.1132 -0.5478
   29SAPC  H11A 3826   0.636   3.256   6.129 -2.1815  0.6976 -0.3607
   29SAPC  H11B 3827   0.547   3.279   5.969  0.4615  1.1570  0.5303
   29SAPC     P 3828   0.885   3.156   6.001  0.7802 -0.2022  0.4565
   29SAPC   O13 3829   0.866   3.017   5.970 -0.8370 -0.4824 -0.4119
   29SAPC   O14 3830   0.996   3.226   5.942 -0.1867 -0.0981  0.1855
   29SAPC   O12 3831   0.750   3.228   5.951  0.7458  0.1598 -0.1261
   29SAPC   O11 3832   0.885   3.172   6.158  0.5969  0.2391  0.0437
   29SAPC    C1 3833   0.901   3.302   6.218 -0.1127 -0.0249  0.7920
   29SAPC    HA 3834   1.010   3.325   6.221 -0.1405  0.1315  0.5960
   29SAPC    HB 3835   0.855   3.386   6.163  1.2335  0.7176  0.7567
   29SAPC    C2 3836   0.852   3.295   6.364 -0.0870  0.6620 -0.4392
   29SAPC    HS 3837   0.750   3.340   6.361 -0.6068 -0.5346 -1.3594
   29SAPC   O21 3838   0.945   3.367   6.454 -0.0708 -0.3717  0.0442
   29SAPC   C21 3839   0.906   3.492   6.479  0.1419  0.2807 -0.1995
   29SAPC   O22 3840   0.789   3.530   6.468 -0.5673 -0.0221  0.0386
   29SAPC   C22 3841   1.025   3.588   6.506 -0.8151 -0.1176 -0.7596
   29SAPC   H2R 3842   1.113   3.533   6.545 -0.8236 -0.2502 -0.9278
   29SAPC   H2S 3843   1.048   3.647   6.415  1.1405 -0.7848 -0.7480
   29SAPC    C3 3844   0.845   3.145   6.416 -0.7772 -0.2381 -0.5182
   29SAPC    HX 3845   0.944   3.094   6.409 -0.3440  0.5514 -0.2909
   29SAPC    HY 3846   0.767   3.101   6.350 -1.9943  0.0943  0.6684
   29SAPC   O31 3847   0.793   3.152   6.560 -0.3285  0.6890 -0.2000
   29SAPC   C31 3848   0.822   3.038   6.624 -0.3117  0.3659  0.6471
   29SAPC   O32 3849   0.873   2.939   6.576 -0.1934  0.0969  0.4999
   29SAPC   C32 3850   0.779   3.053   6.766  0.2228  0.1362  0.0871
   29SAPC   H2X 3851   0.668   3.058   6.765  0.2205  0.9069  1.2997
   29SAPC   H2Y 3852   0.825   3.150   6.795  0.4030  0.0460  0.1003
   29SAPC   C23 3853   0.976   3.696   6.610  0.5371 -0.5847  0.2759
   29SAPC   H3R 3854   0.893   3.748   6.557  3.1011  1.5971 -1.9445
   29SAPC   H3S 3855   1.052   3.778   6.612  1.2562 -1.2001 -0.6960
   29SAPC   C24 3856   0.952   3.639   6.738 -0.6025  0.2537 -0.2390
   29SAPC   H4R 3857   0.900   3.541   6.738 -1.0365  0.4795 -0.5942
   29SAPC   H4S 3858   0.886   3.712   6.790  2.8411  1.7429  2.4293
   29SAPC   C25 3859   1.075   3.625   6.822  0.1201  0.2467 -0.8481
   29SAPC   H5R 3860   1.168   3.624   6.764 -0.4440 -2.8244 -1.8982
   29SAPC   C26 3861   1.079   3.633   6.958 -0.4608 -0.3262  0.1832
   29SAPC   H6R 3862   1.175   3.622   7.011 -1.3323  0.3255  2.0085
   29SAPC   C27 3863   0.963   3.655   7.051 -0.1065  0.0881 -0.2061
   29SAPC   H7R 3864   0.933   3.564   7.108  0.4198  0.4851  0.7328
   29SAPC   H7S 3865   0.877   3.691   6.991 -0.1181 -0.0964 -0.3012
   29SAPC   C28 3866   0.982   3.766   7.151  0.2284  0.6390 -0.9326
   29SAPC   H8R 3867   1.002   3.865   7.108  0.3180  0.5429 -1.1141
   29SAPC   C29 3868   0.976   3.750   7.286 -0.4517  0.5255 -0.4924
   29SAPC   H9R 3869   0.987   3.838   7.352 -0.6297 -1.9069  3.1090
   29SAPC  C210 3870   0.966   3.620   7.369 -0.1461  0.0821 -0.3536
   29SAPC  H10R 3871   1.058   3.627   7.432  0.5276 -1.8324 -1.0499
   29SAPC  H10S 3872   0.984   3.523   7.319 -0.0146 -0.6211  0.9982
   29SAPC  C211 3873   0.839   3.622   7.449 -0.0790  0.2007 -0.0116
   29SAPC  H11R 3874   0.747   3.648   7.394 -0.6243 -1.2673  0.1532
   29SAPC  C212 3875   0.829   3.620   7.587 -0.3653  0.2149  0.2141
   29SAPC  H12R 3876   0.727   3.629   7.627 -1.5537 -0.3552 -2.4633
   29SAPC  C213 3877   0.942   3.587   7.688 -0.1923 -0.1801  0.3288
   29SAPC  H13R 3878   1.020   3.527   7.637 -0.5056  2.3670 -3.5592
   29SAPC  H13S 3879   0.904   3.516   7.764 -0.4957  1.2759  1.5860
   29SAPC  C214 3880   1.022   3.695   7.759  0.0130 -0.0531  0.7024
   29SAPC  H14R 3881   1.102   3.740   7.698 -0.7965 -0.3134 -0.5939
   29SAPC  C215 3882   1.002   3.737   7.887  0.3788  0.3408 -0.1300
   29SAPC  H15R 3883   1.054   3.827   7.923  1.5256 -0.7564  1.0552
   29SAPC  C216 3884   0.903   3.674   7.980 -0.0449  0.1093 -1.0142
   29SAPC  H16R 3885   0.817   3.629   7.926  0.0611 -1.0556 -0.2488
   29SAPC  H16S 3886   0.865   3.752   8.049  0.0319  1.3334 -2.3210
   29SAPC  C217 3887   0.977   3.569   8.071 -0.4426  0.1437 -0.4279
   29SAPC  H17R 3888   1.044   3.630   8.135  1.4398 -2.9370  0.7627
   29SAPC  H17S 3889   1.033   3.495   8.010 -1.0930  1.1948 -2.4094
   29SAPC  C218 3890   0.880   3.493   8.162 -0.5185 -0.5419 -0.0468
   29SAPC  H18R 3891   0.835   3.409   8.105  0.0069 -0.2718 -0.8757
   29SAPC  H18S 3892   0.802   3.566   8.193  2.1686  1.2519  3.1455
   29SAPC  C219 3893   0.946   3.448   8.291 -0.1277 -0.0001 -0.1375
   29SAPC  H19R 3894   1.041   3.391   8.286  0.3986  0.9204 -1.1478
   29SAPC  H19S 3895   0.874   3.380   8.341 -0.5583 -1.2302 -2.3243
   29SAPC  C220 3896   0.997   3.565   8.380 -0.4019 -0.2792  0.4202
   29SAPC  H20R 3897   1.075   3.624   8.328 -1.0368 -0.3849 -0.6714
   29SAPC  H20S 3898   1.049   3.526   8.470 -2.2832 -0.4944  1.4662
   29SAPC  H20T 3899   0.914   3.635   8.402 -0.4325 -0.8053  2.1621
   29SAPC   C33 3900   0.817   2.941   6.861 -0.3136  0.1724  0.3401
   29SAPC   H3X 3901   0.928   2.950   6.868 -0.2670 -1.0045  1.6133
   29SAPC   H3Y 3902   0.783   2.842   6.825 -1.2328  0.9204 -0.9274
   29SAPC   C34 3903   0.739   2.962   6.990  0.1615  0.4975 -0.3890
   29SAPC   H4X 3904   0.634   2.930   6.973 -0.2855 -0.3603  3.1209
   29SAPC   H4Y 3905   0.748   3.065   7.030  1.1690  0.2442  0.0730
   29SAPC   C35 3906   0.790   2.862   7.103 -0.0019 -0.3710  0.9842
   29SAPC   H5X 3907   0.898   2.871   7.131  0.1142  1.6209  0.0987
   29SAPC   H5Y 3908   0.771   2.762   7.059 -1.1675  1.4662 -3.0936
   29SAPC   C36 3909   0.702   2.876   7.232 -0.0538 -0.2720 -0.1843
   29SAPC   H6X 3910   0.596   2.858   7.204  0.7914 -2.6291 -2.1245
   29SAPC   H6Y 3911   0.697   2.978   7.277 -1.2399 -0.5701  0.4039
   29SAPC   C37 3912   0.721   2.779   7.353 -0.0690  1.2289  0.2326
   29SAPC   H7X 3913   0.830   2.778   7.378 -0.2793 -0.0826  1.2154
   29SAPC   H7Y 3914   0.695   2.673   7.334  0.8785  0.9883  0.2198
   29SAPC   C38 3915   0.652   2.821   7.483  0.1932 -1.4074  0.0274
   29SAPC   H8X 3916   0.542   2.808   7.475  0.1766 -2.1445  1.2169
   29SAPC   H8Y 3917   0.680   2.927   7.502 -1.4511 -0.7481 -1.0169
   29SAPC   C39 3918   0.692   2.727   7.597  0.4875  0.0765 -0.1148
   29SAPC   H9X 3919   0.797   2.756   7.621  0.2108  0.3454  0.7991
   29SAPC   H9Y 3920   0.691   2.621   7.564 -1.5049  0.0887 -0.2245
   29SAPC  C310 3921   0.593   2.742   7.715 -0.0041  0.8463 -0.6382
   29SAPC  H10X 3922   0.491   2.711   7.681  0.0816 -3.4277  2.2363
   29SAPC  H10Y 3923   0.598   2.850   7.740  0.2046  0.6393  0.2327
   29SAPC  C311 3924   0.616   2.661   7.846  0.2571  0.2312 -0.2252
   29SAPC  H11X 3925   0.718   2.683   7.884  0.1296 -0.5253  0.5974
   29SAPC  H11Y 3926   0.604   2.551   7.834 -0.5687  0.2209  0.5632
   29SAPC  C312 3927   0.521   2.703   7.960 -0.2128 -0.0434 -0.2623
   29SAPC  H12X 3928   0.419   2.679   7.923 -0.6312  1.0325  0.1655
   29SAPC  H12Y 3929   0.535   2.812   7.975  1.5216 -0.0462 -1.5977
   29SAPC  C313 3930   0.535   2.625   8.095 -0.8322 -0.2534 -0.0623
   29SAPC  H13X 3931   0.642   2.626   8.127 -0.7755  0.5628 -0.2624
   29SAPC  H13Y 3932   0.510   2.517   8.083 -2.3852  0.0868 -0.0082
   29SAPC  C314 3933   0.448   2.688   8.211  0.0080  0.5690  0.4972
   29SAPC  H14X 3934   0.346   2.645   8.212  0.4693 -0.6481 -0.9376
   29SAPC  H14Y 3935   0.423   2.790   8.175  0.7843  0.0234 -1.7457
   29SAPC  C315 3936   0.517   2.685   8.346  0.0069  0.3553  0.4371
   29SAPC  H15X 3937   0.447   2.731   8.419 -0.2237  3.9993 -1.7844
   29SAPC  H15Y 3938   0.604   2.749   8.372 -0.4924  0.3403  2.2810
   29SAPC  C316 3939   0.553   2.543   8.395 -0.0669 -0.6651  0.3193
   29SAPC  H16X 3940   0.608   2.492   8.313 -0.3065 -1.4770  0.6543
   29SAPC  H16Y 3941   0.463   2.482   8.417 -1.2010  0.4597 -1.0064
   29SAPC  C317 3942   0.649   2.526   8.510 -0.1042 -0.1562 -0.3762
   29SAPC  H17X 3943   0.631   2.607   8.584 -0.0145 -0.3729 -0.1154
   29SAPC  H17Y 3944   0.754   2.524   8.472  0.9793 -0.0352  2.4070
   29SAPC  C318 3945   0.637   2.386   8.575 -0.5706 -0.1439  0.6389
   29SAPC  H18X 3946   0.698   2.378   8.668  1.3828 -1.2742 -0.6642
   29SAPC  H18Y 3947   0.672   2.305   8.507  0.3682  1.0390 -0.3158
   29SAPC  H18Z 3948   0.532   2.357   8.598 -0.4697  0.0891  1.4316
   30SAPC     N 3949   1.954   3.029   5.742 -0.0442  1.1046  0.0962
   30SAPC   C12 3950   2.032   2.935   5.844 -0.0868 -0.3446 -0.5247
   30SAPC  H12A 3951   2.120   2.989   5.877 -1.3416  0.3596  1.8554
   30SAPC  H12B 3952   2.060   2.854   5.778  1.7919 -0.4209  0.2912
   30SAPC   C13 3953   1.822   2.969   5.709 -0.3807  0.3486 -0.7029
   30SAPC  H13A 3954   1.774   3.020   5.627 -1.3667 -1.2407 -1.1543
   30SAPC  H13B 3955   1.837   2.864   5.691 -0.5408 -0.6939  3.9230
   30SAPC  H13C 3956   1.756   2.972   5.795 -0.6130  0.0188 -0.8733
   30SAPC   C14 3957   1.942   3.169   5.792 -0.3777 -0.0213 -0.6562
   30SAPC  H14A 3958   1.892   3.232   5.720 -2.3602  2.7421  2.7868
   30SAPC  H14B 3959   1.891   3.178   5.887  1.6382  0.4848  0.4317
   30SAPC  H14C 3960   2.042   3.207   5.800 -0.4999  0.2398 -0.3353
   30SAPC   C15 3961   2.027   3.023   5.613 -0.9052 -0.4097 -0.4103
   30SAPC  H15A 3962   2.045   2.923   5.578  0.1244 -0.0957 -0.8220
   30SAPC  H15B 3963   1.964   3.075   5.542 -0.1162  1.3763  0.1285
   30SAPC  H15C 3964   2.119   3.078   5.623 -2.6899  2.3279  3.3129
   30SAPC   C11 3965   1.954   2.887   5.972  0.1708  0.0407  0.6067
   30SAPC  H11A 3966   2.023   2.815   6.023 -0.0821 -1.2766 -0.8334
   30SAPC  H11B 3967   1.865   2.831   5.937  1.1228  0.2901 -2.5415
   30SAPC     P 3968   1.790   3.003   6.136  0.1723  0.1641  0.3052
   30SAPC   O13 3969   1.797   3.104   6.243 -0.1359  0.4906  0.6407
   30SAPC   O14 3970   1.685   3.018   6.035  0.7628 -0.0173  0.2804
   30SAPC   O12 3971   1.927   3.000   6.054  0.6022 -0.3736  0.4440
   30SAPC   O11 3972   1.773   2.863   6.208  0.3967 -0.0628 -0.1726
   30SAPC    C1 3973   1.858   2.820   6.313 -0.3850  0.7625  0.7565
   30SAPC    HA 3974   1.960   2.796   6.275 -0.9780 -1.0148  0.1893
   30SAPC    HB 3975   1.868   2.906   6.382 -0.9416  1.6388 -0.2317
   30SAPC    C2 3976   1.802   2.699   6.389  0.1968  0.0494 -0.4776
   30SAPC    HS 3977   1.791   2.620   6.312  0.6014  0.4732 -0.9800
   30SAPC   O21 3978   1.674   2.736   6.444  0.2776  0.8818  0.2612
   30SAPC   C21 3979   1.590   2.645   6.460  0.6984  0.6475 -0.7815
   30SAPC   O22 3980   1.599   2.523   6.439 -0.2557 -0.3023 -0.5101
   30SAPC   C22 3981   1.469   2.708   6.536 -0.2572 -0.2968  0.8719
   30SAPC   H2R 3982   1.456   2.815   6.507  2.0450  0.1335  1.2353
   30SAPC   H2S 3983   1.376   2.656   6.504  0.0978 -1.2370  1.3332
   30SAPC    C3 3984   1.908   2.656   6.495 -0.5112 -0.3299  0.0045
   30SAPC    HX 3985   2.004   2.644   6.440  0.1195 -0.2419  1.0645
   30SAPC    HY 3986   1.892   2.555   6.538  2.7836 -1.1093 -0.3516
   30SAPC   O31 3987   1.924   2.761   6.595  0.0991 -0.0836  0.3188
   30SAPC   C31 3988   2.026   2.743   6.676 -0.4561 -0.1429 -0.1428
   30SAPC   O32 3989   2.104   2.646   6.678 -0.7295  0.4037  0.1393
   30SAPC   C32 3990   2.041   2.860   6.768  0.8666 -0.0058  0.1462
   30SAPC   H2X 3991   1.952   2.927   6.759 -0.2384 -1.3175  0.9244
   30SAPC   H2Y 3992   2.134   2.913   6.738  1.2155 -0.9539 -0.4753
   30SAPC   C23 3993   1.476   2.692   6.692 -0.5252  0.4515 -0.0825
   30SAPC   H3R 3994   1.472   2.582   6.708 -0.5559  0.1903 -1.7034
   30SAPC   H3S 3995   1.381   2.736   6.730 -1.1078 -1.5355  0.9112
   30SAPC   C24 3996   1.610   2.744   6.762 -0.3172  0.9210 -0.2394
   30SAPC   H4R 3997   1.685   2.676   6.716 -2.2452 -2.1446  0.8419
   30SAPC   H4S 3998   1.599   2.723   6.870  0.8037  2.5573  0.2392
   30SAPC   C25 3999   1.650   2.882   6.736 -0.4479  0.2796  0.4602
   30SAPC   H5R 4000   1.704   2.901   6.642 -0.9361  2.8830  0.6193
   30SAPC   C26 4001   1.630   2.989   6.812 -0.3178 -0.9836 -0.1840
   30SAPC   H6R 4002   1.645   3.090   6.773 -1.6637  0.2736  2.2526
   30SAPC   C27 4003   1.578   2.997   6.948 -0.3942  0.3682  0.1019
   30SAPC   H7R 4004   1.580   2.899   7.000  3.0209 -0.1539 -0.7432
   30SAPC   H7S 4005   1.472   3.032   6.949 -0.8722 -1.0065  1.1471
   30SAPC   C28 4006   1.670   3.096   7.027  0.1513 -0.0001  0.7099
   30SAPC   H8R 4007   1.705   3.182   6.969 -2.6270  0.8236  0.1468
   30SAPC   C29 4008   1.715   3.079   7.152  0.2629 -0.0222 -0.4573
   30SAPC   H9R 4009   1.770   3.162   7.201  0.7162 -1.8572  2.3799
   30SAPC  C210 4010   1.692   2.970   7.248  1.0726 -0.2630 -0.2747
   30SAPC  H10R 4011   1.771   2.960   7.325 -1.5406 -1.0544  2.5023
   30SAPC  H10S 4012   1.686   2.869   7.202 -1.2579 -0.4858  0.3659
   30SAPC  C211 4013   1.573   2.988   7.331  0.1248 -0.0779 -0.3170
   30SAPC  H11R 4014   1.483   2.975   7.269 -1.2940 -0.0732  1.6571
   30SAPC  C212 4015   1.569   3.003   7.461  0.3943 -0.7577  0.3875
   30SAPC  H12R 4016   1.470   3.037   7.494  0.3612 -2.6518  2.4620
   30SAPC  C213 4017   1.679   3.035   7.562  0.9040 -0.2853  1.3205
   30SAPC  H13R 4018   1.649   3.130   7.612  0.9731  2.3674 -3.1710
   30SAPC  H13S 4019   1.773   3.071   7.516  0.8483 -1.2706  0.3932
   30SAPC  C214 4020   1.719   2.916   7.652 -0.1713 -1.1266 -0.2085
   30SAPC  H14R 4021   1.798   2.853   7.608 -0.3535 -1.1553 -0.4980
   30SAPC  C215 4022   1.665   2.890   7.775  0.2385 -0.5037 -0.0280
   30SAPC  H15R 4023   1.693   2.794   7.821  0.2331 -1.7970 -2.5502
   30SAPC  C216 4024   1.562   2.970   7.856  0.0636 -0.5062 -0.2049
   30SAPC  H16R 4025   1.473   2.906   7.873 -0.2042 -0.2506 -0.6448
   30SAPC  H16S 4026   1.530   3.060   7.800  0.2004  0.3772  1.0919
   30SAPC  C217 4027   1.618   3.024   7.989  0.0243 -0.6800  0.2361
   30SAPC  H17R 4028   1.649   2.946   8.062 -1.5487 -1.7224 -0.1603
   30SAPC  H17S 4029   1.533   3.066   8.046 -1.4019 -1.4455 -1.2146
   30SAPC  C218 4030   1.731   3.125   7.968 -0.6018 -0.6283 -0.4562
   30SAPC  H18R 4031   1.704   3.201   7.892  2.4074 -0.1868 -1.1998
   30SAPC  H18S 4032   1.828   3.084   7.934 -0.9222 -1.5395 -0.2941
   30SAPC  C219 4033   1.763   3.221   8.098 -0.2281  0.4426  0.6900
   30SAPC  H19R 4034   1.668   3.273   8.121  0.0184  0.9859  0.4814
   30SAPC  H19S 4035   1.825   3.303   8.056 -1.6057  1.0458 -0.2262
   30SAPC  C220 4036   1.827   3.155   8.216 -0.2471 -0.2163 -0.4289
   30SAPC  H20R 4037   1.927   3.120   8.185  1.7389  4.1853  0.1650
   30SAPC  H20S 4038   1.761   3.080   8.264  0.4869  1.4314  3.6728
   30SAPC  H20T 4039   1.844   3.235   8.292  0.3004  1.3808 -2.1716
   30SAPC   C33 4040   2.065   2.807   6.913 -0.1629 -0.1400  0.1134
   30SAPC   H3X 4041   2.092   2.895   6.976 -0.5989  0.8276 -0.9909
   30SAPC   H3Y 4042   2.162   2.753   6.911 -0.8737 -1.4337 -1.6316
   30SAPC   C34 4043   1.943   2.738   6.977  0.6486  0.3543  0.2080
   30SAPC   H4X 4044   1.948   2.633   6.942 -1.3778 -0.4088  2.0400
   30SAPC   H4Y 4045   1.850   2.792   6.948 -0.5960 -1.3123  0.9636
   30SAPC   C35 4046   1.951   2.727   7.132  0.4346  0.3649  0.5291
   30SAPC   H5X 4047   1.935   2.828   7.175  2.6273  0.8447  0.3218
   30SAPC   H5Y 4048   2.057   2.701   7.154  0.8186  1.7323  0.3857
   30SAPC   C36 4049   1.854   2.622   7.200 -0.5125 -0.4624  0.1390
   30SAPC   H6X 4050   1.857   2.528   7.140 -2.4878  0.1058 -0.9412
   30SAPC   H6Y 4051   1.751   2.659   7.182  0.5935  2.2860 -1.1546
   30SAPC   C37 4052   1.871   2.603   7.345  0.0547  0.1734 -0.5727
   30SAPC   H7X 4053   1.775   2.590   7.399  2.2732 -0.7912  3.4927
   30SAPC   H7Y 4054   1.921   2.695   7.381  0.0028 -0.3894  1.0054
   30SAPC   C38 4055   1.963   2.486   7.381 -0.2401  0.5218  0.0991
   30SAPC   H8X 4056   2.044   2.489   7.305 -0.1139  1.7986  0.2613
   30SAPC   H8Y 4057   1.904   2.393   7.366 -0.1511  0.1817  1.7606
   30SAPC   C39 4058   2.027   2.502   7.524 -0.3888  0.3279  0.0328
   30SAPC   H9X 4059   2.109   2.577   7.521  0.6365 -0.7164  0.9728
   30SAPC   H9Y 4060   2.070   2.403   7.550 -0.3639 -0.0456 -1.3623
   30SAPC  C310 4061   1.923   2.551   7.629 -0.0408  0.0221  0.2371
   30SAPC  H10X 4062   1.838   2.480   7.618  1.0801 -1.2309 -0.6083
   30SAPC  H10Y 4063   1.888   2.652   7.600 -0.0028 -0.7407 -2.8648
   30SAPC  C311 4064   1.958   2.551   7.775 -0.4564  0.9466  0.5045
   30SAPC  H11X 4065   1.897   2.623   7.834  1.7765  2.6643  0.8611
   30SAPC  H11Y 4066   2.056   2.603   7.769  1.1472 -2.0004 -1.5447
   30SAPC  C312 4067   1.960   2.416   7.837 -0.1433  0.9913 -0.6502
   30SAPC  H12X 4068   2.035   2.362   7.775  0.7473  0.2807  0.9638
   30SAPC  H12Y 4069   1.863   2.362   7.827  0.1055  0.2418  0.6384
   30SAPC  C313 4070   2.004   2.424   7.982 -0.1308  0.4976  0.3066
   30SAPC  H13X 4071   1.923   2.481   8.032 -1.0402  1.6494 -2.3128
   30SAPC  H13Y 4072   2.097   2.484   7.990 -0.4482  1.6689 -3.2366
   30SAPC  C314 4073   2.027   2.287   8.047  0.3880 -0.1543 -0.4089
   30SAPC  H14X 4074   2.077   2.216   7.977  2.0011  0.4522  0.0811
   30SAPC  H14Y 4075   1.936   2.240   8.089  1.2003  0.1972  1.8927
   30SAPC  C315 4076   2.124   2.300   8.166  0.0376  0.5368 -0.1681
   30SAPC  H15X 4077   2.102   2.388   8.230  2.0460  0.2725  0.9532
   30SAPC  H15Y 4078   2.227   2.325   8.132 -0.2621 -0.0654 -1.6224
   30SAPC  C316 4079   2.135   2.169   8.244 -0.6003 -0.9694  0.0824
   30SAPC  H16X 4080   2.176   2.106   8.162  0.9591  0.9851 -0.7285
   30SAPC  H16Y 4081   2.034   2.138   8.279 -0.1843 -1.2411  1.0765
   30SAPC  C317 4082   2.243   2.155   8.353 -0.2015 -0.3217 -0.5716
   30SAPC  H17X 4083   2.212   2.065   8.410  0.7679  0.4476  1.2206
   30SAPC  H17Y 4084   2.246   2.244   8.418  0.9920 -0.1933 -0.7840
   30SAPC  C318 4085   2.385   2.128   8.316  0.0017 -0.6826  0.3683
   30SAPC  H18X 4086   2.428   2.063   8.395 -0.7285  1.5745  2.7460
   30SAPC  H18Y 4087   2.450   2.218   8.308 -1.8218  0.6964  0.5284
   30SAPC  H18Z 4088   2.387   2.080   8.216  0.9082  1.9200 -0.9754
   31SAPC     N 4089   4.599   3.271   6.035 -0.1232 -0.2467 -0.2016
   31SAPC   C12 4090   4.606   3.253   6.185  0.2870 -0.2931  0.3754
   31SAPC  H12A 4091   4.525   3.316   6.219  0.5783  0.7638 -0.8184
   31SAPC  H12B 4092   4.703   3.278   6.224 -0.6740  2.6065  1.1760
   31SAPC   C13 4093   4.470   3.220   5.984  0.1269  0.1539  0.5369
   31SAPC  H13A 4094   4.386   3.273   6.026  0.0264  0.4459 -0.0347
   31SAPC  H13B 4095   4.480   3.228   5.877  2.4686 -1.8376  0.5066
   31SAPC  H13C 4096   4.445   3.117   6.004 -0.0858 -0.4127 -2.2722
   31SAPC   C14 4097   4.615   3.412   5.989  0.2890  0.1145 -0.2242
   31SAPC  H14A 4098   4.526   3.466   6.019 -0.2582 -0.3610 -0.9327
   31SAPC  H14B 4099   4.705   3.465   6.017  0.2137 -0.4147  1.0709
   31SAPC  H14C 4100   4.605   3.415   5.881 -1.4263  0.2984 -0.0990
   31SAPC   C15 4101   4.709   3.198   5.967 -0.1709 -0.0451 -0.1731
   31SAPC  H15A 4102   4.809   3.235   5.982 -0.2829  0.3606 -0.3971
   31SAPC  H15B 4103   4.699   3.095   5.998 -0.9236  0.3736  1.0971
   31SAPC  H15C 4104   4.691   3.203   5.861  1.8663  0.4217 -0.5399
   31SAPC   C11 4105   4.578   3.106   6.234 -0.5673  0.0784 -0.6536
   31SAPC  H11A 4106   4.480   3.071   6.197 -0.6482  0.3883 -0.7413
   31SAPC  H11B 4107   4.564   3.113   6.344  1.4683 -1.0104 -0.2886
   31SAPC     P 4108   4.823   3.027   6.273 -0.0535  0.2121  0.0233
   31SAPC   O13 4109   4.848   2.907   6.355  0.4287 -0.5172  0.4091
   31SAPC   O14 4110   4.931   3.064   6.177  0.2704  1.0953  0.0148
   31SAPC   O12 4111   4.684   3.013   6.198 -0.2888  0.3465 -0.0619
   31SAPC   O11 4112   4.807   3.152   6.367  0.0340  0.3074  0.2646
   31SAPC    C1 4113   4.910   3.253   6.371  0.2772 -0.0698 -0.2053
   31SAPC    HA 4114   4.948   3.280   6.270  0.0508  0.9005 -0.0412
   31SAPC    HB 4115   4.868   3.346   6.415  0.5584  0.0827 -0.2599
   31SAPC    C2 4116   5.032   3.216   6.457 -0.0942 -0.3220  0.3232
   31SAPC    HS 4117   5.060   3.113   6.426  0.3596 -0.6583  1.7993
   31SAPC   O21 4118   4.996   3.222   6.590 -0.1589 -0.5228  0.4516
   31SAPC   C21 4119   5.071   3.149   6.671 -0.3166  0.0978 -0.7963
   31SAPC   O22 4120   5.160   3.073   6.631 -0.4715 -0.2843  0.2489
   31SAPC   C22 4121   5.012   3.164   6.809 -0.2112  0.8119  0.1280
   31SAPC   H2R 4122   5.023   3.272   6.830  0.2912  0.9342 -0.7225
   31SAPC   H2S 4123   4.904   3.138   6.805 -0.4878  1.9633 -0.4543
   31SAPC    C3 4124   5.156   3.307   6.432  0.4252 -0.3024 -0.3079
   31SAPC    HX 4125   5.190   3.288   6.328 -0.2862 -2.2490 -0.2140
   31SAPC    HY 4126   5.242   3.279   6.497 -0.8796 -1.7484  0.8502
   31SAPC   O31 4127   5.122   3.450   6.462  0.1934  0.2181 -0.1403
   31SAPC   C31 4128   5.147   3.488   6.584  0.3090  0.6398 -0.4814
   31SAPC   O32 4129   5.189   3.406   6.668 -0.2105  0.9202  0.1676
   31SAPC   C32 4130   5.133   3.640   6.605 -1.1894 -0.9190 -0.1770
   31SAPC   H2X 4131   5.063   3.682   6.529 -0.1790  0.9839 -0.1110
   31SAPC   H2Y 4132   5.231   3.683   6.575 -0.9127 -0.3982  1.3796
   31SAPC   C23 4133   5.094   3.065   6.902  0.7543  0.3804  0.8784
   31SAPC   H3R 4134   5.198   3.105   6.907  0.9360  0.0490 -0.0306
   31SAPC   H3S 4135   5.103   2.965   6.854 -0.9171  0.0938  1.0981
   31SAPC   C24 4136   5.036   3.058   7.039 -0.4959 -0.3198 -0.4526
   31SAPC   H4R 4137   4.929   3.028   7.030 -1.2608  2.6789 -2.9766
   31SAPC   H4S 4138   5.027   3.161   7.079 -0.6039 -0.6663  0.4526
   31SAPC   C25 4139   5.104   2.956   7.136  0.4753  0.2394 -0.7256
   31SAPC   H5R 4140   5.113   2.856   7.091  1.4935 -0.2333  0.4556
   31SAPC   C26 4141   5.145   2.972   7.265 -0.5480 -0.4331 -0.1659
   31SAPC   H6R 4142   5.204   2.888   7.306  1.9172 -0.7825 -3.8768
   31SAPC   C27 4143   5.143   3.090   7.359  0.4366 -0.2796  0.2276
   31SAPC   H7R 4144   5.155   3.062   7.466 -1.0358  1.0690  0.7830
   31SAPC   H7S 4145   5.047   3.145   7.363  0.8863  0.6776 -1.3406
   31SAPC   C28 4146   5.253   3.193   7.324 -0.3159 -0.0726 -0.3488
   31SAPC   H8R 4147   5.254   3.220   7.217 -1.5998 -1.7064 -0.8196
   31SAPC   C29 4148   5.342   3.254   7.412 -0.0766 -0.1918  0.1500
   31SAPC   H9R 4149   5.428   3.310   7.373  1.8307 -3.6472 -1.0134
   31SAPC  C210 4150   5.360   3.238   7.559 -0.0419 -0.3035  0.4100
   31SAPC  H10R 4151   5.467   3.252   7.583 -0.0084 -0.2929  0.2532
   31SAPC  H10S 4152   5.347   3.130   7.579  0.2382 -0.2817  0.7302
   31SAPC  C211 4153   5.264   3.313   7.645 -0.0515 -0.8306  0.2912
   31SAPC  H11R 4154   5.162   3.319   7.606 -0.1290 -1.7646  0.3267
   31SAPC  C212 4155   5.287   3.376   7.759 -0.4647  0.4986  1.0428
   31SAPC  H12R 4156   5.220   3.451   7.804 -0.4295  1.7488 -0.8671
   31SAPC  C213 4157   5.425   3.370   7.817 -0.4154 -0.4350 -0.7914
   31SAPC  H13R 4158   5.442   3.447   7.895  1.5204  1.1757 -2.6809
   31SAPC  H13S 4159   5.495   3.399   7.736 -1.4307 -2.2749 -2.4220
   31SAPC  C214 4160   5.463   3.235   7.873  0.1637  0.2008 -0.0929
   31SAPC  H14R 4161   5.462   3.152   7.802  1.0409  0.1172 -0.0258
   31SAPC  C215 4162   5.502   3.202   8.002  0.4857  0.2715  0.6981
   31SAPC  H15R 4163   5.516   3.095   8.024 -0.4292 -0.1296 -0.5664
   31SAPC  C216 4164   5.509   3.290   8.119 -0.1353  0.1977 -0.7575
   31SAPC  H16R 4165   5.532   3.395   8.091  0.5196  0.0163 -0.9239
   31SAPC  H16S 4166   5.595   3.262   8.184 -0.4127  0.6392 -0.1857
   31SAPC  C217 4167   5.370   3.278   8.187 -0.2849 -0.3660 -0.9107
   31SAPC  H17R 4168   5.336   3.178   8.221 -1.5460  0.5149  0.5448
   31SAPC  H17S 4169   5.299   3.318   8.113  1.6081 -1.0171 -3.1870
   31SAPC  C218 4170   5.364   3.361   8.322 -0.4084 -0.3082 -0.2179
   31SAPC  H18R 4171   5.383   3.464   8.285 -1.6016  0.3265  0.8456
   31SAPC  H18S 4172   5.450   3.332   8.386  0.1924  2.2201  0.2359
   31SAPC  C219 4173   5.228   3.367   8.387  0.0749 -0.5451  0.1527
   31SAPC  H19R 4174   5.188   3.270   8.424 -1.1283  0.8533  2.7868
   31SAPC  H19S 4175   5.153   3.392   8.308  0.1731  1.0859  0.5543
   31SAPC  C220 4176   5.222   3.467   8.500  0.5976  0.1411 -0.1495
   31SAPC  H20R 4177   5.118   3.499   8.521  0.6124 -0.2431  0.5388
   31SAPC  H20S 4178   5.288   3.556   8.498 -1.7292  1.9933  1.2613
   31SAPC  H20T 4179   5.243   3.402   8.588 -1.8121 -0.1595  0.2635
   31SAPC   C33 4180   5.085   3.686   6.743 -0.1872 -0.2675  0.1493
   31SAPC   H3X 4181   4.999   3.626   6.780 -2.8578  3.3962  0.4909
   31SAPC   H3Y 4182   5.030   3.783   6.739 -0.4816 -0.4743 -1.2470
   31SAPC   C34 4183   5.196   3.690   6.850  0.5318 -0.1460  0.4423
   31SAPC   H4X 4184   5.266   3.776   6.840 -1.1834  1.2890  0.2637
   31SAPC   H4Y 4185   5.259   3.599   6.837 -0.8741 -1.6749  3.2958
   31SAPC   C35 4186   5.152   3.680   6.994  0.8840 -0.1223 -0.6129
   31SAPC   H5X 4187   5.080   3.596   6.999 -1.0885  1.5362  0.7573
   31SAPC   H5Y 4188   5.090   3.767   7.024  0.1284 -0.7306 -0.3610
   31SAPC   C36 4189   5.265   3.658   7.095 -0.0115 -0.1363 -0.7998
   31SAPC   H6X 4190   5.356   3.719   7.077 -0.1184  0.4282  0.5346
   31SAPC   H6Y 4191   5.294   3.551   7.091  1.3184  0.1158  1.0777
   31SAPC   C37 4192   5.216   3.696   7.236  0.5149  0.3598 -0.2186
   31SAPC   H7X 4193   5.121   3.643   7.257  2.0780 -2.4830  0.2075
   31SAPC   H7Y 4194   5.188   3.802   7.247  0.9257  0.2714  1.9453
   31SAPC   C38 4195   5.318   3.658   7.347  0.2631  0.6251 -0.1278
   31SAPC   H8X 4196   5.415   3.709   7.325  1.3075 -1.2995 -0.1938
   31SAPC   H8Y 4197   5.339   3.549   7.342  0.0604  0.4920  1.4402
   31SAPC   C39 4198   5.270   3.704   7.486  0.3070  0.5935  0.6855
   31SAPC   H9X 4199   5.181   3.641   7.506  1.8505 -2.2332 -0.8223
   31SAPC   H9Y 4200   5.228   3.806   7.470 -0.7289 -0.0263 -0.7703
   31SAPC  C310 4201   5.374   3.699   7.605  0.7922  0.0618  0.3821
   31SAPC  H10X 4202   5.452   3.776   7.585  2.2519 -0.5363  3.2355
   31SAPC  H10Y 4203   5.419   3.597   7.602  0.3663 -0.1473  0.9971
   31SAPC  C311 4204   5.316   3.731   7.742 -0.6581  0.0744  0.0111
   31SAPC  H11X 4205   5.224   3.676   7.774 -0.5173 -1.4070 -1.9786
   31SAPC  H11Y 4206   5.278   3.835   7.735  1.1862  0.8123  0.3418
   31SAPC  C312 4207   5.430   3.731   7.843  0.1285  0.5889  0.1559
   31SAPC  H12X 4208   5.499   3.815   7.818 -0.8874  0.5582 -3.2229
   31SAPC  H12Y 4209   5.487   3.638   7.824 -0.3128  0.4800 -0.6744
   31SAPC  C313 4210   5.386   3.727   7.989 -0.0948  0.0406  0.5345
   31SAPC  H13X 4211   5.348   3.627   8.020 -2.7614  0.3108 -1.4683
   31SAPC  H13Y 4212   5.296   3.791   8.003 -2.0470 -2.1222 -1.2281
   31SAPC  C314 4213   5.492   3.756   8.087 -0.3275  0.4444  0.0754
   31SAPC  H14X 4214   5.544   3.850   8.057  0.5636 -0.2386 -0.5508
   31SAPC  H14Y 4215   5.576   3.684   8.085 -0.4274  0.2621  1.3924
   31SAPC  C315 4216   5.439   3.780   8.224  0.2715 -0.3546 -0.3898
   31SAPC  H15X 4217   5.391   3.692   8.272  0.0538  0.5047  1.0004
   31SAPC  H15Y 4218   5.353   3.851   8.227  0.8778  0.3636  0.6641
   31SAPC  C316 4219   5.538   3.843   8.325  0.2078  0.4294 -0.0769
   31SAPC  H16X 4220   5.504   3.839   8.431 -1.8244 -1.6352 -0.7313
   31SAPC  H16Y 4221   5.551   3.951   8.299 -1.1715  0.8148  0.7359
   31SAPC  C317 4222   5.675   3.786   8.324  0.3384  0.1608  0.3419
   31SAPC  H17X 4223   5.714   3.789   8.220  0.9002  2.0453  0.5719
   31SAPC  H17Y 4224   5.666   3.676   8.338 -0.8789 -0.0541 -1.7566
   31SAPC  C318 4225   5.774   3.864   8.412  0.5247  0.0272  0.7150
   31SAPC  H18X 4226   5.761   3.844   8.520  0.9064 -1.6684  0.4780
   31SAPC  H18Y 4227   5.758   3.973   8.399 -0.1296 -0.1523 -0.1169
   31SAPC  H18Z 4228   5.879   3.841   8.384 -0.1035 -0.7858 -1.1742
   32SAPC     N 4229   6.752   6.762   6.083  0.1884  0.2200  0.6943
   32SAPC   C12 4230   6.854   6.797   6.188  0.8218 -0.4088 -0.2844
   32SAPC  H12A 4231   6.865   6.905   6.191 -1.4397 -0.1409  0.3728
   32SAPC  H12B 4232   6.952   6.757   6.167  0.3614 -1.3715 -0.6611
   32SAPC   C13 4233   6.796   6.785   5.942 -0.1499  0.3616  0.0989
   32SAPC  H13A 4234   6.869   6.712   5.912 -2.0790 -1.8274  0.4730
   32SAPC  H13B 4235   6.712   6.768   5.877 -0.1187 -0.1589  0.1945
   32SAPC  H13C 4236   6.839   6.882   5.920  1.7243 -0.4207  0.0931
   32SAPC   C14 4237   6.726   6.609   6.108 -0.8476 -0.2134  0.1276
   32SAPC  H14A 4238   6.650   6.575   6.038  0.7940  0.2233 -1.9878
   32SAPC  H14B 4239   6.819   6.558   6.090  0.0214  1.2153  0.4671
   32SAPC  H14C 4240   6.684   6.598   6.207 -2.3928  1.3650 -0.2855
   32SAPC   C15 4241   6.630   6.835   6.098 -0.1328 -0.4358  0.0474
   32SAPC  H15A 4242   6.553   6.791   6.036 -1.3916  1.0133  0.5191
   32SAPC  H15B 4243   6.605   6.823   6.203 -0.4107 -1.9520 -0.1640
   32SAPC  H15C 4244   6.641   6.941   6.082  2.1736 -0.2308  2.3566
   32SAPC   C11 4245   6.809   6.771   6.331  1.0832 -0.0359 -0.8046
   32SAPC  H11A 4246   6.904   6.772   6.388  0.3066 -0.2887  0.5553
   32SAPC  H11B 4247   6.759   6.672   6.342 -0.0144  0.6008  0.2000
   32SAPC     P 4248   6.643   6.852   6.510  0.3974 -0.0677 -0.3995
   32SAPC   O13 4249   6.633   6.970   6.594  0.0495 -0.3513 -0.0857
   32SAPC   O14 4250   6.519   6.802   6.445 -0.2526  0.4032 -0.4939
   32SAPC   O12 4251   6.737   6.882   6.384 -1.0618  0.1547  0.1354
   32SAPC   O11 4252   6.707   6.736   6.594 -0.0937 -0.3690 -0.4587
   32SAPC    C1 4253   6.827   6.773   6.678 -0.6576  0.3506 -0.5363
   32SAPC    HA 4254   6.902   6.695   6.657 -2.9099 -2.1005 -0.0108
   32SAPC    HB 4255   6.866   6.877   6.668  1.3125  0.0498  2.7430
   32SAPC    C2 4256   6.795   6.759   6.824 -0.0210  0.4727 -0.1468
   32SAPC    HS 4257   6.891   6.780   6.875  0.3503  2.4699 -1.5170
   32SAPC   O21 4258   6.751   6.624   6.847 -0.0990  0.3179 -0.1658
   32SAPC   C21 4259   6.859   6.542   6.868  0.3527  0.1011  0.0385
   32SAPC   O22 4260   6.975   6.574   6.845 -0.3803 -0.5897  0.4119
   32SAPC   C22 4261   6.809   6.418   6.938  0.7675  0.0712 -0.3073
   32SAPC   H2R 4262   6.704   6.406   6.904  0.2233  0.9489  0.9896
   32SAPC   H2S 4263   6.868   6.327   6.912  0.7031 -0.8361  2.4454
   32SAPC    C3 4264   6.684   6.851   6.889  0.7897 -0.2037  0.7137
   32SAPC    HX 4265   6.589   6.826   6.837  0.5304  1.8299  0.0990
   32SAPC    HY 4266   6.706   6.956   6.860 -2.8039  0.4122 -0.3222
   32SAPC   O31 4267   6.664   6.820   7.034 -0.6689  0.2608 -0.0265
   32SAPC   C31 4268   6.736   6.897   7.109 -0.2575 -0.0003 -0.3077
   32SAPC   O32 4269   6.799   6.995   7.077 -0.2828 -0.0147 -0.2535
   32SAPC   C32 4270   6.736   6.838   7.245 -0.4983  0.0615  0.6660
   32SAPC   H2X 4271   6.787   6.740   7.230 -0.7026  0.2185 -1.3272
   32SAPC   H2Y 4272   6.633   6.811   7.277 -0.5849  0.4180  0.6905
   32SAPC   C23 4273   6.797   6.435   7.090  0.0007 -0.2537 -0.6233
   32SAPC   H3R 4274   6.735   6.346   7.114  1.6841 -1.1292  0.6402
   32SAPC   H3S 4275   6.744   6.530   7.114 -1.9094 -1.3717 -0.1814
   32SAPC   C24 4276   6.927   6.403   7.165 -0.0648 -0.6400  0.1263
   32SAPC   H4R 4277   7.000   6.458   7.102 -1.5251 -0.0565 -1.1498
   32SAPC   H4S 4278   6.942   6.295   7.143 -2.0343 -0.9813  0.2459
   32SAPC   C25 4279   6.933   6.449   7.308  0.0521 -0.8747  0.0114
   32SAPC   H5R 4280   6.960   6.554   7.322 -0.7976 -0.4279 -1.5425
   32SAPC   C26 4281   6.886   6.386   7.421 -1.2480 -0.8041  0.3619
   32SAPC   H6R 4282   6.882   6.439   7.518 -2.5482  1.0670 -0.6547
   32SAPC   C27 4283   6.820   6.254   7.412 -0.7658 -0.0865  0.4499
   32SAPC   H7R 4284   6.878   6.176   7.466  1.3972  0.2294 -1.2801
   32SAPC   H7S 4285   6.803   6.225   7.306 -0.5406  1.1951  0.0525
   32SAPC   C28 4286   6.677   6.257   7.473 -0.5671 -0.3009  0.1020
   32SAPC   H8R 4287   6.592   6.281   7.407 -1.0518  1.4061  1.2777
   32SAPC   C29 4288   6.656   6.238   7.599 -1.0934 -0.3512 -0.2136
   32SAPC   H9R 4289   6.556   6.239   7.645 -0.9608  1.1446  0.0879
   32SAPC  C210 4290   6.769   6.197   7.697  1.1973 -0.4944 -0.1230
   32SAPC  H10R 4291   6.868   6.244   7.675  0.7518  0.6716  0.2751
   32SAPC  H10S 4292   6.796   6.090   7.694  1.1904 -0.6236  2.1699
   32SAPC  C211 4293   6.728   6.232   7.841 -0.1015 -0.1139  0.3315
   32SAPC  H11R 4294   6.700   6.337   7.859  1.9390  0.6652 -0.6576
   32SAPC  C212 4295   6.702   6.147   7.938 -0.1839 -0.0843 -0.6048
   32SAPC  H12R 4296   6.669   6.176   8.039 -0.4229  2.1507 -1.2633
   32SAPC  C213 4297   6.712   5.998   7.927  0.2423  0.9601  0.5545
   32SAPC  H13R 4298   6.732   5.954   8.027  0.2236 -1.2159 -0.3380
   32SAPC  H13S 4299   6.798   5.973   7.861 -0.8530 -2.6576  0.3036
   32SAPC  C214 4300   6.590   5.924   7.876  0.4175 -0.5469  0.0814
   32SAPC  H14R 4301   6.525   5.998   7.826  0.9737 -0.8432 -1.1040
   32SAPC  C215 4302   6.553   5.799   7.893  0.5484 -0.1602 -0.6189
   32SAPC  H15R 4303   6.457   5.761   7.857  0.1119 -0.4701  0.8021
   32SAPC  C216 4304   6.638   5.693   7.959 -0.1033  0.0622  0.3631
   32SAPC  H16R 4305   6.565   5.637   8.021 -1.1415  2.9853  1.9836
   32SAPC  H16S 4306   6.715   5.737   8.026 -0.6703 -0.3618  1.3154
   32SAPC  C217 4307   6.691   5.621   7.837  0.2571 -0.1307  0.1029
   32SAPC  H17R 4308   6.755   5.690   7.778 -0.5970 -0.8458 -1.7219
   32SAPC  H17S 4309   6.606   5.574   7.784  1.5244 -2.6020  0.0888
   32SAPC  C218 4310   6.794   5.508   7.883 -0.5380  0.6117  0.2651
   32SAPC  H18R 4311   6.883   5.554   7.933  1.2816 -1.9632 -0.3941
   32SAPC  H18S 4312   6.841   5.466   7.792  1.8578 -3.9548  3.2321
   32SAPC  C219 4313   6.727   5.399   7.966  0.0701 -0.9921  0.5180
   32SAPC  H19R 4314   6.635   5.366   7.912 -1.6966  0.9727  2.1436
   32SAPC  H19S 4315   6.682   5.439   8.060  0.1105  1.1407 -0.3164
   32SAPC  C220 4316   6.819   5.287   8.015  0.4217 -0.3646  0.3048
   32SAPC  H20R 4317   6.768   5.200   8.060 -1.8167  0.9994  0.5319
   32SAPC  H20S 4318   6.882   5.339   8.090  0.4372  0.7386 -0.4328
   32SAPC  H20T 4319   6.885   5.266   7.928  0.2510  1.6139 -0.3662
   32SAPC   C33 4320   6.810   6.921   7.353  0.0277 -0.5300 -0.3820
   32SAPC   H3X 4321   6.744   7.008   7.367 -0.3898 -0.4180 -2.5792
   32SAPC   H3Y 4322   6.902   6.968   7.311  0.1583 -0.3031  0.1589
   32SAPC   C34 4323   6.851   6.846   7.474  0.0213  0.0464 -0.2509
   32SAPC   H4X 4324   6.874   6.925   7.549  0.5422 -0.2683 -0.0747
   32SAPC   H4Y 4325   6.945   6.794   7.449  0.1423  0.9715 -1.8891
   32SAPC   C35 4326   6.754   6.745   7.538  0.3667 -0.9172 -0.4020
   32SAPC   H5X 4327   6.726   6.678   7.454 -3.7604 -0.0905  0.0987
   32SAPC   H5Y 4328   6.667   6.807   7.565  0.3181 -1.0109 -0.3403
   32SAPC   C36 4329   6.804   6.672   7.661 -0.1696 -0.4319 -0.3541
   32SAPC   H6X 4330   6.909   6.645   7.635  0.1477  1.3151 -1.0247
   32SAPC   H6Y 4331   6.745   6.579   7.677  0.9148 -0.9659  0.7406
   32SAPC   C37 4332   6.803   6.754   7.795 -0.2850 -0.0498 -0.0208
   32SAPC   H7X 4333   6.704   6.743   7.846  0.1597  0.2825  0.9349
   32SAPC   H7Y 4334   6.810   6.864   7.782 -1.0930 -0.0769 -0.7705
   32SAPC   C38 4335   6.917   6.705   7.893  0.3822 -0.6583 -0.4737
   32SAPC   H8X 4336   6.914   6.765   7.986 -0.0014  3.2897 -2.8275
   32SAPC   H8Y 4337   7.006   6.739   7.837 -0.7835  0.5941 -1.6321
   32SAPC   C39 4338   6.906   6.554   7.926  0.1061 -0.1561 -0.3279
   32SAPC   H9X 4339   6.948   6.502   7.837  1.5215 -2.1668  1.4094
   32SAPC   H9Y 4340   6.795   6.544   7.933  0.0392  0.8546  0.2207
   32SAPC  C310 4341   6.985   6.521   8.051 -0.0418  0.2582 -0.2204
   32SAPC  H10X 4342   6.931   6.548   8.144  0.6771  1.4857 -0.1451
   32SAPC  H10Y 4343   7.083   6.574   8.046 -0.2420  0.6306 -0.2212
   32SAPC  C311 4344   7.024   6.365   8.068 -0.2904 -0.7947  0.7682
   32SAPC  H11X 4345   7.082   6.338   7.978 -0.2512  0.5475  0.3818
   32SAPC  H11Y 4346   6.923   6.319   8.081 -0.3505 -0.5866  1.0596
   32SAPC  C312 4347   7.118   6.338   8.189 -0.2448  0.4572 -0.5177
   32SAPC  H12X 4348   7.077   6.407   8.266  0.6197  0.0559  0.3195
   32SAPC  H12Y 4349   7.221   6.379   8.185 -0.6084  1.2773 -1.9084
   32SAPC  C313 4350   7.120   6.195   8.241  0.0437  0.2269  0.9459
   32SAPC  H13X 4351   7.015   6.165   8.260  0.4728 -1.6577  0.5762
   32SAPC  H13Y 4352   7.169   6.205   8.340  2.8985  0.7985 -0.4016
   32SAPC  C314 4353   7.200   6.090   8.163 -0.1294  0.0811  0.3455
   32SAPC  H14X 4354   7.196   5.998   8.225  3.0197  0.0501  0.6537
   32SAPC  H14Y 4355   7.306   6.124   8.168  0.5873 -1.5907 -2.0096
   32SAPC  C315 4356   7.147   6.044   8.018 -0.3270 -0.6651 -0.0031
   32SAPC  H15X 4357   7.197   6.117   7.951  1.2167 -1.2500  0.4692
   32SAPC  H15Y 4358   7.037   6.049   8.007 -0.8741 -3.0795  2.8819
   32SAPC  C316 4359   7.213   5.915   7.967 -0.0261  0.9167 -0.4081
   32SAPC  H16X 4360   7.160   5.829   8.014 -0.2739  2.0257  1.4339
   32SAPC  H16Y 4361   7.319   5.923   7.998 -0.6648  1.4369  1.8239
   32SAPC  C317 4362   7.208   5.898   7.815  0.6987  0.4170  0.1572
   32SAPC  H17X 4363   7.252   5.796   7.803  0.9214  0.6113 -0.7525
   32SAPC  H17Y 4364   7.272   5.967   7.756 -1.2380  1.5756 -0.6785
   32SAPC  C318 4365   7.073   5.904   7.746  0.0801  0.3260  0.1340
   32SAPC  H18X 4366   7.018   5.999   7.762 -0.1102 -0.1013  2.2070
   32SAPC  H18Y 4367   7.001   5.825   7.776  0.4356  0.0993  0.4081
   32SAPC  H18Z 4368   7.086   5.887   7.636 -0.2120  0.0823  0.1349
   33POPC     N 4369   3.245   5.256  10.619  0.4794 -0.8917 -0.4465
   33POPC   C12 4370   3.339   5.318  10.517 -0.7700 -0.4675  0.6339
   33POPC  H12A 4371   3.277   5.344  10.433 -0.7262  0.3583  0.8521
   33POPC  H12B 4372   3.404   5.243  10.472 -2.3879 -2.0106  0.7503
   33POPC   C13 4373   3.187   5.132  10.565  0.4879 -0.1403  0.5772
   33POPC  H13A 4374   3.117   5.085  10.633  0.5185 -1.6936 -0.4154
   33POPC  H13B 4375   3.153   5.155  10.466  3.1208  1.0017 -0.1395
   33POPC  H13C 4376   3.265   5.057  10.562 -0.3840 -1.0550  0.0860
   33POPC   C14 4377   3.318   5.223  10.752 -0.5408 -0.0536 -0.1904
   33POPC  H14A 4378   3.256   5.193  10.836 -0.1740 -0.7448 -0.1565
   33POPC  H14B 4379   3.394   5.147  10.747 -0.6891 -0.3191  1.1821
   33POPC  H14C 4380   3.366   5.312  10.791  0.3514 -1.1875  1.4318
   33POPC   C15 4381   3.128   5.343  10.654  0.4771 -0.0079  0.4248
   33POPC  H15A 4382   3.162   5.443  10.676 -0.5681  0.3472  0.4803
   33POPC  H15B 4383   3.066   5.297  10.729 -0.2693  0.3812  0.0577
   33POPC  H15C 4384   3.062   5.355  10.569  2.2279  2.1706 -0.7238
   33POPC   C11 4385   3.399   5.458  10.555  0.3501  0.3469 -0.3769
   33POPC  H11A 4386   3.465   5.477  10.467  0.6194  0.6034 -0.1199
   33POPC  H11B 4387   3.464   5.461  10.645 -0.0395  1.0853 -0.1091
   33POPC     P 4388   3.295   5.682  10.662  0.2408  0.3710  0.0317
   33POPC   O13 4389   3.331   5.631  10.796  0.2164 -0.2778 -0.1260
   33POPC   O14 4390   3.177   5.764  10.641  0.7658 -0.4791 -0.5686
   33POPC   O12 4391   3.292   5.557  10.559 -0.0376  0.4637  0.0265
   33POPC   O11 4392   3.417   5.773  10.617  0.4469 -0.2423  0.5451
   33POPC    C1 4393   3.394   5.880  10.531 -0.3018 -0.1096 -0.4020
   33POPC    HA 4394   3.302   5.941  10.548 -2.2096 -3.3163  1.9497
   33POPC    HB 4395   3.480   5.949  10.526  0.8645 -1.2760  1.9534
   33POPC    C2 4396   3.387   5.834  10.387  0.4876  0.5635  0.0329
   33POPC    HS 4397   3.296   5.770  10.383  0.2882  0.7269  1.4469
   33POPC   O21 4398   3.496   5.750  10.357  0.2089  0.7708  0.1629
   33POPC   C21 4399   3.482   5.653  10.264  0.1508  0.4823 -0.7084
   33POPC   O22 4400   3.389   5.626  10.195 -0.5558  0.0254  0.2556
   33POPC   C22 4401   3.621   5.575  10.265  0.2674  0.0073  0.4567
   33POPC   H2R 4402   3.642   5.521  10.360  3.2718  0.3711  0.0814
   33POPC   H2S 4403   3.714   5.631  10.245 -0.0732  0.0910 -0.9766
   33POPC    C3 4404   3.378   5.947  10.289 -0.2145 -0.7485 -0.8861
   33POPC    HX 4405   3.459   6.019  10.314 -2.0715  0.9334  0.6021
   33POPC    HY 4406   3.287   6.009  10.301  0.5968  0.6098 -1.4630
   33POPC   O31 4407   3.396   5.915  10.149  0.5802  0.0050  0.7946
   33POPC   C31 4408   3.285   5.908  10.079  0.7381  0.1201  0.0985
   33POPC   O32 4409   3.169   5.940  10.113 -0.9634 -0.7474 -0.6831
   33POPC   C32 4410   3.309   5.835   9.948 -0.5864 -0.0613 -0.2119
   33POPC   H2X 4411   3.288   5.728   9.966  1.0754 -0.8396 -2.4777
   33POPC   H2Y 4412   3.416   5.845   9.921 -0.2364  3.2782  1.8347
   33POPC   C23 4413   3.608   5.479  10.149  0.1121  0.2280 -0.1417
   33POPC   H3R 4414   3.525   5.406  10.159 -0.2715  0.9447  2.8808
   33POPC   H3S 4415   3.700   5.418  10.152 -0.0100  0.0598  1.6267
   33POPC   C24 4416   3.612   5.549  10.008 -0.5225  0.2145 -0.3136
   33POPC   H4R 4417   3.720   5.572   9.990  0.0104 -0.9534  1.2000
   33POPC   H4S 4418   3.547   5.639  10.008 -3.3708 -1.7270  1.1423
   33POPC   C25 4419   3.560   5.458   9.898  0.1169 -0.4652 -0.2455
   33POPC   H5R 4420   3.467   5.412   9.938  2.3173 -3.5003  1.8578
   33POPC   H5S 4421   3.626   5.368   9.896 -1.0664 -1.6570  3.9432
   33POPC   C26 4422   3.557   5.526   9.763 -0.2415 -0.5982  0.3429
   33POPC   H6R 4423   3.660   5.560   9.741 -0.3131  0.4391  1.5450
   33POPC   H6S 4424   3.488   5.612   9.749 -0.4824 -0.3274  2.7490
   33POPC   C27 4425   3.534   5.431   9.644 -0.4815  1.1541  0.0085
   33POPC   H7R 4426   3.455   5.362   9.680  0.7852  0.0071  0.6701
   33POPC   H7S 4427   3.626   5.373   9.623 -1.3428 -0.1285 -0.3008
   33POPC   C28 4428   3.489   5.500   9.524  0.6702 -0.0670  0.3332
   33POPC   H8R 4429   3.392   5.553   9.541 -0.5165 -2.1820  0.4549
   33POPC   H8S 4430   3.457   5.417   9.458 -1.5131  0.2816  0.8600
   33POPC   C29 4431   3.594   5.591   9.463  0.0165 -0.5070  0.4289
   33POPC   H91 4432   3.689   5.580   9.517  0.1256  2.1852  0.9504
   33POPC  C210 4433   3.597   5.655   9.346  0.5242 -0.0691  0.4394
   33POPC  H101 4434   3.690   5.701   9.310 -0.1626  0.0669 -1.2616
   33POPC  C211 4435   3.482   5.666   9.253 -0.0947  0.1111  0.6537
   33POPC  H11R 4436   3.476   5.767   9.207  0.0169  0.8851  2.2299
   33POPC  H11S 4437   3.384   5.639   9.297  0.3064 -2.3128  0.1959
   33POPC  C212 4438   3.489   5.574   9.123 -0.4355 -0.2120  0.5347
   33POPC  H12R 4439   3.389   5.553   9.080 -0.9417 -2.1400  2.4618
   33POPC  H12S 4440   3.532   5.475   9.151 -2.3195 -0.5965  2.2751
   33POPC  C213 4441   3.597   5.630   9.031  0.1716  0.4804  0.2116
   33POPC  H13R 4442   3.694   5.633   9.084  0.9080 -0.0971 -1.0643
   33POPC  H13S 4443   3.578   5.737   9.007 -2.6433  0.3550  1.4829
   33POPC  C214 4444   3.624   5.560   8.905  0.6046  0.0351  0.2404
   33POPC  H14R 4445   3.642   5.451   8.914 -1.1831 -0.2834  0.3609
   33POPC  H14S 4446   3.716   5.600   8.858  0.0886 -0.6311 -1.4194
   33POPC  C215 4447   3.500   5.564   8.806 -0.0683 -0.3492 -0.2404
   33POPC  H15R 4448   3.470   5.669   8.786  3.5625  0.6509 -1.2790
   33POPC  H15S 4449   3.421   5.512   8.865  1.7270 -0.1868  2.4905
   33POPC  C216 4450   3.528   5.495   8.666  0.2118  0.6555 -0.2528
   33POPC  H16R 4451   3.587   5.403   8.684  0.6383  0.8907 -0.4294
   33POPC  H16S 4452   3.584   5.565   8.600 -0.7206 -0.2702 -2.0944
   33POPC  C217 4453   3.402   5.454   8.595  0.0877 -0.3284  0.2139
   33POPC  H17R 4454   3.335   5.541   8.608  0.1422 -0.5231  2.1262
   33POPC  H17S 4455   3.359   5.362   8.641 -1.1142  0.9240  1.7066
   33POPC  C218 4456   3.422   5.427   8.438  0.5534  0.1560 -0.6573
   33POPC  H18R 4457   3.465   5.518   8.392  1.2198 -0.2981 -0.9497
   33POPC  H18S 4458   3.324   5.399   8.394  0.8654 -1.3037 -0.4897
   33POPC  H18T 4459   3.493   5.341   8.429  3.2746  2.4426 -2.6347
   33POPC   C33 4460   3.213   5.887   9.836 -0.1837  0.3328  0.1088
   33POPC   H3X 4461   3.108   5.873   9.869 -0.3686 -1.7065 -1.1822
   33POPC   H3Y 4462   3.231   5.813   9.755 -1.7156  0.6893 -0.5921
   33POPC   C34 4463   3.243   6.018   9.778 -0.1443  0.7288 -0.1954
   33POPC   H4X 4464   3.349   6.040   9.755  0.1242 -0.4187 -0.1107
   33POPC   H4Y 4465   3.196   6.091   9.847  1.3030  0.3704  1.2081
   33POPC   C35 4466   3.161   6.042   9.645  0.3313 -0.1423  0.4060
   33POPC   H5X 4467   3.157   6.153   9.639 -0.3072 -0.2108 -0.5797
   33POPC   H5Y 4468   3.055   6.012   9.652  0.2599  0.0193  0.0191
   33POPC   C36 4469   3.236   5.983   9.531 -0.6332 -0.0054 -0.4953
   33POPC   H6X 4470   3.250   5.873   9.542  0.3513  0.2477  1.0764
   33POPC   H6Y 4471   3.340   6.020   9.521 -0.6624  0.6702  1.2966
   33POPC   C37 4472   3.168   6.002   9.397  0.9213 -0.7289 -0.9939
   33POPC   H7X 4473   3.147   6.111   9.393 -0.4795 -0.8823  0.7426
   33POPC   H7Y 4474   3.074   5.943   9.389  0.1268  0.1025  1.2544
   33POPC   C38 4475   3.259   5.975   9.279 -0.6437 -0.2704  0.1751
   33POPC   H8X 4476   3.307   5.874   9.278  1.2060  0.5495 -1.5971
   33POPC   H8Y 4477   3.343   6.048   9.275 -1.1570  0.2975 -3.0068
   33POPC   C39 4478   3.186   5.993   9.148  0.5250 -0.8490  0.0551
   33POPC   H9X 4479   3.144   6.095   9.161 -0.2328 -1.2779  1.1991
   33POPC   H9Y 4480   3.103   5.919   9.143  0.5016 -1.2507  3.5991
   33POPC  C310 4481   3.262   5.983   9.023 -1.0928 -0.3340 -0.2315
   33POPC  H10X 4482   3.300   5.879   9.023 -2.1363 -0.7638  2.2105
   33POPC  H10Y 4483   3.345   6.057   9.024  0.1031 -1.6402 -0.5573
   33POPC  C311 4484   3.189   6.012   8.889  0.3240  0.2728  0.5231
   33POPC  H11X 4485   3.101   5.944   8.886  1.5268 -1.3245  0.1348
   33POPC  H11Y 4486   3.255   5.984   8.804  1.1840  0.9493  0.9515
   33POPC  C312 4487   3.139   6.154   8.890 -0.1853 -0.5091 -0.9602
   33POPC  H12X 4488   3.222   6.224   8.916  0.5004 -0.6973 -2.5212
   33POPC  H12Y 4489   3.051   6.169   8.956  0.1194  0.5692 -0.7816
   33POPC  C313 4490   3.107   6.202   8.747 -0.9415  0.3982  0.7732
   33POPC  H13X 4491   3.073   6.116   8.686  0.8927 -0.4759  0.9261
   33POPC  H13Y 4492   3.197   6.235   8.690 -1.2254  0.0926  0.1363
   33POPC  C314 4493   3.005   6.322   8.757  0.0974  0.1713 -0.4856
   33POPC  H14X 4494   3.039   6.407   8.821 -0.3455 -0.3459  0.4687
   33POPC  H14Y 4495   2.912   6.290   8.810 -0.5555  0.8290 -1.1869
   33POPC  C315 4496   2.982   6.390   8.625  0.1384 -0.3656 -0.4922
   33POPC  H15X 4497   2.920   6.320   8.565  1.5079 -1.3966 -0.7687
   33POPC  H15Y 4498   3.084   6.413   8.588  1.0937  0.0582  2.2160
   33POPC  C316 4499   2.906   6.520   8.640 -0.0137 -0.0000  0.3725
   33POPC  H16X 4500   2.894   6.577   8.545  1.2043  0.9925  0.7882
   33POPC  H16Y 4501   2.968   6.587   8.704  2.0041 -0.6807 -0.7666
   33POPC  H16Z 4502   2.804   6.500   8.678  0.5618 -0.0268  1.9871
   34POPC     N 4503   3.175   6.089  10.973 -0.6538  0.2418 -0.6617
   34POPC   C12 4504   3.203   6.219  10.912  0.5935 -0.3832  0.0829
   34POPC  H12A 4505   3.270   6.279  10.971 -1.6646  2.7099 -0.1977
   34POPC  H12B 4506   3.114   6.278  10.893  0.4681 -0.6269 -0.0963
   34POPC   C13 4507   3.100   6.114  11.102  0.5625  0.0881  0.0747
   34POPC  H13A 4508   3.089   6.016  11.145  1.4877 -0.3141 -0.5642
   34POPC  H13B 4509   3.161   6.174  11.168  0.7286  0.8648 -0.7629
   34POPC  H13C 4510   3.000   6.152  11.087  0.2012 -0.5784  0.7322
   34POPC   C14 4511   3.088   6.012  10.884 -0.1510  0.8712 -0.1642
   34POPC  H14A 4512   3.068   5.918  10.932 -1.2415  0.1021 -2.0202
   34POPC  H14B 4513   2.993   6.061  10.871 -1.8710 -1.6651  1.7728
   34POPC  H14C 4514   3.137   5.988  10.791 -0.0335  1.8172 -0.3577
   34POPC   C15 4515   3.299   6.009  11.011 -0.0151  0.2085 -1.1197
   34POPC  H15A 4516   3.339   6.060  11.098 -1.5422 -0.4983  0.0537
   34POPC  H15B 4517   3.372   5.998  10.932 -0.0117 -1.2505 -0.9494
   34POPC  H15C 4518   3.286   5.909  11.051  0.1066  1.2250  1.7146
   34POPC   C11 4519   3.268   6.220  10.769 -0.1572 -0.1588 -0.0802
   34POPC  H11A 4520   3.268   6.323  10.727  0.7917  0.2388  0.8400
   34POPC  H11B 4521   3.212   6.154  10.699 -4.0774  0.3895  2.2633
   34POPC     P 4522   3.514   6.283  10.743  0.2702  0.2668  0.0312
   34POPC   O13 4523   3.635   6.216  10.701 -0.2936  0.5831 -0.2541
   34POPC   O14 4524   3.530   6.376  10.859 -0.1110 -0.1164  0.1990
   34POPC   O12 4525   3.402   6.174  10.776 -0.0481  0.0117  0.1376
   34POPC   O11 4526   3.462   6.364  10.615 -0.6216 -0.3348 -0.9475
   34POPC    C1 4527   3.467   6.313  10.489  0.0201  0.0602 -0.1192
   34POPC    HA 4528   3.433   6.207  10.480  0.6555 -0.1008 -0.6569
   34POPC    HB 4529   3.574   6.302  10.464  0.9559 -0.4687  3.6364
   34POPC    C2 4530   3.403   6.407  10.395  0.4961 -0.0543  0.3670
   34POPC    HS 4531   3.298   6.417  10.429  0.0973 -0.2136 -0.7611
   34POPC   O21 4532   3.396   6.336  10.267 -0.0845  0.1274  0.0829
   34POPC   C21 4533   3.315   6.390  10.180 -0.3618 -0.2738 -0.3697
   34POPC   O22 4534   3.247   6.489  10.203 -0.2690 -0.4719 -0.0367
   34POPC   C22 4535   3.331   6.322  10.047 -0.5352  0.3789 -1.0807
   34POPC   H2R 4536   3.228   6.306  10.009 -1.5076 -0.9388  1.8210
   34POPC   H2S 4537   3.388   6.228  10.062 -1.3472  0.0087 -0.2384
   34POPC    C3 4538   3.468   6.553  10.399 -0.3322 -0.5171 -0.1922
   34POPC    HX 4539   3.577   6.540  10.416  0.7921 -0.7994 -5.6169
   34POPC    HY 4540   3.427   6.616  10.480  2.6156  0.1153  0.9423
   34POPC   O31 4541   3.471   6.626  10.271 -0.3220 -0.4976 -0.3302
   34POPC   C31 4542   3.591   6.634  10.210  0.0141 -1.4592  0.0641
   34POPC   O32 4543   3.691   6.575  10.238 -0.4307 -0.5965  0.1701
   34POPC   C32 4544   3.582   6.743  10.097 -0.2731 -0.1738 -0.4340
   34POPC   H2X 4545   3.633   6.831  10.141 -1.0592 -0.6579  1.5582
   34POPC   H2Y 4546   3.475   6.765  10.081  0.2076  0.9253 -2.4326
   34POPC   C23 4547   3.399   6.420   9.947 -0.3114  0.3705 -0.4835
   34POPC   H3R 4548   3.509   6.417   9.958  0.0010 -1.1085 -3.3147
   34POPC   H3S 4549   3.368   6.526   9.954 -0.0346  0.3622  1.5198
   34POPC   C24 4550   3.381   6.381   9.798  0.5595 -0.2986  0.3327
   34POPC   H4R 4551   3.281   6.403   9.754  1.7690  0.2593 -2.2710
   34POPC   H4S 4552   3.393   6.272   9.780  1.5918  0.2061 -2.3653
   34POPC   C25 4553   3.482   6.441   9.702 -0.7038 -0.4012  0.2209
   34POPC   H5R 4554   3.581   6.402   9.737  0.5988  2.3199 -0.1448
   34POPC   H5S 4555   3.486   6.551   9.709 -1.6844 -0.3517  0.1152
   34POPC   C26 4556   3.457   6.395   9.557 -0.1104  0.3090 -0.3159
   34POPC   H6R 4557   3.424   6.290   9.552 -0.9858  0.6045 -1.0753
   34POPC   H6S 4558   3.557   6.395   9.508  1.2792  2.6880  2.2185
   34POPC   C27 4559   3.362   6.473   9.472 -0.3472 -0.1243 -1.2312
   34POPC   H7R 4560   3.343   6.571   9.519 -2.6547 -1.0513 -0.0798
   34POPC   H7S 4561   3.263   6.424   9.479 -0.0143 -0.5484  1.5343
   34POPC   C28 4562   3.405   6.487   9.325 -0.3458 -0.4303  0.5947
   34POPC   H8R 4563   3.387   6.387   9.281  0.6518  0.1557 -1.2405
   34POPC   H8S 4564   3.511   6.517   9.332 -0.7526  1.2095  0.2838
   34POPC   C29 4565   3.327   6.601   9.255  0.3952 -0.1875 -0.7005
   34POPC   H91 4566   3.310   6.684   9.326 -0.2470  1.7478 -2.9661
   34POPC  C210 4567   3.270   6.598   9.132  0.0089 -0.5829  0.4404
   34POPC  H101 4568   3.214   6.689   9.104  4.8112  2.3826 -0.7957
   34POPC  C211 4569   3.271   6.485   9.041  0.1218  0.4347 -0.1833
   34POPC  H11R 4570   3.172   6.436   9.048  0.1270  0.3842 -0.4531
   34POPC  H11S 4571   3.355   6.415   9.061 -0.3420 -0.3626 -0.9950
   34POPC  C212 4572   3.280   6.532   8.894  0.2124 -0.4446  0.1567
   34POPC  H12R 4573   3.193   6.590   8.859  0.5329 -0.5603 -0.8489
   34POPC  H12S 4574   3.265   6.433   8.846  1.6723 -1.1328  1.0223
   34POPC  C213 4575   3.419   6.581   8.853 -0.3818 -0.4079  0.0198
   34POPC  H13R 4576   3.507   6.525   8.892 -0.2528 -0.5757 -0.5112
   34POPC  H13S 4577   3.427   6.689   8.878 -0.9531 -0.1749 -0.7750
   34POPC  C214 4578   3.432   6.585   8.696 -0.4583 -0.0392  0.0690
   34POPC  H14R 4579   3.415   6.482   8.659 -0.5252  0.8641 -2.6273
   34POPC  H14S 4580   3.538   6.608   8.671 -0.4559 -0.1331 -0.0080
   34POPC  C215 4581   3.334   6.680   8.633 -0.7233 -0.1428 -0.3897
   34POPC  H15R 4582   3.350   6.783   8.669 -0.5892  0.2751 -1.6077
   34POPC  H15S 4583   3.231   6.654   8.666 -2.0037  1.7416 -2.6171
   34POPC  C216 4584   3.355   6.681   8.482  0.2008 -0.3236 -0.3001
   34POPC  H16R 4585   3.264   6.715   8.428  0.4254 -0.5769 -0.8407
   34POPC  H16S 4586   3.366   6.576   8.448  2.6982  0.0195 -0.7247
   34POPC  C217 4587   3.462   6.771   8.424 -0.2430  0.3909  0.6635
   34POPC  H17R 4588   3.560   6.763   8.475  0.3114 -2.0060 -0.6388
   34POPC  H17S 4589   3.432   6.878   8.421 -1.3057  0.1095 -2.0777
   34POPC  C218 4590   3.506   6.728   8.282  0.1114 -0.1767 -0.1235
   34POPC  H18R 4591   3.537   6.621   8.279 -1.4080 -0.6120 -1.5844
   34POPC  H18S 4592   3.582   6.797   8.239  0.2533 -0.0970  0.2503
   34POPC  H18T 4593   3.417   6.747   8.219 -1.3239 -0.0311  1.8303
   34POPC   C33 4594   3.636   6.679   9.968 -0.1409  0.5637 -0.2851
   34POPC   H3X 4595   3.568   6.703   9.883 -1.0759  0.8005  0.5218
   34POPC   H3Y 4596   3.642   6.568   9.970 -1.0355  0.5253  0.8795
   34POPC   C34 4597   3.780   6.738   9.925  0.2122  0.2624  0.1353
   34POPC   H4X 4598   3.855   6.715  10.004  1.5166 -0.7255 -1.3337
   34POPC   H4Y 4599   3.771   6.849   9.917 -1.1259  0.2152  0.7553
   34POPC   C35 4600   3.829   6.668   9.799 -0.3920  0.0557 -0.4003
   34POPC   H5X 4601   3.792   6.563   9.799 -0.9909  0.1980  2.1047
   34POPC   H5Y 4602   3.938   6.649   9.812 -0.5889  0.7969  3.4699
   34POPC   C36 4603   3.790   6.742   9.677 -0.3353 -0.1997  0.6871
   34POPC   H6X 4604   3.839   6.842   9.674  1.7513 -1.1830  0.7671
   34POPC   H6Y 4605   3.679   6.754   9.683 -0.4024 -0.6621  0.3525
   34POPC   C37 4606   3.828   6.672   9.546 -0.0387 -0.6824  0.3261
   34POPC   H7X 4607   3.790   6.567   9.550 -0.5822 -0.5536 -0.9254
   34POPC   H7Y 4608   3.938   6.666   9.531 -0.3229  0.2743 -2.7867
   34POPC   C38 4609   3.766   6.742   9.434 -0.4148  0.7053 -0.3008
   34POPC   H8X 4610   3.784   6.852   9.434 -1.2476  0.8443  0.1657
   34POPC   H8Y 4611   3.657   6.721   9.435 -0.6761  1.4631 -3.3303
   34POPC   C39 4612   3.819   6.688   9.302 -0.3912  0.6385 -0.4360
   34POPC   H9X 4613   3.796   6.579   9.300  0.1876  0.3400  3.1148
   34POPC   H9Y 4614   3.930   6.691   9.301 -0.4127  1.8939  0.0270
   34POPC  C310 4615   3.750   6.752   9.189 -0.4309  0.0937  0.3243
   34POPC  H10X 4616   3.756   6.863   9.187  0.3671  0.0487 -0.3831
   34POPC  H10Y 4617   3.644   6.721   9.197 -0.5285  0.0373 -0.9626
   34POPC  C311 4618   3.788   6.711   9.039 -0.5029  0.3112  0.4049
   34POPC  H11X 4619   3.894   6.746   9.038 -0.4096  0.1477  2.0660
   34POPC  H11Y 4620   3.730   6.775   8.969 -0.7932 -1.1568 -0.7593
   34POPC  C312 4621   3.785   6.560   9.012  0.0243 -0.1947  0.5270
   34POPC  H12X 4622   3.692   6.518   9.055  0.1529 -1.2756 -0.1994
   34POPC  H12Y 4623   3.862   6.512   9.076 -1.6897 -0.1930  2.6894
   34POPC  C313 4624   3.796   6.512   8.865 -0.0971  0.1763 -1.2118
   34POPC  H13X 4625   3.730   6.574   8.802  1.5376  0.0946 -3.1065
   34POPC  H13Y 4626   3.755   6.409   8.863 -0.7735  0.2809  1.6555
   34POPC  C314 4627   3.930   6.522   8.802 -0.5352 -0.1681 -0.0186
   34POPC  H14X 4628   4.012   6.474   8.859 -0.6391 -0.0318  0.2472
   34POPC  H14Y 4629   3.954   6.630   8.798  1.5750 -0.6248 -1.0600
   34POPC  C315 4630   3.947   6.444   8.671  1.4164 -0.0712  0.1005
   34POPC  H15X 4631   3.928   6.339   8.703  1.5625  0.7266  3.0495
   34POPC  H15Y 4632   4.047   6.439   8.623  0.8929  0.4594 -1.0787
   34POPC  C316 4633   3.844   6.480   8.558 -0.1385 -0.1077 -0.0279
   34POPC  H16X 4634   3.865   6.577   8.508  0.6207 -0.8288 -1.1787
   34POPC  H16Y 4635   3.745   6.504   8.601  0.0219  1.0802 -0.2890
   34POPC  H16Z 4636   3.827   6.393   8.490 -0.5297  0.0896 -0.1848
   35POPC     N 4637   1.299   3.960  10.704 -0.5944 -0.2430 -0.2169
   35POPC   C12 4638   1.435   3.903  10.681  0.1672 -0.4390  0.1680
   35POPC  H12A 4639   1.504   3.983  10.705 -0.7897  1.0672 -1.7968
   35POPC  H12B 4640   1.443   3.893  10.573  0.9328  1.8799 -0.0562
   35POPC   C13 4641   1.277   3.981  10.856 -0.2151  1.3279  0.1240
   35POPC  H13A 4642   1.352   4.049  10.892  0.5645 -0.5496  2.2795
   35POPC  H13B 4643   1.171   3.999  10.868 -0.4917  1.4770 -2.1362
   35POPC  H13C 4644   1.294   3.883  10.898 -0.0720  0.0202 -2.7504
   35POPC   C14 4645   1.277   4.087  10.627 -1.0698  0.4787  0.7402
   35POPC  H14A 4646   1.354   4.159  10.652  0.7950 -0.3754 -2.0731
   35POPC  H14B 4647   1.289   4.073  10.521  0.5241  0.1687  0.9314
   35POPC  H14C 4648   1.184   4.136  10.652 -0.1880  2.0867  0.9764
   35POPC   C15 4649   1.185   3.869  10.655 -0.0814 -0.0164 -1.0081
   35POPC  H15A 4650   1.152   3.891  10.555  0.9612 -2.0576 -1.8673
   35POPC  H15B 4651   1.100   3.888  10.719 -0.0398 -1.4202 -0.5057
   35POPC  H15C 4652   1.214   3.765  10.664  2.6487  0.7500 -0.0292
   35POPC   C11 4653   1.467   3.771  10.755  0.1334 -0.1714 -0.3150
   35POPC  H11A 4654   1.431   3.775  10.860 -0.2921 -1.8282 -0.3571
   35POPC  H11B 4655   1.577   3.755  10.753  0.5910  2.6140 -1.4842
   35POPC     P 4656   1.453   3.581  10.569 -0.6845 -0.1686 -0.0554
   35POPC   O13 4657   1.349   3.510  10.496  0.5382  0.0083 -0.3550
   35POPC   O14 4658   1.565   3.497  10.616 -0.1031 -0.3339  0.5818
   35POPC   O12 4659   1.393   3.664  10.692 -0.5048 -0.0201 -0.1451
   35POPC   O11 4660   1.515   3.693  10.482 -0.1265 -0.7268  0.3871
   35POPC    C1 4661   1.454   3.761  10.373 -0.2408 -0.1675 -0.5932
   35POPC    HA 4662   1.497   3.863  10.361  0.0692 -0.3784 -1.3612
   35POPC    HB 4663   1.346   3.780  10.390 -0.1842 -0.3404 -0.0244
   35POPC    C2 4664   1.475   3.691  10.236 -0.5815  0.0671  0.0428
   35POPC    HS 4665   1.459   3.582  10.251 -0.5246  0.1914  1.0669
   35POPC   O21 4666   1.603   3.735  10.185 -0.2139  0.4932 -0.0127
   35POPC   C21 4667   1.661   3.654  10.099 -0.5852  0.1526  0.0887
   35POPC   O22 4668   1.626   3.539  10.077  0.3142  0.0476 -0.3610
   35POPC   C22 4669   1.775   3.725  10.023  0.2077  0.1186  0.0159
   35POPC   H2R 4670   1.862   3.684  10.078 -0.4045  0.6583  1.4266
   35POPC   H2S 4671   1.784   3.831  10.055  2.1772 -0.3563  1.1484
   35POPC    C3 4672   1.360   3.723  10.136  0.0232 -0.6858 -1.0895
   35POPC    HX 4673   1.354   3.834  10.131  0.4878 -0.4763  1.7559
   35POPC    HY 4674   1.260   3.712  10.184  0.0504  2.1970 -0.2041
   35POPC   O31 4675   1.375   3.667  10.005  0.1239  0.5713 -0.5726
   35POPC   C31 4676   1.331   3.541   9.990 -0.1869  0.0157 -0.5849
   35POPC   O32 4677   1.260   3.479  10.071  0.4588 -0.0030 -0.3827
   35POPC   C32 4678   1.369   3.487   9.852 -0.0442  0.7888 -0.0917
   35POPC   H2X 4679   1.284   3.420   9.826 -0.0503  0.9491 -0.5030
   35POPC   H2Y 4680   1.467   3.435   9.855 -1.6324 -2.4693  0.0040
   35POPC   C23 4681   1.791   3.701   9.876  0.0413 -0.0189  0.4355
   35POPC   H3R 4682   1.724   3.764   9.814 -0.8346 -1.7258 -0.4201
   35POPC   H3S 4683   1.771   3.595   9.850 -2.9438  0.1739  1.5324
   35POPC   C24 4684   1.933   3.721   9.825  0.5751  0.0732  0.0441
   35POPC   H4R 4685   2.003   3.657   9.882  0.8914 -1.4571 -1.9471
   35POPC   H4S 4686   1.958   3.828   9.836 -2.0262  0.7505  0.1614
   35POPC   C25 4687   1.955   3.692   9.674  0.0843 -0.3041  0.4112
   35POPC   H5R 4688   1.880   3.740   9.607 -0.6331  0.5311  1.7633
   35POPC   H5S 4689   1.933   3.583   9.667  2.5209 -0.8328 -0.0073
   35POPC   C26 4690   2.100   3.708   9.626 -0.3466  0.4391  0.6201
   35POPC   H6R 4691   2.158   3.631   9.681  0.4801  1.8929  1.8616
   35POPC   H6S 4692   2.138   3.809   9.652  2.8858 -0.2593 -0.9399
   35POPC   C27 4693   2.122   3.688   9.478 -0.8948 -0.7073  0.5301
   35POPC   H7R 4694   2.108   3.783   9.423 -1.5679 -0.3394  1.3219
   35POPC   H7S 4695   2.046   3.612   9.448 -0.5916 -1.0036  0.5060
   35POPC   C28 4696   2.267   3.657   9.445 -0.5075  0.4147  0.6836
   35POPC   H8R 4697   2.315   3.596   9.525  0.1234 -1.3746 -0.9650
   35POPC   H8S 4698   2.337   3.743   9.459  0.8542 -0.6275  0.5104
   35POPC   C29 4699   2.281   3.586   9.312  0.1983  0.2164 -0.1391
   35POPC   H91 4700   2.272   3.477   9.301  0.6072  0.0909  0.7125
   35POPC  C210 4701   2.288   3.655   9.194 -0.4329  0.7455 -0.3683
   35POPC  H101 4702   2.298   3.604   9.097  0.3148 -0.6359  0.4167
   35POPC  C211 4703   2.284   3.804   9.183  0.1480  0.0887 -0.2122
   35POPC  H11R 4704   2.267   3.857   9.279  3.0614 -0.1481  0.5269
   35POPC  H11S 4705   2.190   3.827   9.128 -0.2243  0.7327  0.6800
   35POPC  C212 4706   2.400   3.875   9.110 -0.4735 -0.3244  0.1962
   35POPC  H12R 4707   2.498   3.830   9.138  0.2664  3.1919  4.1821
   35POPC  H12S 4708   2.403   3.979   9.150  1.8498 -1.0008  1.9998
   35POPC  C213 4709   2.382   3.876   8.955 -0.3617  0.2361 -0.5242
   35POPC  H13R 4710   2.292   3.925   8.913 -0.4815 -0.3101 -0.9230
   35POPC  H13S 4711   2.371   3.768   8.933  0.0687 -0.1015  0.8344
   35POPC  C214 4712   2.497   3.924   8.876 -0.0505  0.1342 -0.3694
   35POPC  H14R 4713   2.582   3.855   8.893 -0.1747  0.2530  0.7940
   35POPC  H14S 4714   2.524   4.022   8.920  0.8870 -0.3302  0.1195
   35POPC  C215 4715   2.471   3.941   8.726 -0.2257  0.4214 -0.0158
   35POPC  H15R 4716   2.414   4.035   8.718  2.5095  2.1870  0.0140
   35POPC  H15S 4717   2.398   3.866   8.686  0.4682  0.1013 -0.7131
   35POPC  C216 4718   2.599   3.938   8.639  0.5191  0.3201  0.0227
   35POPC  H16R 4719   2.655   3.845   8.661  0.0239 -0.3077 -1.2765
   35POPC  H16S 4720   2.655   4.031   8.663 -1.0616  1.0072  1.2763
   35POPC  C217 4721   2.564   3.954   8.489 -0.5221 -0.0581 -0.0543
   35POPC  H17R 4722   2.657   3.963   8.428 -0.6452 -1.9407 -0.5825
   35POPC  H17S 4723   2.509   4.050   8.489  1.3379  1.0537 -0.6065
   35POPC  C218 4724   2.491   3.838   8.425  0.3365 -0.0462  0.3241
   35POPC  H18R 4725   2.399   3.810   8.482  0.1732  1.2992  0.7565
   35POPC  H18S 4726   2.557   3.749   8.432 -1.6414 -1.6703 -0.5427
   35POPC  H18T 4727   2.452   3.863   8.324 -1.6831  0.1612  1.1007
   35POPC   C33 4728   1.368   3.594   9.746 -0.1045  0.2217  0.1710
   35POPC   H3X 4729   1.448   3.668   9.769  1.6426 -0.6766 -2.5374
   35POPC   H3Y 4730   1.270   3.644   9.736  0.0684  0.2541 -1.5700
   35POPC   C34 4731   1.414   3.542   9.608 -0.1812 -0.2619 -0.3210
   35POPC   H4X 4732   1.495   3.468   9.627  2.3533  2.4457  0.2125
   35POPC   H4Y 4733   1.471   3.626   9.563  0.3864  1.1879  2.7765
   35POPC   C35 4734   1.303   3.490   9.524  0.2819 -0.4719 -0.1034
   35POPC   H5X 4735   1.221   3.563   9.515  1.0715  0.3365 -0.8767
   35POPC   H5Y 4736   1.264   3.409   9.591  1.2464  0.3112  1.4708
   35POPC   C36 4737   1.340   3.462   9.384 -0.3017  0.0261  0.1767
   35POPC   H6X 4738   1.398   3.551   9.352 -0.4833 -0.3425 -1.2480
   35POPC   H6Y 4739   1.251   3.457   9.318  0.0110  0.2846 -0.2752
   35POPC   C37 4740   1.434   3.347   9.358  0.2736 -0.1014  0.1043
   35POPC   H7X 4741   1.391   3.255   9.402  1.3742 -0.1871  1.0513
   35POPC   H7Y 4742   1.531   3.376   9.404  0.9210  1.6369 -2.1739
   35POPC   C38 4743   1.465   3.333   9.209 -0.0412  0.3464 -0.0263
   35POPC   H8X 4744   1.371   3.315   9.152  0.1372  0.1260 -0.2527
   35POPC   H8Y 4745   1.531   3.246   9.190 -2.5603 -1.9525  1.0459
   35POPC   C39 4746   1.545   3.453   9.153  0.0638 -0.2894 -0.2635
   35POPC   H9X 4747   1.483   3.545   9.143  0.6503  0.1957  0.4394
   35POPC   H9Y 4748   1.563   3.436   9.045  1.6301  0.1094 -0.0857
   35POPC  C310 4749   1.679   3.475   9.229 -0.1608 -0.3852 -0.2208
   35POPC  H10X 4750   1.742   3.384   9.239 -0.3144 -0.5062 -0.3494
   35POPC  H10Y 4751   1.657   3.501   9.334 -2.2029  2.0623 -1.1494
   35POPC  C311 4752   1.759   3.593   9.166 -0.4990  0.7079  0.2250
   35POPC  H11X 4753   1.855   3.597   9.222 -0.0257 -1.7156 -0.3070
   35POPC  H11Y 4754   1.709   3.692   9.176 -0.2652  0.7757  0.8031
   35POPC  C312 4755   1.796   3.570   9.018  0.7391 -0.5455 -0.5504
   35POPC  H12X 4756   1.703   3.569   8.957 -0.0569  0.7120  0.5859
   35POPC  H12Y 4757   1.828   3.464   9.010 -0.6844 -1.1932  1.6449
   35POPC  C313 4758   1.900   3.676   8.962 -0.1919  0.8101  0.5044
   35POPC  H13X 4759   1.996   3.654   9.014 -1.1325 -1.7007  1.3224
   35POPC  H13Y 4760   1.868   3.776   9.001 -0.5416 -0.4574  3.8491
   35POPC  C314 4761   1.905   3.676   8.808 -0.2273  0.4289 -0.0070
   35POPC  H14X 4762   1.803   3.679   8.765  0.6245 -0.1692 -2.2046
   35POPC  H14Y 4763   1.939   3.574   8.779 -0.0331  0.3891  0.3535
   35POPC  C315 4764   1.997   3.780   8.762  0.3836 -0.5899 -0.1856
   35POPC  H15X 4765   2.099   3.774   8.805  1.5158 -1.5832 -2.8034
   35POPC  H15Y 4766   1.963   3.880   8.797  0.0123 -0.0175 -2.0706
   35POPC  C316 4767   2.019   3.766   8.609  0.3917  0.3054 -0.9698
   35POPC  H16X 4768   2.089   3.842   8.570 -1.3752  2.9572  0.6891
   35POPC  H16Y 4769   1.925   3.771   8.549  1.0620 -1.3973 -2.2448
   35POPC  H16Z 4770   2.054   3.663   8.583  2.9380  0.5226  1.1714
   36POPC     N 4771   1.369   3.372  10.928 -0.7046  0.0967  0.3419
   36POPC   C12 4772   1.522   3.377  10.928 -0.5027 -0.5505 -0.5345
   36POPC  H12A 4773   1.565   3.417  11.019  1.6339  0.4100 -1.8940
   36POPC  H12B 4774   1.553   3.456  10.860 -0.4180  0.8264  1.0437
   36POPC   C13 4775   1.327   3.316  10.791  0.4071  0.8571  0.2280
   36POPC  H13A 4776   1.221   3.323  10.774  0.5322  0.4174 -0.8085
   36POPC  H13B 4777   1.376   3.373  10.713  0.0700 -0.4464 -0.9701
   36POPC  H13C 4778   1.366   3.215  10.785 -2.2021 -0.4577  3.1494
   36POPC   C14 4779   1.327   3.291  11.049 -0.6893 -0.2309  0.2285
   36POPC  H14A 4780   1.219   3.286  11.063 -0.7029  1.3768  0.9002
   36POPC  H14B 4781   1.377   3.196  11.060  1.1791  0.7913  0.9268
   36POPC  H14C 4782   1.363   3.349  11.132  1.9099 -1.6017  0.1552
   36POPC   C15 4783   1.310   3.508  10.929 -0.1885  1.2143 -1.3894
   36POPC  H15A 4784   1.350   3.573  10.853  1.6934 -0.5085 -1.9736
   36POPC  H15B 4785   1.339   3.553  11.023 -1.4598 -0.1478 -0.2830
   36POPC  H15C 4786   1.202   3.504  10.928 -0.2857  1.4914  0.9753
   36POPC   C11 4787   1.601   3.250  10.896  0.9009 -0.6190 -0.1025
   36POPC  H11A 4788   1.711   3.266  10.896  1.0625 -1.5974 -1.3232
   36POPC  H11B 4789   1.574   3.222  10.792  1.4266  0.3461 -0.5188
   36POPC     P 4790   1.531   3.005  10.939 -0.1596 -0.1961 -0.1672
   36POPC   O13 4791   1.402   3.018  10.869  0.3305 -0.0604 -0.1762
   36POPC   O14 4792   1.539   2.911  11.058  0.2287  0.3422 -0.1112
   36POPC   O12 4793   1.577   3.148  10.993  0.5170 -0.7574  0.0664
   36POPC   O11 4794   1.648   2.960  10.842  0.4277 -0.1968 -0.8786
   36POPC    C1 4795   1.667   3.002  10.701  0.0782  0.8634  0.0300
   36POPC    HA 4796   1.730   3.092  10.694 -0.2746  1.0671 -0.6115
   36POPC    HB 4797   1.564   3.017  10.660 -0.9016  1.2620  2.4771
   36POPC    C2 4798   1.719   2.884  10.615 -0.8544 -0.2590 -0.2937
   36POPC    HS 4799   1.813   2.854  10.665 -1.2797 -0.4968  0.3787
   36POPC   O21 4800   1.730   2.921  10.477  0.6856  0.0712  0.0007
   36POPC   C21 4801   1.816   3.010  10.441  0.3496 -1.2831  0.9915
   36POPC   O22 4802   1.908   3.052  10.506 -0.1199  0.1389 -0.1068
   36POPC   C22 4803   1.787   3.044  10.299 -0.0528  0.0736  0.9264
   36POPC   H2R 4804   1.826   3.146  10.279  0.8154 -0.5357 -0.6676
   36POPC   H2S 4805   1.677   3.033  10.286 -0.5359 -0.5558  4.4698
   36POPC    C3 4806   1.619   2.767  10.621 -0.1993 -0.1378 -0.0255
   36POPC    HX 4807   1.516   2.810  10.621 -0.6373 -1.0963 -1.3514
   36POPC    HY 4808   1.641   2.715  10.716  1.1856  0.4548  0.0003
   36POPC   O31 4809   1.612   2.682  10.511  0.0389 -0.1670  0.0538
   36POPC   C31 4810   1.714   2.595  10.506 -0.7080 -0.1625 -0.7736
   36POPC   O32 4811   1.791   2.576  10.599  0.5301  0.0076 -0.6433
   36POPC   C32 4812   1.729   2.525  10.366  0.2220  0.3017 -0.5475
   36POPC   H2X 4813   1.773   2.427  10.395 -1.0502  0.3861  2.0054
   36POPC   H2Y 4814   1.803   2.587  10.313  0.7597 -0.1605 -0.3512
   36POPC   C23 4815   1.857   2.947  10.196 -0.2745  0.0717 -0.0144
   36POPC   H3R 4816   1.845   2.843  10.235 -2.8291  0.3256  0.0937
   36POPC   H3S 4817   1.967   2.961  10.190 -0.5087  1.4249 -2.0835
   36POPC   C24 4818   1.801   2.960  10.057 -0.1307 -0.2351  0.4461
   36POPC   H4R 4819   1.884   2.985   9.988 -2.2714 -0.7603 -2.5043
   36POPC   H4S 4820   1.724   3.040  10.047 -0.5818 -0.6307  0.7218
   36POPC   C25 4821   1.733   2.838  10.012  0.5972  0.5338 -0.3197
   36POPC   H5R 4822   1.648   2.804  10.075  1.3166  2.0960  1.6180
   36POPC   H5S 4823   1.811   2.760  10.025  0.4645  0.6071  1.1363
   36POPC   C26 4824   1.695   2.852   9.867  0.2372  0.7437  0.1257
   36POPC   H6R 4825   1.771   2.915   9.816  2.1128 -1.5561 -0.0503
   36POPC   H6S 4826   1.594   2.899   9.860  0.0479  0.3575  0.2452
   36POPC   C27 4827   1.695   2.713   9.802  0.0317 -0.1870  0.3036
   36POPC   H7R 4828   1.631   2.637   9.853  0.9769 -0.8824  0.4754
   36POPC   H7S 4829   1.798   2.676   9.820 -0.3783 -0.7930  1.5472
   36POPC   C28 4830   1.683   2.725   9.649 -0.2590  0.0459  0.2077
   36POPC   H8R 4831   1.757   2.796   9.607 -0.5976  0.4847  0.3583
   36POPC   H8S 4832   1.586   2.776   9.634 -0.0635  0.6253  0.8801
   36POPC   C29 4833   1.683   2.586   9.595  0.1345  0.2202  0.0299
   36POPC   H91 4834   1.607   2.518   9.637  1.3736 -2.0317 -1.1232
   36POPC  C210 4835   1.743   2.538   9.484 -0.0514 -0.1426  0.1244
   36POPC  H101 4836   1.729   2.433   9.456  0.3222  0.2410 -1.6385
   36POPC  C211 4837   1.829   2.617   9.384  0.3232  0.2208 -0.0111
   36POPC  H11R 4838   1.852   2.716   9.430 -1.2556  0.6575 -0.1090
   36POPC  H11S 4839   1.776   2.630   9.287  0.5212  1.9453  0.0761
   36POPC  C212 4840   1.962   2.557   9.351 -0.4402 -0.2404 -0.9227
   36POPC  H12R 4841   1.998   2.597   9.254  0.2395 -0.9803 -0.9827
   36POPC  H12S 4842   1.942   2.448   9.349 -1.0476 -0.1763  0.3468
   36POPC  C213 4843   2.068   2.583   9.461  0.4884 -0.0930  0.1357
   36POPC  H13R 4844   2.064   2.692   9.481 -0.3462  0.0045 -0.4987
   36POPC  H13S 4845   2.170   2.559   9.424  0.5226 -0.2337  0.3203
   36POPC  C214 4846   2.053   2.503   9.588 -1.2127 -0.5918 -0.0796
   36POPC  H14R 4847   2.043   2.396   9.559  0.6999 -0.5949 -0.8806
   36POPC  H14S 4848   1.966   2.522   9.654 -0.7256 -2.9590  1.3624
   36POPC  C215 4849   2.187   2.507   9.668 -0.3994  0.0875 -0.1547
   36POPC  H15R 4850   2.224   2.611   9.653 -2.4633  0.9031  0.0486
   36POPC  H15S 4851   2.267   2.446   9.621 -0.8367 -0.6389  0.0338
   36POPC  C216 4852   2.167   2.466   9.823  0.3271 -0.3150  1.0184
   36POPC  H16R 4853   2.258   2.491   9.881  1.1112 -0.8280  0.0489
   36POPC  H16S 4854   2.133   2.360   9.824 -1.7608  0.2937  0.4518
   36POPC  C217 4855   2.053   2.554   9.889 -0.2996  0.3379  0.0904
   36POPC  H17R 4856   2.043   2.546  10.000 -0.7286 -0.9799 -0.0188
   36POPC  H17S 4857   1.951   2.521   9.858 -0.2585  0.9724 -0.7245
   36POPC  C218 4858   2.073   2.704   9.861 -0.3085  0.6499  0.0918
   36POPC  H18R 4859   2.178   2.734   9.883 -0.8740  1.2465  2.2476
   36POPC  H18S 4860   2.007   2.770   9.921  1.3325  1.2487  1.3031
   36POPC  H18T 4861   2.044   2.721   9.755 -2.0737  1.1553  0.6194
   36POPC   C33 4862   1.611   2.517  10.265  0.6245 -0.1017  0.2183
   36POPC   H3X 4863   1.599   2.621  10.227  0.8969  0.0220  0.4658
   36POPC   H3Y 4864   1.516   2.485  10.313  1.0528  0.8728  1.7690
   36POPC   C34 4865   1.649   2.421  10.151 -0.5942 -0.2333  0.0605
   36POPC   H4X 4866   1.679   2.322  10.190  1.3366  1.0309  2.0288
   36POPC   H4Y 4867   1.735   2.467  10.098  2.3410 -1.3888  3.4860
   36POPC   C35 4868   1.520   2.397  10.072  0.3662 -0.2604  0.2463
   36POPC   H5X 4869   1.469   2.492  10.045  0.4165 -0.5063 -0.7604
   36POPC   H5Y 4870   1.436   2.345  10.123 -1.4174 -0.4999 -2.6853
   36POPC   C36 4871   1.556   2.327   9.938  0.0938  0.0597  1.5647
   36POPC   H6X 4872   1.617   2.237   9.961 -2.0185 -1.8463  0.1445
   36POPC   H6Y 4873   1.632   2.399   9.899  0.1605 -1.4221 -1.3665
   36POPC   C37 4874   1.440   2.296   9.841 -0.2566 -0.4534  0.3233
   36POPC   H7X 4875   1.379   2.386   9.820  1.6730  1.3430  1.9484
   36POPC   H7Y 4876   1.377   2.225   9.899  2.0362 -1.3954  1.7939
   36POPC   C38 4877   1.488   2.237   9.708  0.5733  0.2496 -0.8520
   36POPC   H8X 4878   1.562   2.301   9.657  0.5230  1.3235  0.3709
   36POPC   H8Y 4879   1.403   2.230   9.637 -1.2078  0.8167  1.1026
   36POPC   C39 4880   1.554   2.103   9.732  0.0512 -0.0249  0.5565
   36POPC   H9X 4881   1.476   2.027   9.750  2.2920 -2.9135 -1.0930
   36POPC   H9Y 4882   1.610   2.093   9.828  2.0103  2.0033 -0.2711
   36POPC  C310 4883   1.638   2.058   9.614  0.3292  0.8439  0.3212
   36POPC  H10X 4884   1.690   1.967   9.652 -0.6373  0.7283  1.4299
   36POPC  H10Y 4885   1.713   2.129   9.574 -1.7042  1.9251 -1.7772
   36POPC  C311 4886   1.557   1.993   9.503 -0.0047 -0.3874  0.6565
   36POPC  H11X 4887   1.479   2.068   9.478  1.7101  1.6121  1.0751
   36POPC  H11Y 4888   1.504   1.899   9.530 -0.7317 -0.8954 -2.2146
   36POPC  C312 4889   1.635   1.957   9.371 -0.3023 -0.3393  0.2234
   36POPC  H12X 4890   1.561   1.914   9.300 -1.8296  0.8770  1.0089
   36POPC  H12Y 4891   1.712   1.877   9.382 -0.9352 -1.6661 -3.6670
   36POPC  C313 4892   1.704   2.080   9.305 -0.0370  0.1440 -0.0436
   36POPC  H13X 4893   1.809   2.095   9.338  0.8220 -0.0028 -2.4776
   36POPC  H13Y 4894   1.642   2.170   9.322  0.6603  0.6620 -0.2084
   36POPC  C314 4895   1.716   2.073   9.156 -0.2355 -0.0090 -0.3761
   36POPC  H14X 4896   1.618   2.042   9.114 -0.2936 -2.3366  1.2594
   36POPC  H14Y 4897   1.793   1.995   9.136 -0.9605 -1.1663  1.1430
   36POPC  C315 4898   1.774   2.202   9.088 -0.1578  0.2992 -0.1936
   36POPC  H15X 4899   1.869   2.214   9.144  0.2714 -3.9406  0.3558
   36POPC  H15Y 4900   1.729   2.302   9.107  1.6151  1.1764 -0.4242
   36POPC  C316 4901   1.795   2.199   8.931  0.5067  0.0873 -0.8714
   36POPC  H16X 4902   1.702   2.177   8.875 -0.3285  0.3484  0.3921
   36POPC  H16Y 4903   1.866   2.117   8.907  0.1913 -0.5235  0.2270
   36POPC  H16Z 4904   1.840   2.293   8.890 -1.5750  1.9872  0.9322
   37POPC     N 4905   2.292   0.179   5.775  0.2987  0.2533 -0.5416
   37POPC   C12 4906   2.174   0.144   5.863  0.4273 -0.1964  0.8157
   37POPC  H12A 4907   2.155   0.037   5.861 -2.5829  0.2375  1.0664
   37POPC  H12B 4908   2.088   0.198   5.827  1.5239  1.8904  1.1999
   37POPC   C13 4909   2.334   0.320   5.783 -0.0140 -0.2052 -0.9194
   37POPC  H13A 4910   2.251   0.383   5.754 -1.1975 -2.4332 -2.6703
   37POPC  H13B 4911   2.387   0.333   5.877 -0.4430 -1.2459 -0.5232
   37POPC  H13C 4912   2.424   0.332   5.724  0.1267  0.7529 -0.5334
   37POPC   C14 4913   2.402   0.099   5.813 -0.1026 -0.0385  0.9474
   37POPC  H14A 4914   2.405   0.002   5.764 -1.5478  1.2364 -1.9035
   37POPC  H14B 4915   2.495   0.147   5.787  0.1149 -1.9015 -2.2777
   37POPC  H14C 4916   2.397   0.074   5.918 -1.5435  1.8974  1.3901
   37POPC   C15 4917   2.252   0.145   5.632  0.3042 -0.3373  1.1255
   37POPC  H15A 4918   2.217   0.043   5.627 -0.2074 -0.1580  1.0063
   37POPC  H15B 4919   2.339   0.149   5.568  0.5037  4.2046  1.3080
   37POPC  H15C 4920   2.179   0.218   5.600  0.7583 -0.5952 -0.6327
   37POPC   C11 4921   2.191   0.179   6.017  0.0358 -0.7155  0.1354
   37POPC  H11A 4922   2.088   0.182   6.060 -0.6307  0.0548 -1.4111
   37POPC  H11B 4923   2.229   0.279   6.044  2.7910 -2.0706  1.6509
   37POPC     P 4924   2.228  -0.051   6.137 -0.5277  0.0312 -0.2171
   37POPC   O13 4925   2.320  -0.097   6.243 -0.6115 -0.0233 -0.0108
   37POPC   O14 4926   2.223  -0.133   6.020  0.6739 -0.2050  0.6291
   37POPC   O12 4927   2.283   0.090   6.084  0.1680  0.0784  0.7002
   37POPC   O11 4928   2.085  -0.020   6.194 -0.3547 -0.5192 -0.4385
   37POPC    C1 4929   2.084   0.081   6.297  0.4099  0.2459  0.2133
   37POPC    HA 4930   2.041   0.176   6.259 -0.6671  1.2159  3.5597
   37POPC    HB 4931   2.183   0.109   6.339  1.2121 -2.4515  0.3182
   37POPC    C2 4932   1.994   0.035   6.419  0.0531 -0.4789  0.9336
   37POPC    HS 4933   2.021   0.095   6.508  0.6885  0.5725  0.0646
   37POPC   O21 4934   2.003  -0.109   6.422  0.5792  0.2485  0.5544
   37POPC   C21 4935   2.080  -0.169   6.513 -0.7682  0.0897 -0.0241
   37POPC   O22 4936   2.152  -0.108   6.593  0.7480 -0.0834  0.2689
   37POPC   C22 4937   2.076  -0.326   6.501 -0.2802 -0.1382  0.5188
   37POPC   H2R 4938   2.169  -0.359   6.554  0.6077  0.8432 -0.3763
   37POPC   H2S 4939   2.085  -0.345   6.392 -0.8956  1.8252  0.0853
   37POPC    C3 4940   1.844   0.068   6.392  0.0503  0.5834 -0.2337
   37POPC    HX 4941   1.810   0.032   6.292  0.4531 -1.6446  0.3892
   37POPC    HY 4942   1.830   0.178   6.382 -1.1979  0.4726  0.1517
   37POPC   O31 4943   1.759   0.021   6.507  0.6301 -0.2864  0.9668
   37POPC   C31 4944   1.690  -0.090   6.486 -0.2354 -0.2557 -0.1079
   37POPC   O32 4945   1.706  -0.157   6.386  0.0991  0.2098 -0.0236
   37POPC   C32 4946   1.584  -0.118   6.585  0.4121 -0.4533  0.5171
   37POPC   H2X 4947   1.504  -0.188   6.552  0.1933 -1.2267  2.5507
   37POPC   H2Y 4948   1.551  -0.014   6.608  0.2499 -0.5608  0.7674
   37POPC   C23 4949   1.944  -0.370   6.569 -0.8674 -0.2658  0.0958
   37POPC   H3R 4950   1.859  -0.317   6.521 -0.0185  2.1774  1.1452
   37POPC   H3S 4951   1.961  -0.369   6.679  1.5916  2.4963 -0.1833
   37POPC   C24 4952   1.919  -0.519   6.528  0.2745  0.3421  0.2323
   37POPC   H4R 4953   2.004  -0.580   6.566  0.6781  0.9969  0.3949
   37POPC   H4S 4954   1.944  -0.527   6.420  2.0547 -0.6793  0.6693
   37POPC   C25 4955   1.784  -0.574   6.573  0.3325 -0.3545 -0.2766
   37POPC   H5R 4956   1.783  -0.679   6.537  3.8400 -0.4270 -0.5116
   37POPC   H5S 4957   1.712  -0.514   6.514  0.8100 -0.5159 -1.0445
   37POPC   C26 4958   1.754  -0.576   6.725  0.0126 -0.6113  0.4245
   37POPC   H6R 4959   1.651  -0.619   6.728 -1.0383  1.4318 -2.4856
   37POPC   H6S 4960   1.749  -0.467   6.748 -0.5661 -0.2180 -1.4084
   37POPC   C27 4961   1.847  -0.660   6.813 -0.1567 -0.1233 -0.9310
   37POPC   H7R 4962   1.951  -0.635   6.784  1.1467 -1.3139  2.2182
   37POPC   H7S 4963   1.829  -0.768   6.796  0.1762 -0.4146  0.4144
   37POPC   C28 4964   1.850  -0.626   6.964 -0.2647 -0.2180  0.4506
   37POPC   H8R 4965   1.876  -0.518   6.970 -1.3050  0.0463  0.4105
   37POPC   H8S 4966   1.945  -0.671   7.001  0.2880  0.9532  0.4840
   37POPC   C29 4967   1.735  -0.657   7.054  0.1149  0.0008 -0.3349
   37POPC   H91 4968   1.640  -0.604   7.036 -0.1188  0.1538  1.2409
   37POPC  C210 4969   1.727  -0.736   7.161 -0.2001 -0.3469 -0.2168
   37POPC  H101 4970   1.633  -0.740   7.217 -1.0571 -0.4494 -1.6206
   37POPC  C211 4971   1.854  -0.810   7.217 -0.2987 -0.5967 -0.1150
   37POPC  H11R 4972   1.924  -0.737   7.263  1.3448 -2.4689  0.5234
   37POPC  H11S 4973   1.910  -0.845   7.127 -0.9792  1.0016 -1.2093
   37POPC  C212 4974   1.830  -0.924   7.316 -0.3814 -0.4284 -0.5664
   37POPC  H12R 4975   1.796  -0.887   7.415  1.3273 -0.4627  0.0519
   37POPC  H12S 4976   1.924  -0.975   7.346  0.1820 -0.7506 -2.7408
   37POPC  C213 4977   1.726  -1.019   7.266 -0.5629 -0.2628 -0.2056
   37POPC  H13R 4978   1.768  -1.072   7.178 -1.7671 -0.1999 -0.8271
   37POPC  H13S 4979   1.648  -0.965   7.209  1.9930  2.0058 -1.8310
   37POPC  C214 4980   1.682  -1.120   7.372 -0.2468 -0.1257  0.1165
   37POPC  H14R 4981   1.615  -1.199   7.332  1.6761 -1.9831  0.3543
   37POPC  H14S 4982   1.627  -1.070   7.455 -0.2290  0.8764 -0.4565
   37POPC  C215 4983   1.799  -1.209   7.433  0.1454  0.6029  0.2064
   37POPC  H15R 4984   1.869  -1.151   7.496  1.2157 -1.7738  1.3189
   37POPC  H15S 4985   1.855  -1.244   7.344  1.7378  2.9082  0.2371
   37POPC  C216 4986   1.737  -1.323   7.521  0.9051  0.1150 -0.5316
   37POPC  H16R 4987   1.668  -1.267   7.589  1.7415 -0.4992  0.8830
   37POPC  H16S 4988   1.819  -1.362   7.584  0.8494  0.5026 -0.2122
   37POPC  C217 4989   1.672  -1.435   7.446  0.3751 -0.0494  0.0581
   37POPC  H17R 4990   1.750  -1.473   7.376  0.7304  2.6874 -1.1722
   37POPC  H17S 4991   1.589  -1.393   7.385  0.8823  2.1923  0.8105
   37POPC  C218 4992   1.615  -1.548   7.534  0.9009 -0.5473 -0.2583
   37POPC  H18R 4993   1.692  -1.623   7.561 -0.6372 -1.7388  0.9963
   37POPC  H18S 4994   1.541  -1.599   7.469  0.4569  2.3549 -2.2588
   37POPC  H18T 4995   1.573  -1.514   7.631 -0.8309  0.9983 -1.4907
   37POPC   C33 4996   1.635  -0.191   6.715 -0.8792 -0.5002 -0.1246
   37POPC   H3X 4997   1.654  -0.298   6.689  2.1569 -0.2764  0.7746
   37POPC   H3Y 4998   1.550  -0.195   6.787  0.4447  1.1155  1.6274
   37POPC   C34 4999   1.746  -0.122   6.792  0.6321 -1.1212  0.3557
   37POPC   H4X 5000   1.710  -0.020   6.819 -1.6960 -1.1986 -2.0463
   37POPC   H4Y 5001   1.840  -0.108   6.735  0.7263 -1.0990  0.5143
   37POPC   C35 5002   1.777  -0.197   6.920  0.3562  0.5289 -0.4071
   37POPC   H5X 5003   1.833  -0.292   6.901  0.7092  0.3792  1.2349
   37POPC   H5Y 5004   1.689  -0.237   6.976  1.1187 -0.1342  0.3606
   37POPC   C36 5005   1.862  -0.126   7.034  0.0778  0.2264  0.2987
   37POPC   H6X 5006   1.811  -0.033   7.066  1.1043  1.0080 -0.2682
   37POPC   H6Y 5007   1.949  -0.087   6.978 -1.5866  1.1434 -1.8148
   37POPC   C37 5008   1.905  -0.220   7.151 -0.3008  1.2069 -0.2530
   37POPC   H7X 5009   1.995  -0.273   7.116 -2.0658 -1.1626 -1.4689
   37POPC   H7Y 5010   1.827  -0.295   7.174 -0.4710  1.6440  0.6400
   37POPC   C38 5011   1.959  -0.144   7.278  0.2361 -0.4231 -0.7094
   37POPC   H8X 5012   1.880  -0.072   7.305 -0.9943 -2.2763  0.9436
   37POPC   H8Y 5013   2.058  -0.094   7.275 -0.0230  0.1795  0.5089
   37POPC   C39 5014   1.977  -0.251   7.386  0.2788  0.1255 -0.3858
   37POPC   H9X 5015   2.065  -0.312   7.360 -0.7223 -1.1115 -0.9426
   37POPC   H9Y 5016   1.887  -0.315   7.373 -0.8351  1.4104  0.6919
   37POPC  C310 5017   2.001  -0.198   7.533 -0.1764 -0.6405  0.1199
   37POPC  H10X 5018   2.054  -0.101   7.525 -0.3303 -0.4101  1.5728
   37POPC  H10Y 5019   2.081  -0.263   7.576  0.3262  1.2530  2.2496
   37POPC  C311 5020   1.873  -0.179   7.618 -0.2344  0.0487 -0.2790
   37POPC  H11X 5021   1.831  -0.282   7.623 -1.2856  0.4661 -0.1761
   37POPC  H11Y 5022   1.799  -0.116   7.562 -0.1397  1.4747  1.1441
   37POPC  C312 5023   1.901  -0.100   7.748  0.0249 -0.3899  0.7923
   37POPC  H12X 5024   1.952  -0.005   7.725  1.8809 -0.4999  3.8342
   37POPC  H12Y 5025   1.980  -0.167   7.791  2.2335 -0.8846 -3.5508
   37POPC  C313 5026   1.786  -0.077   7.830  0.1360  0.7036  0.0889
   37POPC  H13X 5027   1.717  -0.164   7.834  1.3496 -0.2552  2.9778
   37POPC  H13Y 5028   1.736   0.011   7.786  0.3910 -1.0241 -4.1458
   37POPC  C314 5029   1.808  -0.042   7.979 -0.5708  1.0011 -0.2540
   37POPC  H14X 5030   1.882   0.035   8.008  2.4405 -2.3987  2.0063
   37POPC  H14Y 5031   1.850  -0.132   8.029  1.1675  2.0857  0.3374
   37POPC  C315 5032   1.681  -0.006   8.063 -0.4378 -0.4646  0.3344
   37POPC  H15X 5033   1.607  -0.082   8.032 -0.8340 -0.1479  0.5041
   37POPC  H15Y 5034   1.652   0.095   8.028  1.5540  0.5038  1.2785
   37POPC  C316 5035   1.695  -0.006   8.215  0.4893  0.0274  0.3095
   37POPC  H16X 5036   1.599   0.004   8.270 -1.8513 -1.8272 -3.0577
   37POPC  H16Y 5037   1.763   0.074   8.250  1.7974 -0.7345 -0.3880
   37POPC  H16Z 5038   1.740  -0.102   8.247 -1.3658 -1.1131 -0.3280
   38POPC     N 5039   1.067   0.487   6.234  0.3500 -0.1483  0.3770
   38POPC   C12 5040   1.045   0.634   6.275 -0.6571  0.0927 -0.3303
   38POPC  H12A 5041   1.092   0.658   6.369  2.4050 -1.3879 -1.3297
   38POPC  H12B 5042   0.941   0.656   6.291 -0.5671  0.4366 -0.2062
   38POPC   C13 5043   0.981   0.450   6.110 -0.5397 -0.3869 -0.1723
   38POPC  H13A 5044   0.882   0.491   6.121 -0.6474 -0.4228 -0.9296
   38POPC  H13B 5045   1.017   0.502   6.022  2.5993  3.1580  2.8345
   38POPC  H13C 5046   0.975   0.343   6.096 -0.0295 -0.2763 -1.3308
   38POPC   C14 5047   1.210   0.453   6.202  0.2405 -0.4250  0.3029
   38POPC  H14A 5048   1.269   0.493   6.284  1.9826  0.6243 -1.3823
   38POPC  H14B 5049   1.234   0.348   6.205  1.5191 -0.1622  0.0861
   38POPC  H14C 5050   1.242   0.507   6.114 -0.3273  1.9195  1.4582
   38POPC   C15 5051   1.032   0.401   6.354  0.0248 -0.1122 -0.5368
   38POPC  H15A 5052   1.100   0.431   6.433 -0.8550  1.6122 -0.4013
   38POPC  H15B 5053   1.058   0.299   6.331 -2.1097 -0.1976 -3.0086
   38POPC  H15C 5054   0.930   0.415   6.388  0.6634  2.6349  0.4997
   38POPC   C11 5055   1.108   0.743   6.187  0.5421  0.3870 -0.2070
   38POPC  H11A 5056   1.059   0.842   6.183 -0.0525  0.1253  0.4177
   38POPC  H11B 5057   1.093   0.720   6.079 -0.4514 -1.8535  0.3452
   38POPC     P 5058   1.282   0.848   6.358 -0.1450  0.4582 -0.1570
   38POPC   O13 5059   1.187   0.816   6.464 -0.2503 -0.3970  0.0228
   38POPC   O14 5060   1.285   0.993   6.316  0.2047  0.4304 -0.7194
   38POPC   O12 5061   1.245   0.754   6.228  0.7846 -0.3445  0.4318
   38POPC   O11 5062   1.428   0.808   6.407 -0.1234 -0.3049 -0.1617
   38POPC    C1 5063   1.459   0.673   6.377 -0.0910  0.5601  0.4400
   38POPC    HA 5064   1.526   0.670   6.289  2.3924  1.2257  2.1768
   38POPC    HB 5065   1.372   0.610   6.350 -0.1923  1.2680 -0.9797
   38POPC    C2 5066   1.536   0.617   6.499 -0.4781 -0.5356 -0.7181
   38POPC    HS 5067   1.564   0.515   6.464 -1.2678 -0.3019 -2.0884
   38POPC   O21 5068   1.463   0.605   6.620  0.2527 -0.4981 -0.4728
   38POPC   C21 5069   1.351   0.533   6.611 -0.3729  0.7351 -0.0332
   38POPC   O22 5070   1.331   0.457   6.514  0.2694  0.5098 -0.0763
   38POPC   C22 5071   1.259   0.575   6.716 -0.6813  0.4833 -0.4638
   38POPC   H2R 5072   1.181   0.632   6.662  0.5356  4.0856  1.3113
   38POPC   H2S 5073   1.306   0.645   6.788  2.2468 -0.5217 -1.2416
   38POPC    C3 5074   1.666   0.702   6.532 -0.0809 -0.3042  0.0845
   38POPC    HX 5075   1.629   0.806   6.546 -0.6369 -0.5424  0.4272
   38POPC    HY 5076   1.730   0.696   6.441 -1.5265 -1.0050 -0.9342
   38POPC   O31 5077   1.740   0.645   6.646  0.1460 -0.0580 -0.2486
   38POPC   C31 5078   1.752   0.725   6.754 -0.3310 -0.8521 -0.6936
   38POPC   O32 5079   1.724   0.843   6.753 -0.3146 -0.5664 -0.7078
   38POPC   C32 5080   1.814   0.666   6.882 -0.1740 -0.5408  0.0923
   38POPC   H2X 5081   1.915   0.711   6.890  0.0386 -0.7765 -1.0484
   38POPC   H2Y 5082   1.802   0.556   6.874  0.0265 -0.5551 -0.0043
   38POPC   C23 5083   1.178   0.451   6.782  0.1574 -0.0184  0.9343
   38POPC   H3R 5084   1.152   0.382   6.699 -0.8056  0.9165  0.4229
   38POPC   H3S 5085   1.083   0.500   6.811 -0.2727  0.2172 -0.7294
   38POPC   C24 5086   1.250   0.388   6.900  0.7289 -0.5415  0.4030
   38POPC   H4R 5087   1.178   0.317   6.946  0.4239 -0.4244  0.1028
   38POPC   H4S 5088   1.278   0.470   6.970  0.8295 -1.8612  1.9739
   38POPC   C25 5089   1.385   0.319   6.874  0.7258 -0.4103  0.5473
   38POPC   H5R 5090   1.448   0.369   6.798  2.1760 -1.5141  0.9727
   38POPC   H5S 5091   1.373   0.222   6.822 -0.4488 -1.5428  2.7962
   38POPC   C26 5092   1.463   0.295   7.003  0.0439 -0.5789  0.5747
   38POPC   H6R 5093   1.471   0.391   7.059  1.1965  0.4162 -1.1766
   38POPC   H6S 5094   1.568   0.273   6.976 -0.6693 -0.8315 -2.3173
   38POPC   C27 5095   1.415   0.180   7.089  0.6646 -0.0102 -0.2136
   38POPC   H7R 5096   1.432   0.090   7.026  0.0553 -0.9792  0.9543
   38POPC   H7S 5097   1.306   0.196   7.098  0.7449  0.8024 -0.6075
   38POPC   C28 5098   1.483   0.153   7.226 -0.5742  0.3137  0.0774
   38POPC   H8R 5099   1.506   0.244   7.284  0.4757  0.7651 -0.9963
   38POPC   H8S 5100   1.577   0.098   7.205 -0.0519  1.1008  0.3296
   38POPC   C29 5101   1.398   0.062   7.307  0.0272  0.1494 -0.0287
   38POPC   H91 5102   1.324   0.010   7.245  1.2805  0.6590 -2.0347
   38POPC  C210 5103   1.389   0.055   7.443 -0.7427  0.1162  0.5373
   38POPC  H101 5104   1.329  -0.027   7.484  0.7723 -0.5168  1.5842
   38POPC  C211 5105   1.456   0.145   7.547  0.3881 -0.5674 -0.3441
   38POPC  H11R 5106   1.491   0.237   7.495  1.8721 -1.0723 -0.2856
   38POPC  H11S 5107   1.548   0.103   7.593  2.3883  2.5076 -1.2647
   38POPC  C212 5108   1.365   0.194   7.657 -0.3449 -0.4179 -0.1833
   38POPC  H12R 5109   1.296   0.115   7.696  0.0396 -0.6490  0.0371
   38POPC  H12S 5110   1.285   0.262   7.620 -2.7134 -2.6328  0.5494
   38POPC  C213 5111   1.432   0.267   7.776  0.9272 -0.6336 -0.0323
   38POPC  H13R 5112   1.506   0.336   7.730  1.2911 -0.4608  0.7854
   38POPC  H13S 5113   1.483   0.197   7.845  2.4887  0.8918  0.4449
   38POPC  C214 5114   1.332   0.367   7.847  0.1129 -0.2161  0.1968
   38POPC  H14R 5115   1.240   0.312   7.875  0.0939 -0.6273 -0.6504
   38POPC  H14S 5116   1.298   0.444   7.775  0.8100 -1.2039 -1.2462
   38POPC  C215 5117   1.385   0.448   7.962 -0.5000 -0.9143 -0.4007
   38POPC  H15R 5118   1.303   0.502   8.014  1.4586  0.8466  1.0372
   38POPC  H15S 5119   1.442   0.534   7.923 -1.7142  0.9182  1.6330
   38POPC  C216 5120   1.486   0.385   8.061  0.0207  0.1282  0.5677
   38POPC  H16R 5121   1.581   0.370   8.005 -0.1965  2.4390 -0.5292
   38POPC  H16S 5122   1.455   0.285   8.099 -0.7211 -0.2597 -0.9708
   38POPC  C217 5123   1.520   0.477   8.177 -0.3488  0.3617  0.1714
   38POPC  H17R 5124   1.425   0.513   8.221  0.2454  0.3945  1.4615
   38POPC  H17S 5125   1.571   0.567   8.136 -0.1693 -0.1515 -0.7628
   38POPC  C218 5126   1.617   0.415   8.282 -0.3977  0.0683 -0.8024
   38POPC  H18R 5127   1.718   0.387   8.246  0.6788  1.0166  1.2750
   38POPC  H18S 5128   1.578   0.320   8.326 -0.5248  0.7912  0.7401
   38POPC  H18T 5129   1.625   0.489   8.365 -1.3335  0.4057 -0.9951
   38POPC   C33 5130   1.743   0.720   7.005 -0.6427  0.1009  0.3142
   38POPC   H3X 5131   1.711   0.826   7.017 -1.3983 -0.3063  2.1912
   38POPC   H3Y 5132   1.807   0.700   7.093 -1.1951 -1.5182  0.3719
   38POPC   C34 5133   1.616   0.637   7.037 -0.5948 -0.5949  0.2969
   38POPC   H4X 5134   1.642   0.530   7.024  1.0131 -0.0554 -1.4233
   38POPC   H4Y 5135   1.537   0.661   6.962 -0.1232 -0.9732 -0.3385
   38POPC   C35 5136   1.565   0.676   7.179  0.4919  0.1482  0.9215
   38POPC   H5X 5137   1.463   0.634   7.196  0.6897 -1.0473 -0.5355
   38POPC   H5Y 5138   1.556   0.786   7.179  2.0611  0.3078  0.6487
   38POPC   C36 5139   1.646   0.651   7.302 -0.1074  0.4545 -0.5359
   38POPC   H6X 5140   1.752   0.684   7.295 -0.0766  0.5422  0.2648
   38POPC   H6Y 5141   1.653   0.541   7.313 -1.2154  0.3820 -0.4436
   38POPC   C37 5142   1.583   0.714   7.429 -0.1235  0.1732  0.4893
   38POPC   H7X 5143   1.507   0.647   7.476  0.6092 -0.4960  0.7410
   38POPC   H7Y 5144   1.549   0.817   7.408 -0.0514 -0.5179 -4.0340
   38POPC   C38 5145   1.687   0.732   7.540 -0.5813  0.3664  0.1454
   38POPC   H8X 5146   1.760   0.811   7.511  2.5963 -2.1217  0.7399
   38POPC   H8Y 5147   1.745   0.638   7.553 -1.2707  0.1280  1.7934
   38POPC   C39 5148   1.627   0.754   7.683 -0.9074 -0.4932 -1.2079
   38POPC   H9X 5149   1.581   0.663   7.726 -1.9519  0.4975 -0.1409
   38POPC   H9Y 5150   1.545   0.829   7.672 -0.6348  0.0971  0.4205
   38POPC  C310 5151   1.741   0.795   7.781 -0.4371  0.1175 -0.1571
   38POPC  H10X 5152   1.768   0.899   7.754 -0.4166 -0.0672 -0.8547
   38POPC  H10Y 5153   1.840   0.751   7.759 -0.0270  1.7672 -1.8893
   38POPC  C311 5154   1.710   0.779   7.923  0.4711 -0.3849 -0.3107
   38POPC  H11X 5155   1.715   0.671   7.948 -0.8594 -0.3862  0.0279
   38POPC  H11Y 5156   1.603   0.810   7.923  0.3282 -0.8368 -1.0280
   38POPC  C312 5157   1.803   0.860   8.020  0.4067  0.0720  0.1634
   38POPC  H12X 5158   1.779   0.966   7.998  0.5286 -0.1108 -0.9523
   38POPC  H12Y 5159   1.909   0.849   7.989  0.0977  2.1080 -1.8468
   38POPC  C313 5160   1.788   0.832   8.176  0.3871 -0.8851  0.8789
   38POPC  H13X 5161   1.837   0.734   8.193  0.8798 -0.2928  3.2224
   38POPC  H13Y 5162   1.681   0.835   8.205  0.1075  1.9773 -0.1471
   38POPC  C314 5163   1.866   0.936   8.256 -0.0307  0.0991  0.4988
   38POPC  H14X 5164   1.818   1.035   8.247 -0.7183 -0.2986 -0.3167
   38POPC  H14Y 5165   1.966   0.944   8.208 -0.3372 -1.9384 -0.6020
   38POPC  C315 5166   1.893   0.899   8.401 -0.0489  0.6740  0.4996
   38POPC  H15X 5167   1.945   0.803   8.419 -0.0691  1.0126  2.6465
   38POPC  H15Y 5168   1.792   0.897   8.447 -1.4485  2.9159 -2.2023
   38POPC  C316 5169   1.978   1.010   8.466 -0.1116 -0.2200  0.3226
   38POPC  H16X 5170   2.011   0.975   8.566 -1.2278 -2.3811 -0.0042
   38POPC  H16Y 5171   1.917   1.102   8.478  0.3664 -0.0526  1.6845
   38POPC  H16Z 5172   2.074   1.026   8.414 -0.0187 -1.2903  0.1377
   39POPC     N 5173   5.035   6.151   5.661  0.0985 -0.1023 -0.4406
   39POPC   C12 5174   4.927   6.120   5.774 -0.4953 -0.2888 -0.1798
   39POPC  H12A 5175   4.954   6.016   5.789  1.1794  0.1502  0.0196
   39POPC  H12B 5176   4.827   6.128   5.734 -0.8409 -1.5358  0.3516
   39POPC   C13 5177   5.069   6.294   5.652 -0.2672 -0.5340  0.1732
   39POPC  H13A 5178   5.102   6.321   5.752  0.9925 -3.2703  0.6040
   39POPC  H13B 5179   5.151   6.316   5.586 -1.5547  0.1650 -1.2549
   39POPC  H13C 5180   5.001   6.355   5.595  0.0228 -2.9018 -2.9807
   39POPC   C14 5181   5.157   6.089   5.715  0.3690  1.2989  0.2878
   39POPC  H14A 5182   5.146   6.115   5.819 -2.3649 -0.0680  0.4150
   39POPC  H14B 5183   5.153   5.981   5.706  0.1164  0.8439  4.0832
   39POPC  H14C 5184   5.249   6.136   5.682  0.5993  0.8118  0.2122
   39POPC   C15 5185   4.999   6.099   5.525  0.2453  0.6313  0.3341
   39POPC  H15A 5186   4.987   5.992   5.537 -2.2177  0.8455  0.2702
   39POPC  H15B 5187   5.072   6.122   5.449  1.4801 -1.5564  0.7705
   39POPC  H15C 5188   4.900   6.134   5.498 -0.1418 -0.3713  0.4012
   39POPC   C11 5189   4.921   6.192   5.916 -0.3090 -0.0994  0.5775
   39POPC  H11A 5190   4.824   6.183   5.969 -0.3198 -1.1766  0.3822
   39POPC  H11B 5191   4.931   6.299   5.887 -2.0953 -0.5070 -1.8311
   39POPC     P 5192   5.006   6.022   6.095 -0.1535 -0.7336 -0.4025
   39POPC   O13 5193   5.135   6.000   6.167 -0.5884  0.4696 -0.8882
   39POPC   O14 5194   4.953   5.915   6.012  0.3658  0.6443 -0.1312
   39POPC   O12 5195   5.029   6.153   6.004  0.3556  0.0056  0.1452
   39POPC   O11 5196   4.894   6.050   6.202 -0.5582  0.2944  0.3037
   39POPC    C1 5197   4.881   6.172   6.273 -0.2808 -0.5774 -0.3496
   39POPC    HA 5198   4.776   6.183   6.309 -0.0328  1.6096 -0.1271
   39POPC    HB 5199   4.903   6.261   6.210 -0.5433  0.8835  1.5329
   39POPC    C2 5200   4.975   6.190   6.407  0.1447  0.3529 -0.1172
   39POPC    HS 5201   5.073   6.176   6.357  1.1293 -2.4796  2.3159
   39POPC   O21 5202   4.945   6.081   6.502  0.3269 -0.2961  0.0601
   39POPC   C21 5203   5.024   6.054   6.599 -0.1203  0.2415  1.1861
   39POPC   O22 5204   5.145   6.074   6.591 -0.0478 -0.3391 -0.0264
   39POPC   C22 5205   4.949   5.999   6.716 -0.2753  0.5531  0.6406
   39POPC   H2R 5206   4.856   5.940   6.702 -1.4032  1.5671  3.1683
   39POPC   H2S 5207   4.922   6.097   6.761  1.2578  1.3703 -0.1423
   39POPC    C3 5208   4.957   6.341   6.459 -0.1790 -0.5058  0.2414
   39POPC    HX 5209   4.848   6.352   6.445 -0.2827 -0.7459  0.8537
   39POPC    HY 5210   5.005   6.412   6.389 -0.0288  0.8577  1.6821
   39POPC   O31 5211   5.007   6.343   6.595  0.6532  0.2263  0.4494
   39POPC   C31 5212   5.138   6.354   6.601 -0.1051  0.2248 -0.0257
   39POPC   O32 5213   5.218   6.351   6.509 -0.4157  0.2654  0.4977
   39POPC   C32 5214   5.187   6.356   6.752 -0.6444  1.0200  0.3482
   39POPC   H2X 5215   5.167   6.449   6.810 -0.7069 -0.6416  3.2028
   39POPC   H2Y 5216   5.127   6.274   6.796 -0.3896  0.1430 -0.8827
   39POPC   C23 5217   5.040   5.932   6.804  0.4661  0.4902  0.0369
   39POPC   H3R 5218   5.134   5.985   6.829  1.7855 -1.1560 -1.2721
   39POPC   H3S 5219   5.073   5.846   6.742  2.9240  0.5923  1.0906
   39POPC   C24 5220   4.963   5.871   6.931  0.0336 -0.2088 -0.4550
   39POPC   H4R 5221   5.029   5.790   6.970  1.4963  0.5991 -1.1808
   39POPC   H4S 5222   4.864   5.825   6.907 -0.0763 -1.0193  1.4244
   39POPC   C25 5223   4.941   5.978   7.042 -0.2262 -0.2289  0.0363
   39POPC   H5R 5224   4.869   6.050   6.996  0.3411  1.3698  1.5420
   39POPC   H5S 5225   5.034   6.038   7.053 -0.4950 -0.1117  1.9519
   39POPC   C26 5226   4.892   5.900   7.160  0.2678 -0.4987 -0.0858
   39POPC   H6R 5227   4.953   5.816   7.200  0.5411 -1.5224 -2.4348
   39POPC   H6S 5228   4.799   5.852   7.122  0.3795 -0.2758 -0.6489
   39POPC   C27 5229   4.853   6.006   7.262 -0.9159 -1.1555 -0.7797
   39POPC   H7R 5230   4.771   6.073   7.228 -2.4911 -3.0034 -0.8139
   39POPC   H7S 5231   4.941   6.070   7.282 -0.3294 -1.8444 -1.0834
   39POPC   C28 5232   4.807   5.941   7.396 -0.1254  0.2005 -0.7428
   39POPC   H8R 5233   4.888   5.908   7.464 -2.1872  1.2110  2.4096
   39POPC   H8S 5234   4.762   5.842   7.371 -0.1451  0.2775 -1.0166
   39POPC   C29 5235   4.705   6.014   7.481  0.1952 -1.1048 -0.0491
   39POPC   H91 5236   4.603   6.019   7.439 -0.6407 -0.7715  1.8962
   39POPC  C210 5237   4.719   6.061   7.603  0.5694 -0.4700 -0.4507
   39POPC  H101 5238   4.633   6.111   7.648  0.4522 -0.9877 -0.0991
   39POPC  C211 5239   4.835   6.073   7.697  0.3647  0.3642 -0.2664
   39POPC  H11R 5240   4.832   6.167   7.756 -1.3703  0.7807 -0.9507
   39POPC  H11S 5241   4.927   6.077   7.635  0.0634  3.6248 -0.6830
   39POPC  C212 5242   4.848   5.950   7.793 -0.2868 -0.5190  0.5994
   39POPC  H12R 5243   4.952   5.952   7.834 -0.6932 -0.7550  1.6848
   39POPC  H12S 5244   4.841   5.857   7.733  0.5191  0.7754 -1.6271
   39POPC  C213 5245   4.750   5.949   7.903 -0.4168  0.0742 -0.1045
   39POPC  H13R 5246   4.729   5.849   7.946 -0.3237 -0.1212 -0.5084
   39POPC  H13S 5247   4.653   5.993   7.871 -1.1221 -1.6800 -0.4863
   39POPC  C214 5248   4.809   6.033   8.019  0.2231 -0.9184 -0.6188
   39POPC  H14R 5249   4.852   6.130   7.988 -2.0657 -0.1904 -1.7949
   39POPC  H14S 5250   4.884   5.969   8.070 -0.1002 -2.0410 -1.4913
   39POPC  C215 5251   4.709   6.067   8.130  0.3389  0.3208  0.3605
   39POPC  H15R 5252   4.763   6.109   8.218  0.4068  0.8474  0.0677
   39POPC  H15S 5253   4.656   5.972   8.154  0.6187  0.0688 -0.0116
   39POPC  C216 5254   4.595   6.164   8.103  0.1728 -0.4563  0.0265
   39POPC  H16R 5255   4.542   6.141   8.008  0.6584  0.1007 -0.3879
   39POPC  H16S 5256   4.634   6.264   8.074  0.0987 -0.5861 -0.5478
   39POPC  C217 5257   4.488   6.185   8.210  0.4342 -0.2230 -0.4668
   39POPC  H17R 5258   4.529   6.200   8.313 -0.2727  0.2094 -0.2407
   39POPC  H17S 5259   4.427   6.093   8.222  0.3598 -0.2827 -1.2546
   39POPC  C218 5260   4.389   6.293   8.165  0.6374  0.8223  0.2483
   39POPC  H18R 5261   4.308   6.314   8.238 -0.4558 -2.9029  0.3170
   39POPC  H18S 5262   4.350   6.256   8.068 -0.3791  1.5334  0.3638
   39POPC  H18T 5263   4.451   6.384   8.151  1.9483  0.0781  1.0498
   39POPC   C33 5264   5.327   6.300   6.788  0.3714 -0.5615 -0.0002
   39POPC   H3X 5265   5.392   6.367   6.729 -0.4957 -1.3286 -1.8839
   39POPC   H3Y 5266   5.338   6.200   6.742 -0.7980 -0.3659 -0.7503
   39POPC   C34 5267   5.357   6.300   6.939 -0.8241 -1.1296 -0.1848
   39POPC   H4X 5268   5.379   6.401   6.980 -1.3069 -0.4033 -1.6295
   39POPC   H4Y 5269   5.455   6.250   6.952 -0.1868 -0.0854 -0.7697
   39POPC   C35 5270   5.252   6.228   7.022 -0.3303 -0.6741  0.8375
   39POPC   H5X 5271   5.226   6.134   6.969  2.7090  0.0057 -2.1780
   39POPC   H5Y 5272   5.157   6.285   7.021  0.1372  0.1780  2.1268
   39POPC   C36 5273   5.285   6.204   7.172  0.2861 -0.1077 -0.0264
   39POPC   H6X 5274   5.360   6.122   7.171 -0.3616 -0.7132  0.3040
   39POPC   H6Y 5275   5.187   6.168   7.208  0.4067  0.1431  0.5665
   39POPC   C37 5276   5.323   6.322   7.259  0.5990 -0.0588 -0.0274
   39POPC   H7X 5277   5.250   6.406   7.260  0.0652 -0.4981  2.1659
   39POPC   H7Y 5278   5.419   6.371   7.230  0.9054 -0.5017  0.2331
   39POPC   C38 5279   5.328   6.279   7.404  0.5002  0.5613 -0.5941
   39POPC   H8X 5280   5.370   6.354   7.474  0.0998  0.0192  0.2467
   39POPC   H8Y 5281   5.394   6.190   7.407 -0.5759 -0.2816 -1.0021
   39POPC   C39 5282   5.191   6.242   7.472  0.1458  0.2645 -0.1498
   39POPC   H9X 5283   5.178   6.131   7.467 -0.2216  0.3723 -3.2726
   39POPC   H9Y 5284   5.112   6.294   7.415  0.4788  2.2165  1.0647
   39POPC  C310 5285   5.193   6.308   7.614  0.7636  0.2298 -0.2151
   39POPC  H10X 5286   5.092   6.287   7.656 -0.4912  2.4008 -1.9307
   39POPC  H10Y 5287   5.187   6.418   7.605 -1.7630  0.1724 -0.1420
   39POPC  C311 5288   5.299   6.251   7.708  0.1741 -0.1079  0.5123
   39POPC  H11X 5289   5.400   6.258   7.662 -0.0583  1.2066  0.1437
   39POPC  H11Y 5290   5.267   6.147   7.730 -0.9511  0.1571  0.2074
   39POPC  C312 5291   5.302   6.325   7.842 -0.1750  0.2661 -0.0485
   39POPC  H12X 5292   5.203   6.368   7.870 -0.1755 -0.5931  1.3875
   39POPC  H12Y 5293   5.383   6.401   7.841  0.6080 -0.5444  0.2950
   39POPC  C313 5294   5.339   6.230   7.955  0.3193  0.1478 -0.2571
   39POPC  H13X 5295   5.413   6.152   7.928  1.2207 -0.5541  3.6120
   39POPC  H13Y 5296   5.253   6.166   7.986 -1.7661  1.9567 -2.0080
   39POPC  C314 5297   5.388   6.302   8.081  0.5575  0.5373  0.5128
   39POPC  H14X 5298   5.309   6.379   8.093 -3.6660 -3.0066 -1.9493
   39POPC  H14Y 5299   5.490   6.341   8.059  0.6406  0.1750  0.2581
   39POPC  C315 5300   5.398   6.204   8.202  0.0104 -0.6086  0.8119
   39POPC  H15X 5301   5.447   6.274   8.273  1.9333  0.4130 -1.3813
   39POPC  H15Y 5302   5.472   6.121   8.189 -0.2090 -0.8084  0.8318
   39POPC  C316 5303   5.269   6.148   8.250  0.4499  0.0169 -0.1410
   39POPC  H16X 5304   5.287   6.093   8.344 -0.7382 -1.4908 -0.7462
   39POPC  H16Y 5305   5.222   6.073   8.182  0.7121 -2.3961  2.1930
   39POPC  H16Z 5306   5.188   6.221   8.273  0.1794  0.4727 -2.3239
   40POPC     N 5307   5.484   4.887   5.918  1.0810 -0.2349 -0.2208
   40POPC   C12 5308   5.493   4.939   6.064  0.4941  0.6324 -0.1311
   40POPC  H12A 5309   5.480   5.046   6.056 -0.1714  0.4220 -2.5712
   40POPC  H12B 5310   5.590   4.923   6.110  0.1316 -0.8144  0.1771
   40POPC   C13 5311   5.343   4.905   5.872  0.1589  0.3987 -0.4626
   40POPC  H13A 5312   5.270   4.869   5.943  0.5005 -0.6795 -0.6422
   40POPC  H13B 5313   5.332   5.011   5.858  0.9638  0.4178 -1.0371
   40POPC  H13C 5314   5.323   4.850   5.781 -3.6724  0.3298  0.2307
   40POPC   C14 5315   5.572   4.962   5.823 -0.2562  0.6422 -0.4835
   40POPC  H14A 5316   5.572   5.069   5.831 -1.4159  0.7532 -1.6259
   40POPC  H14B 5317   5.676   4.935   5.834  0.1693  1.8639 -1.2942
   40POPC  H14C 5318   5.538   4.946   5.721 -2.5476  0.8381  0.1893
   40POPC   C15 5319   5.522   4.741   5.907  0.5826  1.0747  0.1853
   40POPC  H15A 5320   5.457   4.684   5.972 -0.4178  0.7110 -1.0850
   40POPC  H15B 5321   5.627   4.731   5.932  0.2772  0.6997  1.3848
   40POPC  H15C 5322   5.503   4.699   5.810  1.3814 -0.1241  0.5267
   40POPC   C11 5323   5.402   4.890   6.181  0.0491  0.3272 -0.1071
   40POPC  H11A 5324   5.297   4.903   6.148 -0.3262 -2.0643 -0.0318
   40POPC  H11B 5325   5.423   4.962   6.262  0.0119  0.8250 -0.5348
   40POPC     P 5326   5.559   4.720   6.311  0.0352  0.1281  0.5510
   40POPC   O13 5327   5.664   4.797   6.240 -0.2404 -0.1905  0.9245
   40POPC   O14 5328   5.583   4.572   6.326  0.5292  0.0176 -0.3031
   40POPC   O12 5329   5.426   4.754   6.228  0.0123 -0.3272 -0.1196
   40POPC   O11 5330   5.535   4.789   6.450  0.2520 -0.2328  0.1139
   40POPC    C1 5331   5.437   4.744   6.545 -0.3090  0.2418 -1.2355
   40POPC    HA 5332   5.477   4.685   6.630 -2.4994 -0.5139 -0.6450
   40POPC    HB 5333   5.356   4.681   6.501  0.0399 -0.1594 -1.3131
   40POPC    C2 5334   5.356   4.867   6.600 -0.7278 -0.0900 -0.4687
   40POPC    HS 5335   5.320   4.920   6.509 -0.8626  1.1374  0.2718
   40POPC   O21 5336   5.450   4.942   6.684 -0.6951  0.3838 -0.0982
   40POPC   C21 5337   5.432   5.071   6.685  0.1530  0.3141  0.2492
   40POPC   O22 5338   5.330   5.126   6.645 -0.2093 -0.1085 -0.3069
   40POPC   C22 5339   5.534   5.153   6.755 -0.4559  0.2325  0.6265
   40POPC   H2R 5340   5.531   5.256   6.714 -1.2394 -0.1695 -0.3729
   40POPC   H2S 5341   5.632   5.109   6.725 -0.8086  1.1280 -2.1233
   40POPC    C3 5342   5.229   4.824   6.679 -0.4797  0.7758 -0.6344
   40POPC    HX 5343   5.163   4.764   6.613  0.9785  0.1653 -1.5862
   40POPC    HY 5344   5.171   4.915   6.705 -2.2963 -0.6339  0.4553
   40POPC   O31 5345   5.257   4.744   6.794  0.6106 -0.0984 -0.5147
   40POPC   C31 5346   5.287   4.805   6.909 -0.2397 -0.0824 -0.3366
   40POPC   O32 5347   5.270   4.922   6.934  0.5612 -0.6354  0.0034
   40POPC   C32 5348   5.340   4.703   7.006 -0.0779  0.1604 -0.6656
   40POPC   H2X 5349   5.424   4.660   6.948  1.3874  1.3197  0.5065
   40POPC   H2Y 5350   5.267   4.626   7.038  0.0359 -0.4982 -1.9435
   40POPC   C23 5351   5.519   5.157   6.910  0.2930  1.2768 -0.1183
   40POPC   H3R 5352   5.520   5.056   6.957  1.1492  2.0992  1.7105
   40POPC   H3S 5353   5.429   5.210   6.947 -1.0792 -0.0387 -1.3951
   40POPC   C24 5354   5.630   5.243   6.968  0.4081  0.0205  0.3386
   40POPC   H4R 5355   5.622   5.345   6.924 -0.0374  0.3731  1.2192
   40POPC   H4S 5356   5.723   5.194   6.933 -0.4821 -0.7727 -1.0149
   40POPC   C25 5357   5.625   5.248   7.119 -0.1990 -0.3396  0.8922
   40POPC   H5R 5358   5.732   5.267   7.144  0.2411 -0.9714 -0.3826
   40POPC   H5S 5359   5.583   5.151   7.154 -1.6347  0.0540  0.3277
   40POPC   C26 5360   5.536   5.357   7.175  0.0864 -0.4807  0.2563
   40POPC   H6R 5361   5.429   5.339   7.150  0.3271 -1.0581 -0.3820
   40POPC   H6S 5362   5.557   5.460   7.139  1.0797 -0.2093  1.5518
   40POPC   C27 5363   5.548   5.362   7.330  0.8089 -0.7337 -0.4078
   40POPC   H7R 5364   5.488   5.448   7.367 -2.4977 -1.4829 -3.4367
   40POPC   H7S 5365   5.651   5.375   7.368  0.3245 -0.4346  0.8493
   40POPC   C28 5366   5.493   5.238   7.402  0.0316 -0.2546  0.0140
   40POPC   H8R 5367   5.486   5.267   7.509 -0.6001  3.6135 -0.8978
   40POPC   H8S 5368   5.562   5.152   7.395 -0.4361 -0.5540 -1.0511
   40POPC   C29 5369   5.352   5.188   7.369 -0.0521  0.0382  0.1266
   40POPC   H91 5370   5.296   5.247   7.295 -3.4855 -3.2626 -0.1437
   40POPC  C210 5371   5.279   5.101   7.439 -0.6017  0.2934 -1.3172
   40POPC  H101 5372   5.176   5.079   7.409 -1.0170 -0.3122  0.4277
   40POPC  C211 5373   5.321   5.023   7.563 -0.8610  0.1809  0.5051
   40POPC  H11R 5374   5.429   5.030   7.590 -0.6742 -0.2876 -0.1195
   40POPC  H11S 5375   5.287   4.918   7.550  0.2190  0.0679 -2.0893
   40POPC  C212 5376   5.246   5.066   7.691 -0.5343  0.1563 -0.2261
   40POPC  H12R 5377   5.176   4.981   7.708 -0.0519 -0.6000 -1.8456
   40POPC  H12S 5378   5.188   5.159   7.674  1.0848  0.7284 -3.0472
   40POPC  C213 5379   5.343   5.098   7.799 -0.1142 -0.4263  0.1106
   40POPC  H13R 5380   5.406   5.185   7.768  0.5709 -0.4203  1.4259
   40POPC  H13S 5381   5.414   5.014   7.813  1.3708 -0.1163 -4.0574
   40POPC  C214 5382   5.275   5.136   7.928 -1.0021  0.1683  0.6932
   40POPC  H14R 5383   5.349   5.130   8.011  0.3783 -1.8939 -0.5813
   40POPC  H14S 5384   5.208   5.049   7.947 -2.1369  1.1029  1.0064
   40POPC  C215 5385   5.203   5.263   7.916  0.6435  0.3653 -0.2171
   40POPC  H15R 5386   5.109   5.241   7.860  1.0048 -0.4482 -0.5213
   40POPC  H15S 5387   5.248   5.340   7.850 -2.2068  1.1671 -1.3622
   40POPC  C216 5388   5.161   5.334   8.047 -0.0377  0.3004 -0.3442
   40POPC  H16R 5389   5.255   5.366   8.096 -0.8228 -0.1171  1.5034
   40POPC  H16S 5390   5.119   5.262   8.120 -1.3215  1.4038  0.0420
   40POPC  C217 5391   5.057   5.444   8.035  0.7830  0.3842 -0.2532
   40POPC  H17R 5392   5.090   5.502   7.946  1.3019 -0.1919 -0.4438
   40POPC  H17S 5393   5.047   5.502   8.129  3.4924 -0.1821  0.4522
   40POPC  C218 5394   4.917   5.384   8.003  0.1212  0.0884 -0.5786
   40POPC  H18R 5395   4.922   5.295   7.937  0.0788 -0.1101 -0.3186
   40POPC  H18S 5396   4.845   5.463   7.972 -0.3445  0.0034  0.2454
   40POPC  H18T 5397   4.874   5.341   8.096 -1.7528 -0.2989 -1.5699
   40POPC   C33 5398   5.400   4.765   7.135  0.7793  0.5300 -0.4245
   40POPC   H3X 5399   5.327   4.835   7.182  0.6818 -0.6618  1.2676
   40POPC   H3Y 5400   5.481   4.833   7.103  1.1466  1.7915  2.8159
   40POPC   C34 5401   5.457   4.662   7.242 -0.2355 -0.3556 -0.4771
   40POPC   H4X 5402   5.517   4.719   7.316  0.1641  0.6720 -1.5631
   40POPC   H4Y 5403   5.520   4.588   7.188 -0.6099 -0.7082 -0.4377
   40POPC   C35 5404   5.364   4.572   7.325  0.3604  0.2839 -0.7588
   40POPC   H5X 5405   5.393   4.465   7.329  2.1287  0.7016 -1.5055
   40POPC   H5Y 5406   5.272   4.569   7.262  0.7236  0.0520 -1.2769
   40POPC   C36 5407   5.344   4.636   7.468  0.2713  0.0156  0.5242
   40POPC   H6X 5408   5.330   4.746   7.454  3.4381  0.4010 -0.2617
   40POPC   H6Y 5409   5.436   4.628   7.529  0.8021  0.1568 -0.2365
   40POPC   C37 5410   5.223   4.575   7.542  0.5258  0.7718 -0.0395
   40POPC   H7X 5411   5.239   4.470   7.575 -0.3300  1.3150  2.2104
   40POPC   H7Y 5412   5.137   4.586   7.472  0.4512 -4.0098 -1.0246
   40POPC   C38 5413   5.181   4.639   7.672 -1.0476 -0.3841  0.0251
   40POPC   H8X 5414   5.102   4.577   7.720 -0.0266 -0.7263  1.3127
   40POPC   H8Y 5415   5.139   4.738   7.642  1.1451  0.8614  0.8379
   40POPC   C39 5416   5.294   4.684   7.770  0.7582  0.2242  0.7879
   40POPC   H9X 5417   5.248   4.750   7.847  2.4490  1.2528  0.9779
   40POPC   H9Y 5418   5.369   4.742   7.713 -0.4933  0.9007 -0.2146
   40POPC  C310 5419   5.363   4.559   7.829 -0.6771  0.6339 -0.5097
   40POPC  H10X 5420   5.425   4.511   7.750  1.2738  0.7652  0.8627
   40POPC  H10Y 5421   5.275   4.499   7.860 -0.7395 -0.0317 -1.8635
   40POPC  C311 5422   5.456   4.582   7.945  0.0358  0.2156 -1.2956
   40POPC  H11X 5423   5.496   4.480   7.965  0.0138  0.1430 -1.6170
   40POPC  H11Y 5424   5.405   4.606   8.041  0.8387  0.7580 -0.9953
   40POPC  C312 5425   5.577   4.680   7.915 -0.2149  0.7959 -0.4660
   40POPC  H12X 5426   5.548   4.787   7.915 -1.2791  0.5159 -1.0596
   40POPC  H12Y 5427   5.630   4.642   7.826  1.2819 -1.1373  1.1446
   40POPC  C313 5428   5.690   4.689   8.020 -0.4770  0.2052 -0.3697
   40POPC  H13X 5429   5.762   4.770   7.999  0.7193 -1.0813 -1.3822
   40POPC  H13Y 5430   5.732   4.587   8.007 -1.7809 -0.1834 -1.7847
   40POPC  C314 5431   5.644   4.718   8.169 -0.6094 -0.2108 -0.2949
   40POPC  H14X 5432   5.570   4.641   8.199  1.8636 -2.6218  0.0740
   40POPC  H14Y 5433   5.605   4.822   8.174  1.1758  0.4864 -0.1502
   40POPC  C315 5434   5.771   4.715   8.263 -0.3215 -0.1062 -0.2127
   40POPC  H15X 5435   5.755   4.771   8.357 -0.8092 -1.1618  0.3553
   40POPC  H15Y 5436   5.845   4.772   8.203 -1.2482 -1.7152 -3.0574
   40POPC  C316 5437   5.814   4.578   8.300  0.2552  0.3593 -0.3118
   40POPC  H16X 5438   5.752   4.544   8.386 -1.9680  1.4345 -1.3802
   40POPC  H16Y 5439   5.924   4.584   8.315  0.1203 -1.2198  1.6523
   40POPC  H16Z 5440   5.797   4.498   8.225  0.3198 -0.5190  0.5863
   41CHL1    C3 5441   4.097   4.765   9.739  0.1773  0.4318  0.0332
   41CHL1    H3 5442   4.064   4.871   9.728  1.5876  0.8797 -0.0729
   41CHL1    O3 5443   4.094   4.730   9.875 -0.3821  0.8913  0.4850
   41CHL1   H3' 5444   4.004   4.725   9.906 -0.6234  0.4973 -0.2369
   41CHL1    C4 5445   3.997   4.673   9.665  0.0311 -0.8298 -0.9269
   41CHL1   H4A 5446   4.023   4.569   9.693 -1.4392 -0.1855  3.8184
   41CHL1   H4B 5447   3.899   4.698   9.711  1.1037  1.8696  0.0861
   41CHL1    C5 5448   3.993   4.696   9.515 -0.5680 -0.2983 -0.6375
   41CHL1    C6 5449   3.879   4.727   9.456 -0.2488 -0.1946  0.3229
   41CHL1    H6 5450   3.788   4.730   9.518 -0.7127  1.1268 -0.3867
   41CHL1    C7 5451   3.871   4.754   9.303 -0.0687  0.1587  0.0771
   41CHL1   H7A 5452   3.796   4.690   9.253  0.3508 -1.2892  1.2362
   41CHL1   H7B 5453   3.832   4.857   9.284 -0.0384 -0.0816 -1.4226
   41CHL1    C8 5454   3.997   4.716   9.224  0.0722 -0.0684  0.0379
   41CHL1    H8 5455   4.001   4.607   9.206  0.8810 -0.0871  0.2763
   41CHL1   C14 5456   3.999   4.774   9.080  0.2145 -0.0563 -0.0180
   41CHL1   H14 5457   4.002   4.883   9.103  0.5355 -0.3911  1.6518
   41CHL1   C15 5458   3.873   4.735   8.997 -0.2770  0.0858 -0.4298
   41CHL1  H15A 5459   3.840   4.629   8.998  2.3705 -0.8199 -0.5745
   41CHL1  H15B 5460   3.784   4.796   9.024 -1.0493 -1.0530 -0.3284
   41CHL1   C16 5461   3.924   4.767   8.856  0.1459 -0.1341 -0.0179
   41CHL1  H16A 5462   3.910   4.682   8.786 -2.5904 -0.0622  0.3264
   41CHL1  H16B 5463   3.873   4.855   8.810 -0.8389  0.0499  1.3660
   41CHL1   C17 5464   4.077   4.795   8.867  0.0260 -0.1711  0.3916
   41CHL1   H17 5465   4.079   4.906   8.880 -0.6983 -0.0898 -0.1334
   41CHL1   C13 5466   4.129   4.732   9.000  0.7609 -0.5448 -0.8413
   41CHL1   C18 5467   4.144   4.576   8.991 -0.0901 -0.5165 -0.1331
   41CHL1  H18A 5468   4.226   4.546   8.922  0.3536 -0.3174  0.3015
   41CHL1  H18B 5469   4.168   4.527   9.088 -0.0958 -1.4676 -0.6047
   41CHL1  H18C 5470   4.050   4.537   8.947 -0.2617  0.5021 -0.7057
   41CHL1   C12 5471   4.256   4.790   9.065 -0.5268 -0.3561 -0.2547
   41CHL1  H12A 5472   4.344   4.752   9.010 -0.0324  0.0931  0.2052
   41CHL1  H12B 5473   4.243   4.900   9.059  0.6257  0.0809  3.0829
   41CHL1   C11 5474   4.262   4.742   9.221 -0.7714 -0.6678 -0.4598
   41CHL1  H11A 5475   4.297   4.636   9.215  3.4210  0.5468 -0.3883
   41CHL1  H11B 5476   4.338   4.800   9.277  0.4701 -1.5957 -1.1417
   41CHL1    C9 5477   4.127   4.760   9.303  0.7409  0.9337 -0.2991
   41CHL1    H9 5478   4.114   4.869   9.317  0.0333  0.8289 -0.0966
   41CHL1   C10 5479   4.129   4.695   9.444  0.1661 -0.2143 -0.3953
   41CHL1   C19 5480   4.183   4.547   9.430  0.2241 -0.0688  0.4838
   41CHL1  H19A 5481   4.293   4.554   9.448  0.3321 -1.3563  0.4178
   41CHL1  H19B 5482   4.146   4.475   9.505  1.3708 -2.3129 -0.9960
   41CHL1  H19C 5483   4.159   4.510   9.328  1.4030  0.8586 -0.1681
   41CHL1    C1 5484   4.225   4.786   9.533  0.2577 -0.6898  0.2230
   41CHL1   H1A 5485   4.329   4.785   9.493  0.1417 -1.5132 -0.0760
   41CHL1   H1B 5486   4.192   4.891   9.518 -2.2966 -1.5797 -0.9905
   41CHL1    C2 5487   4.236   4.746   9.677  0.3794 -0.4074 -0.2916
   41CHL1   H2A 5488   4.319   4.799   9.730  1.5364 -0.2968 -2.1245
   41CHL1   H2B 5489   4.274   4.642   9.675  0.9385 -0.2373  0.7692
   41CHL1   C20 5490   4.152   4.754   8.734 -0.3642 -0.3022 -0.0255
   41CHL1   H20 5491   4.152   4.643   8.727 -2.1321 -0.3576  0.3480
   41CHL1   C21 5492   4.297   4.789   8.741  0.2947 -0.5570  0.6222
   41CHL1  H21A 5493   4.343   4.789   8.640 -2.0938  1.3826 -0.5813
   41CHL1  H21B 5494   4.348   4.721   8.813  0.5285 -0.1664  0.8340
   41CHL1  H21C 5495   4.306   4.894   8.777 -1.7768 -0.2476  0.3840
   41CHL1   C22 5496   4.087   4.814   8.613 -0.1628 -0.1924  0.6507
   41CHL1  H22A 5497   3.976   4.809   8.604  0.0086 -2.1940 -1.1224
   41CHL1  H22B 5498   4.098   4.925   8.617  0.7204 -0.3159  2.4769
   41CHL1   C23 5499   4.135   4.751   8.478  0.3276  0.4122  0.1272
   41CHL1  H23A 5500   4.087   4.802   8.393  1.1936  0.5755 -0.2767
   41CHL1  H23B 5501   4.245   4.770   8.477  0.6126 -0.8067  2.3315
   41CHL1   C24 5502   4.097   4.604   8.465 -0.6061  0.7201 -0.4193
   41CHL1  H24A 5503   4.134   4.541   8.548 -0.1686  3.7890  1.8911
   41CHL1  H24B 5504   3.986   4.598   8.473 -0.4352 -1.7235  1.0268
   41CHL1   C25 5505   4.135   4.527   8.329  0.5605  0.3051 -0.5134
   41CHL1   H25 5506   4.096   4.589   8.245  1.3125 -0.2750 -1.3069
   41CHL1   C26 5507   4.290   4.511   8.328 -0.1714 -0.1577 -0.3160
   41CHL1  H26A 5508   4.320   4.450   8.241 -0.1634  0.5741 -0.8409
   41CHL1  H26B 5509   4.338   4.607   8.297 -0.6182 -0.4920 -2.1400
   41CHL1  H26C 5510   4.337   4.459   8.414  1.2642  1.2985 -0.1659
   41CHL1   C27 5511   4.072   4.391   8.316  0.1365  0.0309  0.8339
   41CHL1  H27A 5512   4.096   4.338   8.221  0.5906  0.8277  0.4904
   41CHL1  H27B 5513   4.091   4.328   8.405  1.8809  2.0536  2.0010
   41CHL1  H27C 5514   3.961   4.399   8.309  0.0792 -0.9084  0.4685
   42CHL1    C3 5515   3.867   6.168  10.294 -0.2784 -0.0934  0.1167
   42CHL1    H3 5516   3.767   6.215  10.308  0.9132  3.1586 -1.2546
   42CHL1    O3 5517   3.926   6.162  10.420 -0.2064 -0.0298  0.0847
   42CHL1   H3' 5518   4.013   6.187  10.387 -0.9888 -0.4826 -2.5312
   42CHL1    C4 5519   3.867   6.031  10.227 -0.2780  0.0278  0.1626
   42CHL1   H4A 5520   3.974   6.002  10.229  0.0877  1.3557  1.7747
   42CHL1   H4B 5521   3.810   5.957  10.287  3.2328 -1.5151  1.8683
   42CHL1    C5 5522   3.826   6.041  10.077  0.5276  0.7001 -0.5069
   42CHL1    C6 5523   3.718   5.973  10.038 -0.4632  0.0830  0.3385
   42CHL1    H6 5524   3.671   5.907  10.112 -0.1492  1.7687  2.0959
   42CHL1    C7 5525   3.670   5.962   9.892 -0.4780  0.7133 -0.6053
   42CHL1   H7A 5526   3.654   5.858   9.855 -0.5219  0.5171 -0.0466
   42CHL1   H7B 5527   3.571   6.007   9.867 -0.1380  1.7216 -0.1831
   42CHL1    C8 5528   3.768   6.023   9.797  0.1644  0.5508 -0.2093
   42CHL1    H8 5529   3.843   5.943   9.778 -0.3105 -0.2730  1.2704
   42CHL1   C14 5530   3.702   6.047   9.659 -0.5707  0.0539 -0.1010
   42CHL1   H14 5531   3.618   6.117   9.673 -1.2264 -0.5871 -0.7606
   42CHL1   C15 5532   3.648   5.927   9.586 -0.8620  0.0168  0.4921
   42CHL1  H15A 5533   3.722   5.845   9.598  0.3745  0.9559 -0.3590
   42CHL1  H15B 5534   3.551   5.897   9.630 -2.5899  3.8023 -0.2927
   42CHL1   C16 5535   3.630   5.971   9.435  0.1417  0.3792 -0.3185
   42CHL1  H16A 5536   3.700   5.909   9.376  2.7352  1.2349  1.6739
   42CHL1  H16B 5537   3.524   5.963   9.401 -0.0151 -0.8845  0.4033
   42CHL1   C17 5538   3.696   6.112   9.434  0.0875  0.4855 -0.2511
   42CHL1   H17 5539   3.615   6.184   9.454  0.9514  1.9779 -1.8694
   42CHL1   C13 5540   3.790   6.111   9.558  0.0412 -0.8132  0.4766
   42CHL1   C18 5541   3.917   6.027   9.520  0.1162 -0.5009  0.1113
   42CHL1  H18A 5542   3.978   6.081   9.445  1.0109 -1.8389 -0.1601
   42CHL1  H18B 5543   3.989   6.014   9.603  1.5336  3.2998 -0.3131
   42CHL1  H18C 5544   3.887   5.926   9.487 -1.6191 -1.0501  2.9860
   42CHL1   C12 5545   3.835   6.251   9.610 -0.7540  0.2850  0.5154
   42CHL1  H12A 5546   3.905   6.300   9.539  0.4952  0.1745  1.6266
   42CHL1  H12B 5547   3.740   6.309   9.608  0.1988  2.0327  2.2808
   42CHL1   C11 5548   3.892   6.243   9.751 -0.1411 -0.0770 -0.0229
   42CHL1  H11A 5549   3.998   6.211   9.738 -0.5741 -1.3613 -0.5335
   42CHL1  H11B 5550   3.900   6.346   9.792 -3.1386  0.1949  0.0665
   42CHL1    C9 5551   3.822   6.154   9.852  0.1698  0.2091 -0.1251
   42CHL1    H9 5552   3.726   6.202   9.882 -0.0863  1.2390 -2.3979
   42CHL1   C10 5553   3.892   6.137   9.983  0.1774 -0.1833 -0.2770
   42CHL1   C19 5554   4.039   6.088   9.971  0.3769  0.3111  0.1665
   42CHL1  H19A 5555   4.082   6.058  10.068 -1.0930  1.1856  1.1353
   42CHL1  H19B 5556   4.052   5.988   9.925 -0.4953  0.4772 -0.4735
   42CHL1  H19C 5557   4.098   6.158   9.908  0.6905 -0.9436 -0.9799
   42CHL1    C1 5558   3.888   6.271  10.058 -0.2503 -0.0473 -0.3761
   42CHL1   H1A 5559   3.950   6.344  10.001  0.1112  0.6163  0.8111
   42CHL1   H1B 5560   3.786   6.315  10.066  0.1236  1.5072 -3.0131
   42CHL1    C2 5561   3.951   6.262  10.201 -0.0324 -0.0578  0.0575
   42CHL1   H2A 5562   3.953   6.368  10.232  1.3563  0.6490 -2.2528
   42CHL1   H2B 5563   4.059   6.239  10.189  0.2601  0.2574  1.7934
   42CHL1   C20 5564   3.760   6.156   9.299  0.0700 -0.1511 -0.0011
   42CHL1   H20 5565   3.862   6.114   9.285 -0.4386 -0.6574 -2.7638
   42CHL1   C21 5566   3.776   6.310   9.288 -0.9072 -0.1555 -0.7347
   42CHL1  H21A 5567   3.839   6.370   9.357  1.3661 -0.3828 -2.5020
   42CHL1  H21B 5568   3.676   6.356   9.273 -0.6350  0.7517  0.0951
   42CHL1  H21C 5569   3.822   6.336   9.191  2.2005 -0.2689  0.6114
   42CHL1   C22 5570   3.690   6.101   9.169 -0.1687  0.4760 -0.2538
   42CHL1  H22A 5571   3.675   5.992   9.186 -2.1365  0.6869 -0.3653
   42CHL1  H22B 5572   3.590   6.151   9.169 -0.8305 -0.8025  0.0528
   42CHL1   C23 5573   3.768   6.110   9.040 -0.2032  0.3011 -0.2463
   42CHL1  H23A 5574   3.819   6.208   9.044 -0.0372  0.2505 -0.9934
   42CHL1  H23B 5575   3.847   6.035   9.019  0.4651  0.4818  1.4891
   42CHL1   C24 5576   3.680   6.103   8.913  0.2370 -0.2268  0.5176
   42CHL1  H24A 5577   3.624   6.007   8.912  0.9735 -0.7272 -2.3029
   42CHL1  H24B 5578   3.605   6.184   8.904 -2.2829 -2.5742 -0.9926
   42CHL1   C25 5579   3.771   6.099   8.783 -0.6091  0.2890  0.4866
   42CHL1   H25 5580   3.849   6.177   8.797 -0.3583  0.3110 -0.8493
   42CHL1   C26 5581   3.854   5.976   8.744 -0.4658 -0.6986  0.3211
   42CHL1  H26A 5582   3.896   5.990   8.643  1.1453  0.7068  1.1375
   42CHL1  H26B 5583   3.943   5.970   8.810  1.5575  0.4436 -2.1212
   42CHL1  H26C 5584   3.784   5.890   8.736 -1.6262  0.2982 -0.9821
   42CHL1   C27 5585   3.705   6.155   8.657 -0.0874 -0.3229 -0.0161
   42CHL1  H27A 5586   3.778   6.164   8.573  0.4063  0.4215  0.4806
   42CHL1  H27B 5587   3.614   6.096   8.633 -0.0268 -0.7475  0.7703
   42CHL1  H27C 5588   3.673   6.259   8.679  1.1378  0.2820 -0.9760
   43CHL1    C3 5589   4.664   4.552   9.832 -0.1094 -0.3966 -0.3000
   43CHL1    H3 5590   4.660   4.451   9.785 -1.0977  0.2851 -1.7531
   43CHL1    O3 5591   4.647   4.535   9.979 -0.0671  0.2179 -0.0699
   43CHL1   H3' 5592   4.730   4.498  10.010  0.2527 -0.0488 -1.1818
   43CHL1    C4 5593   4.793   4.632   9.813 -0.0251 -0.4956 -0.0086
   43CHL1   H4A 5594   4.791   4.733   9.859 -4.6279 -0.4430  0.0642
   43CHL1   H4B 5595   4.876   4.569   9.853  0.1503 -0.0387  0.3513
   43CHL1    C5 5596   4.828   4.640   9.663  0.3220  0.2462 -0.1582
   43CHL1    C6 5597   4.937   4.592   9.611  0.3490 -0.4712  0.6281
   43CHL1    H6 5598   5.002   4.541   9.682  1.8917 -0.3640 -0.6495
   43CHL1    C7 5599   4.969   4.605   9.462  0.1050 -0.0314 -0.3390
   43CHL1   H7A 5600   5.071   4.651   9.465 -0.4080  1.1654 -0.5460
   43CHL1   H7B 5601   4.984   4.511   9.404  0.0622  0.8612 -1.8496
   43CHL1    C8 5602   4.874   4.707   9.402 -0.2257 -0.4870  0.5564
   43CHL1    H8 5603   4.905   4.810   9.428  2.0928 -0.7156 -1.0412
   43CHL1   C14 5604   4.893   4.702   9.253  0.0608  0.6116 -0.0610
   43CHL1   H14 5605   4.854   4.602   9.226 -0.5470  0.7333  0.3292
   43CHL1   C15 5606   5.035   4.701   9.191 -0.0451  0.1294  0.1550
   43CHL1  H15A 5607   5.094   4.781   9.240  0.3803 -0.5630  0.7906
   43CHL1  H15B 5608   5.091   4.610   9.220 -1.1800  0.1615  2.7746
   43CHL1   C16 5609   5.021   4.725   9.042 -0.2340 -0.4864  0.1754
   43CHL1  H16A 5610   5.072   4.822   9.024 -0.6856 -0.1743  0.5440
   43CHL1  H16B 5611   5.076   4.654   8.977  2.6361  2.5448 -0.9807
   43CHL1   C17 5612   4.865   4.739   9.021 -0.6475  0.3717  0.4543
   43CHL1   H17 5613   4.821   4.637   9.017  1.9435 -0.9517  2.6739
   43CHL1   C13 5614   4.806   4.788   9.156  0.2762 -0.3004 -0.3979
   43CHL1   C18 5615   4.844   4.937   9.187  0.1274 -0.2904 -0.3127
   43CHL1  H18A 5616   4.797   4.964   9.284  0.5160 -1.8270  0.3283
   43CHL1  H18B 5617   4.955   4.947   9.192 -0.0919  3.9766 -0.3044
   43CHL1  H18C 5618   4.821   5.008   9.105  1.0753 -1.7389 -1.8886
   43CHL1   C12 5619   4.658   4.756   9.187 -0.1351 -0.4255  0.2165
   43CHL1  H12A 5620   4.592   4.831   9.139  1.2368  0.3206 -0.5741
   43CHL1  H12B 5621   4.632   4.656   9.147  2.1035 -0.4308 -1.4404
   43CHL1   C11 5622   4.633   4.764   9.340  0.0316  0.3330 -0.9231
   43CHL1  H11A 5623   4.662   4.869   9.361  0.5414  0.3464 -1.6641
   43CHL1  H11B 5624   4.525   4.743   9.356  0.7327 -2.5773  0.8625
   43CHL1    C9 5625   4.735   4.679   9.434  0.0503 -0.3188  0.4003
   43CHL1    H9 5626   4.715   4.572   9.412  1.8238 -0.9381  1.5258
   43CHL1   C10 5627   4.714   4.702   9.584  0.8923  0.0524 -0.3642
   43CHL1   C19 5628   4.706   4.851   9.616  0.2722  0.1631 -0.6427
   43CHL1  H19A 5629   4.798   4.901   9.579 -0.2885 -0.4684 -3.0963
   43CHL1  H19B 5630   4.607   4.888   9.581 -0.5844 -0.3218  1.1586
   43CHL1  H19C 5631   4.692   4.873   9.724  0.2303 -0.3422 -0.5440
   43CHL1    C1 5632   4.575   4.632   9.622  0.1211  0.3052  0.3417
   43CHL1   H1A 5633   4.486   4.677   9.572 -0.3629 -0.0536  0.8685
   43CHL1   H1B 5634   4.582   4.526   9.590  1.3504  1.0705 -2.2051
   43CHL1    C2 5635   4.550   4.631   9.768  0.4897 -0.2042 -0.1237
   43CHL1   H2A 5636   4.452   4.583   9.788  0.0550  1.3973  1.8209
   43CHL1   H2B 5637   4.546   4.735   9.807 -0.2399 -0.2158 -0.1502
   43CHL1   C20 5638   4.844   4.819   8.889 -0.6927 -0.3093 -0.2405
   43CHL1   H20 5639   4.885   4.922   8.902 -0.4538 -0.4504  0.1434
   43CHL1   C21 5640   4.689   4.831   8.866 -1.1284 -0.0974  0.1132
   43CHL1  H21A 5641   4.658   4.906   8.790  0.6375  1.9179  1.2705
   43CHL1  H21B 5642   4.645   4.862   8.963 -1.0164 -1.5847  0.6706
   43CHL1  H21C 5643   4.647   4.729   8.859 -1.2117 -0.0815  0.3782
   43CHL1   C22 5644   4.932   4.765   8.771 -0.0428 -0.0011 -0.7139
   43CHL1  H22A 5645   5.036   4.796   8.795 -0.9890  2.0382  1.1041
   43CHL1  H22B 5646   4.923   4.655   8.756 -1.5808  0.0849 -0.6231
   43CHL1   C23 5647   4.892   4.832   8.636 -0.9436  0.5837  0.1006
   43CHL1  H23A 5648   4.784   4.813   8.621 -0.6617 -1.4355  0.2900
   43CHL1  H23B 5649   4.906   4.942   8.638  0.9470  0.4306 -1.3947
   43CHL1   C24 5650   4.954   4.773   8.507  0.3923 -0.1326  0.2767
   43CHL1  H24A 5651   4.931   4.664   8.506 -0.5546  0.0564  0.1486
   43CHL1  H24B 5652   4.888   4.810   8.426 -0.1287 -2.9686 -0.6924
   43CHL1   C25 5653   5.104   4.795   8.485 -0.4437 -0.5540 -0.4262
   43CHL1   H25 5654   5.169   4.784   8.575 -0.9321 -3.4329 -0.3305
   43CHL1   C26 5655   5.160   4.679   8.407 -0.4797  0.7317 -0.0006
   43CHL1  H26A 5656   5.271   4.676   8.410 -0.5017 -2.3398  1.1344
   43CHL1  H26B 5657   5.129   4.582   8.451  1.4857  0.1804  0.2632
   43CHL1  H26C 5658   5.125   4.682   8.302  1.7172  1.0621 -0.7866
   43CHL1   C27 5659   5.129   4.926   8.413  0.1701 -0.4244  0.4109
   43CHL1  H27A 5660   5.118   5.010   8.484  2.2278  0.2262  0.0350
   43CHL1  H27B 5661   5.234   4.928   8.376  0.0033 -1.4309 -0.1773
   43CHL1  H27C 5662   5.055   4.927   8.330  0.9823 -0.1299 -0.3314
   44CHL1    C3 5663   4.379   5.195   9.843 -0.7010 -0.1792 -0.0650
   44CHL1    H3 5664   4.487   5.210   9.862 -0.0686 -2.5170 -1.4184
   44CHL1    O3 5665   4.314   5.159   9.968  0.4797 -0.7745  0.0498
   44CHL1   H3' 5666   4.349   5.225  10.029 -2.6098  1.1995 -0.1173
   44CHL1    C4 5667   4.319   5.318   9.775  1.0041  0.6309  0.6864
   44CHL1   H4A 5668   4.217   5.275   9.770  1.7056 -1.1385  0.8085
   44CHL1   H4B 5669   4.326   5.406   9.842  0.4371 -0.2473  1.9417
   44CHL1    C5 5670   4.367   5.349   9.631  0.0510 -1.0863  0.2818
   44CHL1    C6 5671   4.408   5.472   9.593 -0.1426 -0.1974 -0.1568
   44CHL1    H6 5672   4.406   5.554   9.666 -0.7806  0.4385 -0.8740
   44CHL1    C7 5673   4.464   5.507   9.459 -0.0270 -0.2051  0.1738
   44CHL1   H7A 5674   4.412   5.595   9.413 -1.9655 -0.4473  1.7493
   44CHL1   H7B 5675   4.570   5.538   9.466 -0.6134  1.7074  1.6504
   44CHL1    C8 5676   4.458   5.393   9.357 -0.2868  0.1134  0.0100
   44CHL1    H8 5677   4.354   5.397   9.320 -1.1671 -0.6474  2.2143
   44CHL1   C14 5678   4.565   5.409   9.247 -0.7279  0.0744  0.7548
   44CHL1   H14 5679   4.657   5.385   9.305 -0.9371 -0.2989  0.9388
   44CHL1   C15 5680   4.596   5.545   9.190 -0.0606 -0.2331  1.0656
   44CHL1  H15A 5681   4.508   5.605   9.158  2.0087  2.1318 -0.4638
   44CHL1  H15B 5682   4.643   5.611   9.266 -0.3930 -0.3397  1.3689
   44CHL1   C16 5683   4.679   5.524   9.066 -0.1015  0.1886 -0.3460
   44CHL1  H16A 5684   4.639   5.600   8.995  2.1019  1.5626 -0.2332
   44CHL1  H16B 5685   4.787   5.546   9.083  0.4331 -2.6784  0.4814
   44CHL1   C17 5686   4.665   5.372   9.046  0.3373  0.4946  0.3638
   44CHL1   H17 5687   4.761   5.327   9.080 -0.2700  0.0563  1.5710
   44CHL1   C13 5688   4.549   5.317   9.122 -0.4227 -0.2195  0.5876
   44CHL1   C18 5689   4.414   5.354   9.050  0.0146 -1.0109 -0.6511
   44CHL1  H18A 5690   4.325   5.356   9.117 -1.9142  0.7811 -3.1039
   44CHL1  H18B 5691   4.425   5.453   9.001  1.3128 -0.7616  0.0918
   44CHL1  H18C 5692   4.386   5.286   8.967  1.0210 -3.4396  0.8839
   44CHL1   C12 5693   4.561   5.172   9.174  0.2953 -0.1411 -0.2853
   44CHL1  H12A 5694   4.535   5.106   9.089 -1.8937 -0.3856  0.4968
   44CHL1  H12B 5695   4.663   5.164   9.218  0.6378  0.1168 -1.0112
   44CHL1   C11 5696   4.456   5.153   9.293 -0.1881 -0.0260  0.2225
   44CHL1  H11A 5697   4.352   5.167   9.256 -0.1623 -1.3537 -0.4120
   44CHL1  H11B 5698   4.463   5.050   9.335 -1.5783  0.3132  1.3638
   44CHL1    C9 5699   4.466   5.254   9.417 -0.0326  0.6521 -0.2486
   44CHL1    H9 5700   4.572   5.248   9.449 -0.1611  2.3969  0.5962
   44CHL1   C10 5701   4.373   5.223   9.541 -0.3577 -0.2080 -0.0505
   44CHL1   C19 5702   4.222   5.205   9.499  0.0432  0.4429  0.2987
   44CHL1  H19A 5703   4.188   5.296   9.444  0.2832  0.5242  0.2819
   44CHL1  H19B 5704   4.212   5.115   9.435 -0.1609  0.9626 -0.4149
   44CHL1  H19C 5705   4.154   5.182   9.584  0.6116 -0.5083  0.5033
   44CHL1    C1 5706   4.437   5.101   9.617  0.3196 -0.6838  0.4150
   44CHL1   H1A 5707   4.418   5.010   9.557 -1.5400 -1.5406  2.1742
   44CHL1   H1B 5708   4.546   5.115   9.632 -0.0602 -0.4710  3.7340
   44CHL1    C2 5709   4.370   5.070   9.753  0.3871 -0.3896  0.2210
   44CHL1   H2A 5710   4.428   4.992   9.807 -0.2448  1.1799  3.4146
   44CHL1   H2B 5711   4.266   5.039   9.729 -1.0757  3.3942  0.9137
   44CHL1   C20 5712   4.674   5.347   8.891 -0.3490  1.1739  0.2214
   44CHL1   H20 5713   4.587   5.386   8.834  0.2795  2.2207 -0.0503
   44CHL1   C21 5714   4.656   5.199   8.852 -0.1076  0.4302  0.4031
   44CHL1  H21A 5715   4.556   5.158   8.876 -0.0242  0.5735  1.0005
   44CHL1  H21B 5716   4.722   5.136   8.915 -0.4114  1.0064  1.3170
   44CHL1  H21C 5717   4.661   5.180   8.743  0.0743  0.6714  0.3684
   44CHL1   C22 5718   4.803   5.400   8.822  0.7578 -0.4181 -0.0721
   44CHL1  H22A 5719   4.811   5.508   8.847 -0.8076 -0.1262 -0.7219
   44CHL1  H22B 5720   4.898   5.347   8.846  2.3374  1.6084 -1.4410
   44CHL1   C23 5721   4.787   5.404   8.667  0.3123  0.0871 -0.3639
   44CHL1  H23A 5722   4.802   5.301   8.629 -2.4195 -1.1222  1.5631
   44CHL1  H23B 5723   4.689   5.439   8.630  0.7074 -1.0882 -2.7037
   44CHL1   C24 5724   4.900   5.486   8.599 -0.6740 -0.0210 -0.5554
   44CHL1  H24A 5725   4.927   5.568   8.669 -0.0024 -0.1718 -0.6349
   44CHL1  H24B 5726   4.986   5.417   8.587 -0.2924  0.4308 -0.4441
   44CHL1   C25 5727   4.861   5.531   8.455  0.6501  0.5614 -0.0207
   44CHL1   H25 5728   4.773   5.599   8.465 -0.0804 -0.4618  0.7612
   44CHL1   C26 5729   4.969   5.619   8.388  0.6146  0.2946  0.6068
   44CHL1  H26A 5730   5.058   5.552   8.387  0.0902 -0.4336 -0.4592
   44CHL1  H26B 5731   4.942   5.658   8.288 -0.7912  1.6828  1.4819
   44CHL1  H26C 5732   5.007   5.702   8.451 -0.5884  1.4424 -0.1407
   44CHL1   C27 5733   4.809   5.416   8.364  0.0776  0.1116 -0.8704
   44CHL1  H27A 5734   4.771   5.470   8.275 -2.3077  0.4483  0.2545
   44CHL1  H27B 5735   4.892   5.347   8.339 -0.5544 -1.2863  0.7011
   44CHL1  H27C 5736   4.727   5.347   8.393 -0.9480  0.5182 -2.6636
   45CHL1    C3 5737   2.106   5.542   9.496  0.0122 -0.0357  0.2511
   45CHL1    H3 5738   2.181   5.476   9.447  0.2920  0.5720 -0.1419
   45CHL1    O3 5739   2.101   5.510   9.635  0.5842 -0.4287 -0.1487
   45CHL1   H3' 5740   2.180   5.544   9.678 -0.2747  0.0211  1.0857
   45CHL1    C4 5741   2.141   5.692   9.476 -0.5558 -0.0165  0.2880
   45CHL1   H4A 5742   2.066   5.754   9.532 -1.1347  0.3302 -0.8486
   45CHL1   H4B 5743   2.234   5.699   9.536 -0.4042 -0.0958  0.0607
   45CHL1    C5 5744   2.156   5.730   9.328  0.4192 -0.0343  0.4961
   45CHL1    C6 5745   2.261   5.797   9.285  0.2196 -0.3293 -0.4100
   45CHL1    H6 5746   2.335   5.825   9.362 -0.3073 -0.9292  0.3311
   45CHL1    C7 5747   2.300   5.826   9.146 -0.7987  0.1331 -0.0448
   45CHL1   H7A 5748   2.324   5.933   9.131 -2.9002  0.7467  0.6144
   45CHL1   H7B 5749   2.382   5.759   9.112  0.2168  1.7553 -0.9029
   45CHL1    C8 5750   2.177   5.803   9.045 -0.1608 -0.1368 -0.5832
   45CHL1    H8 5751   2.222   5.771   8.949  0.6619 -1.5663  0.2399
   45CHL1   C14 5752   2.100   5.920   8.982 -0.3888  0.3122 -0.0160
   45CHL1   H14 5753   2.043   5.977   9.058 -0.9882  0.6606 -0.7116
   45CHL1   C15 5754   2.183   6.030   8.918  0.5620 -0.0347 -0.1706
   45CHL1  H15A 5755   2.207   6.115   8.985 -1.4780 -0.4459  1.1974
   45CHL1  H15B 5756   2.272   5.972   8.885 -0.6683 -0.8100 -2.3988
   45CHL1   C16 5757   2.112   6.066   8.792 -0.4897 -0.0369 -1.2019
   45CHL1  H16A 5758   2.029   6.134   8.821 -2.2648 -2.0311 -1.3375
   45CHL1  H16B 5759   2.186   6.112   8.724 -1.0045  0.7419 -1.2395
   45CHL1   C17 5760   2.049   5.935   8.742 -0.3061 -0.2183 -0.2494
   45CHL1   H17 5761   2.138   5.878   8.710  1.4611  2.3890 -0.3182
   45CHL1   C13 5762   1.998   5.870   8.875  0.3017  0.4212 -0.4449
   45CHL1   C18 5763   1.859   5.927   8.910  0.1164  0.1921 -0.1057
   45CHL1  H18A 5764   1.872   6.036   8.895  0.3744 -0.0367 -1.6669
   45CHL1  H18B 5765   1.768   5.908   8.850  0.0595  2.6268 -0.9014
   45CHL1  H18C 5766   1.836   5.911   9.018  1.5447 -1.7338 -0.0194
   45CHL1   C12 5767   1.998   5.716   8.853 -0.8707 -0.7392  0.0042
   45CHL1  H12A 5768   1.910   5.701   8.787 -2.1565 -1.6173  1.8172
   45CHL1  H12B 5769   2.094   5.684   8.808 -0.2472  0.1888  0.6360
   45CHL1   C11 5770   1.985   5.643   8.985 -0.7329 -0.1458  0.6533
   45CHL1  H11A 5771   1.882   5.648   9.028 -0.9139 -2.3311  0.5729
   45CHL1  H11B 5772   2.001   5.536   8.959 -0.0743  0.0207  0.3540
   45CHL1    C9 5773   2.089   5.682   9.091 -0.1145  0.0820 -0.0210
   45CHL1    H9 5774   2.172   5.607   9.089  2.1155  2.3639  1.0040
   45CHL1   C10 5775   2.042   5.682   9.239 -0.0196  0.4944 -0.0956
   45CHL1   C19 5776   1.932   5.791   9.255 -0.1175  0.8342 -0.2209
   45CHL1  H19A 5777   1.854   5.767   9.180  1.5837  0.5734 -1.9826
   45CHL1  H19B 5778   1.884   5.795   9.356  1.0497  0.9578  0.3444
   45CHL1  H19C 5779   1.968   5.894   9.232  3.6599 -0.4301 -0.5656
   45CHL1    C1 5780   1.977   5.543   9.282 -0.3558  0.4622 -0.4034
   45CHL1   H1A 5781   1.883   5.522   9.227 -0.3281 -3.5361  0.7672
   45CHL1   H1B 5782   2.044   5.461   9.248 -1.2561 -0.1701 -0.6705
   45CHL1    C2 5783   1.970   5.514   9.432  0.2993 -0.0822 -0.1998
   45CHL1   H2A 5784   1.929   5.411   9.439  0.5196 -0.3723 -2.3798
   45CHL1   H2B 5785   1.895   5.578   9.483 -0.1468 -0.3103 -0.5620
   45CHL1   C20 5786   1.956   5.939   8.619  0.3059 -0.1867 -0.6618
   45CHL1   H20 5787   1.853   5.923   8.658  1.3577 -0.6198  2.1850
   45CHL1   C21 5788   1.984   5.814   8.540  0.0490  0.6248 -0.3327
   45CHL1  H21A 5789   1.905   5.799   8.464 -0.9494  1.9170  0.4251
   45CHL1  H21B 5790   1.996   5.721   8.600  1.9552  0.5309 -0.7949
   45CHL1  H21C 5791   2.080   5.833   8.488  0.0018 -0.7794 -0.9708
   45CHL1   C22 5792   1.973   6.063   8.535 -0.1334  0.0641 -0.2097
   45CHL1  H22A 5793   1.939   6.146   8.600  0.1243  0.2823 -0.3546
   45CHL1  H22B 5794   2.080   6.082   8.510  0.0208 -1.7320 -1.1021
   45CHL1   C23 5795   1.901   6.068   8.402  0.5464 -0.4702  0.3148
   45CHL1  H23A 5796   1.937   5.983   8.340  0.0853  0.0467 -0.6780
   45CHL1  H23B 5797   1.797   6.035   8.422  0.6852 -1.0432  0.1088
   45CHL1   C24 5798   1.924   6.194   8.327 -0.0748  0.3865  0.2633
   45CHL1  H24A 5799   1.910   6.290   8.380  0.2448  0.9616 -0.6676
   45CHL1  H24B 5800   2.032   6.190   8.301 -0.3162 -0.4595 -0.6924
   45CHL1   C25 5801   1.842   6.205   8.195  0.1794 -0.0312 -0.5947
   45CHL1   H25 5802   1.739   6.169   8.212  0.7752 -1.5676 -0.0417
   45CHL1   C26 5803   1.829   6.345   8.137  0.5958  0.4129 -0.4532
   45CHL1  H26A 5804   1.788   6.421   8.208  1.4002 -0.2189  0.7232
   45CHL1  H26B 5805   1.929   6.390   8.118  1.6883 -1.4260  0.6812
   45CHL1  H26C 5806   1.783   6.332   8.037 -0.6958  1.0936  0.0310
   45CHL1   C27 5807   1.908   6.118   8.091 -0.2860 -0.1380 -0.1780
   45CHL1  H27A 5808   2.009   6.153   8.057 -0.3598 -0.0266 -0.2847
   45CHL1  H27B 5809   1.918   6.017   8.136  0.7722  1.2096  2.8671
   45CHL1  H27C 5810   1.844   6.114   8.000  0.4764 -1.2999 -0.6797
   46CHL1    C3 5811   3.834   1.304  10.037 -0.0517  0.2801  0.1932
   46CHL1    H3 5812   3.896   1.396  10.043  1.8139 -0.8962 -0.2580
   46CHL1    O3 5813   3.789   1.266  10.167  0.8582  0.2382  0.0295
   46CHL1   H3' 5814   3.743   1.182  10.164  2.2794 -0.6749  1.8553
   46CHL1    C4 5815   3.701   1.320   9.956  0.2989  0.6608 -1.0000
   46CHL1   H4A 5816   3.642   1.226   9.965 -1.3853  1.8093  0.8531
   46CHL1   H4B 5817   3.652   1.405  10.006  3.0189  1.8566 -0.1963
   46CHL1    C5 5818   3.714   1.342   9.808  0.0391  0.3389 -0.3267
   46CHL1    C6 5819   3.661   1.449   9.740 -0.4652  0.0230  0.2163
   46CHL1    H6 5820   3.590   1.517   9.790  2.5659  1.6279  2.6793
   46CHL1    C7 5821   3.684   1.466   9.586  0.5957 -0.6709  0.1925
   46CHL1   H7A 5822   3.587   1.461   9.532  0.3681 -0.1105  0.5403
   46CHL1   H7B 5823   3.737   1.562   9.567 -1.1438  0.2600 -0.1367
   46CHL1    C8 5824   3.774   1.356   9.518  0.6549 -0.2340  0.1076
   46CHL1    H8 5825   3.705   1.273   9.495 -0.9809  0.9528  0.5739
   46CHL1   C14 5826   3.841   1.412   9.392 -0.7304  0.6869 -0.4943
   46CHL1   H14 5827   3.915   1.481   9.438 -0.6552  0.4386 -0.2337
   46CHL1   C15 5828   3.756   1.497   9.292 -0.3412  0.6070  0.4386
   46CHL1  H15A 5829   3.654   1.459   9.272  0.0460 -0.2000 -0.0675
   46CHL1  H15B 5830   3.752   1.597   9.341 -1.2114  1.2738 -0.9208
   46CHL1   C16 5831   3.833   1.500   9.162 -0.4759  0.3129 -0.2513
   46CHL1  H16A 5832   3.776   1.462   9.075  1.9784  0.2245 -1.9207
   46CHL1  H16B 5833   3.860   1.604   9.133 -0.8827  1.1369  2.1290
   46CHL1   C17 5834   3.955   1.408   9.186  0.2406  0.1502 -0.4454
   46CHL1   H17 5835   4.038   1.479   9.203 -0.2451  0.6249  0.0132
   46CHL1   C13 5836   3.919   1.316   9.304 -0.5121  0.6821  0.4964
   46CHL1   C18 5837   3.836   1.197   9.246  0.8516  0.7150 -0.4388
   46CHL1  H18A 5838   3.755   1.232   9.178  0.1964 -0.2831 -0.1910
   46CHL1  H18B 5839   3.906   1.127   9.195  1.7485 -0.3101  2.0746
   46CHL1  H18C 5840   3.808   1.132   9.331  0.6996 -0.2810 -1.2308
   46CHL1   C12 5841   4.026   1.255   9.396 -0.8395 -1.4302  0.0089
   46CHL1  H12A 5842   4.096   1.188   9.340  0.4761 -0.0207 -0.0985
   46CHL1  H12B 5843   4.087   1.345   9.420 -0.7525 -1.5646  0.3036
   46CHL1   C11 5844   3.964   1.192   9.519  0.1849 -0.2412 -0.7360
   46CHL1  H11A 5845   3.910   1.097   9.501 -1.4322  0.4662  0.1890
   46CHL1  H11B 5846   4.049   1.155   9.581  0.0561  0.4928 -0.1124
   46CHL1    C9 5847   3.883   1.295   9.608  0.3850  0.7872  0.4805
   46CHL1    H9 5848   3.957   1.375   9.630  1.4954 -0.1223  0.1325
   46CHL1   C10 5849   3.822   1.245   9.743  0.5102 -0.2003  0.7508
   46CHL1   C19 5850   3.748   1.108   9.717 -0.0524  0.5067  0.2697
   46CHL1  H19A 5851   3.662   1.116   9.648  0.3307  2.1258 -0.0605
   46CHL1  H19B 5852   3.816   1.028   9.679 -2.4565 -1.1583 -0.8111
   46CHL1  H19C 5853   3.714   1.066   9.815  0.1956 -2.8932 -0.9528
   46CHL1    C1 5854   3.946   1.221   9.839  0.3423 -0.4116  0.2881
   46CHL1   H1A 5855   3.998   1.135   9.792  0.6164 -0.2580  0.3079
   46CHL1   H1B 5856   4.018   1.305   9.828  0.4322 -0.5215  0.0486
   46CHL1    C2 5857   3.923   1.190   9.981 -0.0159 -0.1742 -0.1460
   46CHL1   H2A 5858   4.024   1.181  10.027  0.2355  1.3268 -0.3482
   46CHL1   H2B 5859   3.872   1.091   9.990 -1.0877  0.0436 -2.8046
   46CHL1   C20 5860   3.990   1.351   9.047  0.7220 -0.0547  0.3945
   46CHL1   H20 5861   3.915   1.280   9.004 -0.3276  1.7229 -0.8801
   46CHL1   C21 5862   4.115   1.265   9.059  0.4328  0.0792  0.1434
   46CHL1  H21A 5863   4.211   1.321   9.065  0.2071  0.3446  2.1676
   46CHL1  H21B 5864   4.122   1.202   8.968  3.0350  1.6342 -0.8415
   46CHL1  H21C 5865   4.123   1.183   9.133 -0.7380 -0.9279 -0.8111
   46CHL1   C22 5866   4.011   1.464   8.941  0.1917 -0.1447  1.0134
   46CHL1  H22A 5867   3.923   1.531   8.935  1.5767  1.6221 -2.4170
   46CHL1  H22B 5868   4.092   1.529   8.981  0.1294 -0.2261  1.2717
   46CHL1   C23 5869   4.042   1.420   8.796 -0.9022 -0.6018 -0.0292
   46CHL1  H23A 5870   4.144   1.376   8.802 -0.1544  1.0983  0.0771
   46CHL1  H23B 5871   3.967   1.346   8.760 -0.9699 -0.2304 -0.6659
   46CHL1   C24 5872   4.051   1.540   8.693  0.1642  0.1069 -0.6953
   46CHL1  H24A 5873   3.952   1.585   8.670 -0.5593 -1.2427 -0.2811
   46CHL1  H24B 5874   4.115   1.620   8.736  2.5927 -0.3697 -3.1132
   46CHL1   C25 5875   4.111   1.483   8.557  0.3101 -0.1263  0.5551
   46CHL1   H25 5876   4.217   1.461   8.580  0.6112 -0.1610 -0.7540
   46CHL1   C26 5877   4.038   1.359   8.494 -0.3051 -0.8883  0.3017
   46CHL1  H26A 5878   4.037   1.267   8.557 -0.8454 -0.1135  1.4549
   46CHL1  H26B 5879   3.934   1.389   8.469  0.7883  2.4212 -0.8274
   46CHL1  H26C 5880   4.078   1.345   8.391  0.6150  3.2388 -0.0786
   46CHL1   C27 5881   4.118   1.604   8.460 -0.0751  0.3890  0.3696
   46CHL1  H27A 5882   4.016   1.632   8.426  0.1006 -1.6005 -2.1446
   46CHL1  H27B 5883   4.164   1.695   8.504 -0.1422  0.8782 -0.5492
   46CHL1  H27C 5884   4.182   1.575   8.373  1.7317  2.2351  1.0056
   47CHL1    C3 5885   5.061   5.090   9.855  0.4058  0.3562  0.1077
   47CHL1    H3 5886   5.057   5.201   9.862  2.2782  0.5635 -1.1028
   47CHL1    O3 5887   5.030   5.027   9.983  0.0995 -0.6736  0.2500
   47CHL1   H3' 5888   5.103   5.056  10.039 -0.3192  2.3064 -0.6200
   47CHL1    C4 5889   4.972   5.032   9.741 -0.7258  0.3972 -0.3609
   47CHL1   H4A 5890   4.986   4.922   9.731  0.0722  0.5036 -0.4138
   47CHL1   H4B 5891   4.864   5.041   9.766 -0.5217 -0.0859  0.7578
   47CHL1    C5 5892   5.006   5.102   9.613  0.1286 -0.2235 -0.6542
   47CHL1    C6 5893   4.916   5.180   9.553  0.5977  0.0795  0.3338
   47CHL1    H6 5894   4.812   5.175   9.591  0.4577 -2.0355 -0.2145
   47CHL1    C7 5895   4.949   5.247   9.429 -0.1269  0.3349 -0.4281
   47CHL1   H7A 5896   4.873   5.217   9.353 -0.5253 -0.4780  0.2796
   47CHL1   H7B 5897   4.968   5.356   9.437 -0.0138  0.3095 -0.3517
   47CHL1    C8 5898   5.086   5.198   9.364  0.0093 -0.0748  0.1702
   47CHL1    H8 5899   5.079   5.100   9.312 -0.2610 -0.4811  0.9506
   47CHL1   C14 5900   5.130   5.300   9.264 -0.7208 -0.3081 -0.1957
   47CHL1   H14 5901   5.153   5.394   9.319 -1.2060  0.5508 -1.4322
   47CHL1   C15 5902   5.030   5.346   9.163 -0.4525 -0.2629  0.6473
   47CHL1  H15A 5903   4.975   5.264   9.112  0.2604  0.3084 -1.1237
   47CHL1  H15B 5904   4.958   5.413   9.216  0.3635  0.6541  0.6236
   47CHL1   C16 5905   5.122   5.410   9.056  0.2890 -0.0349 -0.7864
   47CHL1  H16A 5906   5.109   5.366   8.955  0.7808 -0.5334 -0.6438
   47CHL1  H16B 5907   5.076   5.511   9.048  1.1965  0.2929 -2.1654
   47CHL1   C17 5908   5.268   5.391   9.094 -0.5317  0.0951 -0.4810
   47CHL1   H17 5909   5.303   5.473   9.160  1.5498 -0.3494 -0.9756
   47CHL1   C13 5910   5.259   5.264   9.186 -0.1426  0.8773 -0.3022
   47CHL1   C18 5911   5.237   5.141   9.097  0.1630  0.8387 -0.2821
   47CHL1  H18A 5912   5.321   5.105   9.034 -1.0648 -3.5178  0.2063
   47CHL1  H18B 5913   5.220   5.054   9.164  0.1365  2.2369  1.5629
   47CHL1  H18C 5914   5.151   5.141   9.026  0.2876 -1.3327 -0.5089
   47CHL1   C12 5915   5.375   5.241   9.287  0.5421 -0.7683 -0.1544
   47CHL1  H12A 5916   5.470   5.198   9.249  2.1878  1.7708  0.8545
   47CHL1  H12B 5917   5.411   5.344   9.309  0.9456 -0.6754 -1.2037
   47CHL1   C11 5918   5.340   5.163   9.411 -0.4196  0.1616 -0.2755
   47CHL1  H11A 5919   5.347   5.056   9.383  0.5348  0.0794  0.2489
   47CHL1  H11B 5920   5.412   5.196   9.489 -0.1956 -2.9750  0.9686
   47CHL1    C9 5921   5.201   5.194   9.468  0.4710  0.6030  0.2378
   47CHL1    H9 5922   5.199   5.298   9.506 -0.7944  0.5133  0.4724
   47CHL1   C10 5923   5.157   5.092   9.576 -0.0547 -0.4385  1.2171
   47CHL1   C19 5924   5.182   4.945   9.522  0.0539 -0.2864 -0.2304
   47CHL1  H19A 5925   5.132   4.930   9.424 -1.8381  0.8185  0.5210
   47CHL1  H19B 5926   5.291   4.923   9.519  0.6961  2.3952  0.2188
   47CHL1  H19C 5927   5.150   4.869   9.596 -2.8480  0.1195 -0.9667
   47CHL1    C1 5928   5.243   5.129   9.701  0.1168 -0.3174  0.3290
   47CHL1   H1A 5929   5.351   5.118   9.678 -0.4034  0.4249 -3.0035
   47CHL1   H1B 5930   5.232   5.238   9.714  0.1433 -0.2232 -0.3820
   47CHL1    C2 5931   5.206   5.053   9.826  0.1347 -0.6545  0.3323
   47CHL1   H2A 5932   5.270   5.097   9.905 -0.1557  2.2908 -0.9242
   47CHL1   H2B 5933   5.224   4.944   9.813  0.2297 -0.6950  0.7889
   47CHL1   C20 5934   5.365   5.391   8.972 -0.8394  0.1101  0.0983
   47CHL1   H20 5935   5.337   5.300   8.914 -1.9060  0.3022  0.2917
   47CHL1   C21 5936   5.509   5.374   9.018  0.1512 -0.2351  0.0164
   47CHL1  H21A 5937   5.586   5.380   8.938 -0.3861  0.6164 -0.4435
   47CHL1  H21B 5938   5.520   5.278   9.074  2.0665 -0.5373 -0.7652
   47CHL1  H21C 5939   5.537   5.451   9.093  2.0983 -1.3251  0.4941
   47CHL1   C22 5940   5.346   5.524   8.897 -0.5662  0.0664  0.3057
   47CHL1  H22A 5941   5.239   5.518   8.867 -1.5208 -0.1409  3.4340
   47CHL1  H22B 5942   5.372   5.614   8.957 -1.7680  0.1144  0.7774
   47CHL1   C23 5943   5.424   5.529   8.769 -0.2733  0.5627  0.3031
   47CHL1  H23A 5944   5.532   5.543   8.793 -0.9112  2.7063  2.4432
   47CHL1  H23B 5945   5.416   5.427   8.726 -0.8810  0.1030  1.4641
   47CHL1   C24 5946   5.392   5.647   8.673  0.1306  0.0672 -0.5598
   47CHL1  H24A 5947   5.292   5.626   8.630  0.8675 -1.0116 -1.8251
   47CHL1  H24B 5948   5.380   5.732   8.744 -0.5036 -0.0041 -0.5775
   47CHL1   C25 5949   5.497   5.671   8.556 -0.0167 -0.1748 -0.0853
   47CHL1   H25 5950   5.599   5.673   8.599 -0.3977 -0.3499  0.8553
   47CHL1   C26 5951   5.494   5.566   8.440  0.4741 -0.3844 -0.0224
   47CHL1  H26A 5952   5.392   5.543   8.404 -0.1622  2.3036 -0.1201
   47CHL1  H26B 5953   5.535   5.472   8.484 -0.0454  0.9110  3.5519
   47CHL1  H26C 5954   5.554   5.605   8.355 -0.2277  2.1795  0.5913
   47CHL1   C27 5955   5.463   5.803   8.494 -0.5707  0.3562  0.0878
   47CHL1  H27A 5956   5.449   5.873   8.579 -1.5850 -0.9630  1.0626
   47CHL1  H27B 5957   5.552   5.838   8.437 -1.0656  0.7375 -0.4611
   47CHL1  H27C 5958   5.376   5.792   8.426  0.5807 -0.9518 -1.2241
   48CHL1    C3 5959   4.115   0.672  10.050 -0.0846  0.0382  0.5979
   48CHL1    H3 5960   4.072   0.574  10.021  2.3082 -0.7401 -0.5702
   48CHL1    O3 5961   4.113   0.670  10.192  0.8619 -0.4134  0.1193
   48CHL1   H3' 5962   4.171   0.744  10.212  2.4158 -1.1035 -1.4817
   48CHL1    C4 5963   4.258   0.677   9.998 -0.0081 -0.1054  0.1613
   48CHL1   H4A 5964   4.302   0.771  10.039  0.1842 -1.0600  2.2947
   48CHL1   H4B 5965   4.312   0.591  10.042 -0.8131 -1.1530 -0.8489
   48CHL1    C5 5966   4.284   0.690   9.854  0.0386  0.2393 -0.0124
   48CHL1    C6 5967   4.369   0.612   9.784  0.5682 -0.3414  0.1662
   48CHL1    H6 5968   4.436   0.541   9.836 -0.4736 -0.2117  1.7540
   48CHL1    C7 5969   4.401   0.614   9.633  0.2157  0.0694 -0.3001
   48CHL1   H7A 5970   4.511   0.607   9.614  0.4825  1.7671  0.3980
   48CHL1   H7B 5971   4.352   0.528   9.583  0.4733  0.0423 -0.5140
   48CHL1    C8 5972   4.327   0.729   9.568 -0.0879  0.0518 -0.7270
   48CHL1    H8 5973   4.389   0.820   9.583  0.3652 -0.4250  0.4785
   48CHL1   C14 5974   4.314   0.704   9.417  0.0346 -1.0597 -0.2553
   48CHL1   H14 5975   4.249   0.615   9.405 -0.0760 -1.6588  3.6750
   48CHL1   C15 5976   4.444   0.678   9.343 -0.4466 -0.0473  0.0267
   48CHL1  H15A 5977   4.536   0.717   9.391 -1.0424  1.5576 -0.0788
   48CHL1  H15B 5978   4.459   0.568   9.331  2.9634  0.3826 -0.6309
   48CHL1   C16 5979   4.426   0.727   9.198 -0.0776  0.5011 -0.3098
   48CHL1  H16A 5980   4.498   0.808   9.175 -1.9929  3.0974  2.1146
   48CHL1  H16B 5981   4.412   0.634   9.138 -1.6408 -0.5670  1.5805
   48CHL1   C17 5982   4.281   0.781   9.196 -0.3422  0.1667  0.5085
   48CHL1   H17 5983   4.225   0.686   9.184  1.0282 -0.7474  1.1084
   48CHL1   C13 5984   4.249   0.821   9.346 -0.1683 -0.0516  0.1280
   48CHL1   C18 5985   4.328   0.958   9.358  0.3309 -0.1033  0.9275
   48CHL1  H18A 5986   4.427   0.948   9.309  0.2289 -1.2599  0.9366
   48CHL1  H18B 5987   4.271   1.036   9.303  1.4584  0.5817  0.6973
   48CHL1  H18C 5988   4.346   0.990   9.463  1.6223  1.9643  0.1282
   48CHL1   C12 5989   4.103   0.841   9.395  0.5395 -0.0824  0.3777
   48CHL1  H12A 5990   4.065   0.936   9.352  1.7970  0.2411 -0.0442
   48CHL1  H12B 5991   4.045   0.749   9.373  0.9425 -0.3506  0.4334
   48CHL1   C11 5992   4.109   0.860   9.548 -0.6949  0.1936  0.2504
   48CHL1  H11A 5993   4.153   0.960   9.567  0.4150 -0.4143  0.9471
   48CHL1  H11B 5994   4.004   0.845   9.583 -0.7803 -0.6653 -0.3345
   48CHL1    C9 5995   4.188   0.755   9.629 -0.0470 -0.3493  0.1312
   48CHL1    H9 5996   4.137   0.658   9.611 -0.5853  0.1490 -1.1957
   48CHL1   C10 5997   4.193   0.789   9.781  0.0013  0.0435  0.0939
   48CHL1   C19 5998   4.246   0.933   9.800 -0.1158 -0.0157 -0.3797
   48CHL1  H19A 5999   4.164   1.000   9.766 -0.2641  0.3695  0.7120
   48CHL1  H19B 6000   4.260   0.956   9.908  0.8265 -0.9158 -0.2888
   48CHL1  H19C 6001   4.340   0.956   9.746 -0.0787 -0.5446 -0.5488
   48CHL1    C1 6002   4.043   0.783   9.838  0.5268  0.3564 -0.2511
   48CHL1   H1A 6003   3.989   0.871   9.797  0.9507  0.6850 -0.1142
   48CHL1   H1B 6004   3.998   0.690   9.798  2.6309 -0.2440 -1.4185
   48CHL1    C2 6005   4.030   0.784   9.996 -0.5195 -0.0399  0.4228
   48CHL1   H2A 6006   3.925   0.773  10.032 -0.2708  0.2852  1.2664
   48CHL1   H2B 6007   4.071   0.880  10.033  0.1713  0.0230 -0.4844
   48CHL1   C20 6008   4.248   0.869   9.075  0.7381 -0.2315 -0.2034
   48CHL1   H20 6009   4.304   0.965   9.078  0.8622  0.0484 -4.6400
   48CHL1   C21 6010   4.097   0.908   9.064 -0.5444  0.7685 -0.3639
   48CHL1  H21A 6011   4.039   0.817   9.039 -1.5295  1.3237 -0.1471
   48CHL1  H21B 6012   4.078   0.977   8.979  0.4487  0.9897 -0.4226
   48CHL1  H21C 6013   4.053   0.950   9.157 -0.6178  1.4103 -0.6838
   48CHL1   C22 6014   4.296   0.806   8.939 -0.3766 -0.9988 -0.8113
   48CHL1  H22A 6015   4.263   0.872   8.856  2.4846  0.6019 -0.7853
   48CHL1  H22B 6016   4.407   0.800   8.945 -0.2511 -0.4423 -2.3114
   48CHL1   C23 6017   4.240   0.670   8.899  0.0848 -0.5697 -0.5878
   48CHL1  H23A 6018   4.308   0.601   8.952  0.1066 -1.5319 -1.8189
   48CHL1  H23B 6019   4.132   0.653   8.919  0.1365  0.6075  0.8589
   48CHL1   C24 6020   4.254   0.642   8.747  0.3849  0.1096  0.2104
   48CHL1  H24A 6021   4.182   0.698   8.684 -0.1429 -1.1992 -0.3845
   48CHL1  H24B 6022   4.356   0.679   8.721  0.0753  0.7599 -0.1208
   48CHL1   C25 6023   4.258   0.495   8.704  0.5582 -0.0098  0.0791
   48CHL1   H25 6024   4.248   0.502   8.593 -1.8393  0.9688  0.3033
   48CHL1   C26 6025   4.391   0.431   8.738 -0.2232  0.2216  0.5846
   48CHL1  H26A 6026   4.381   0.322   8.722  2.6675  0.0775 -0.8466
   48CHL1  H26B 6027   4.463   0.477   8.667 -0.7023  1.5325  0.9076
   48CHL1  H26C 6028   4.416   0.464   8.841 -1.6186 -1.0735  1.3848
   48CHL1   C27 6029   4.132   0.409   8.753 -0.4484 -0.0782  0.0600
   48CHL1  H27A 6030   4.030   0.448   8.734 -0.1938  1.0913  0.9635
   48CHL1  H27B 6031   4.144   0.308   8.709  1.3185  0.1441 -0.0540
   48CHL1  H27C 6032   4.148   0.381   8.859  0.5363  1.5325  0.3716
   49CHL1    C3 6033   4.024   1.763  10.280 -0.0441 -0.8812  0.3521
   49CHL1    H3 6034   4.111   1.832  10.283  0.2684 -1.2019 -0.7662
   49CHL1    O3 6035   3.979   1.737  10.412 -0.4665 -0.6319 -0.1668
   49CHL1   H3' 6036   3.905   1.676  10.414 -0.5595 -0.5145  2.0048
   49CHL1    C4 6037   3.906   1.836  10.211  0.3820  0.1974  0.5415
   49CHL1   H4A 6038   3.815   1.772  10.216 -0.2418  1.0282  0.0417
   49CHL1   H4B 6039   3.900   1.933  10.265 -0.5228 -0.0496  0.9040
   49CHL1    C5 6040   3.937   1.866  10.062  0.5628  0.0315  0.3063
   49CHL1    C6 6041   3.927   1.991  10.014  1.0609  0.4317  0.1100
   49CHL1    H6 6042   3.892   2.070  10.082  0.1252  0.8403 -0.8212
   49CHL1    C7 6043   3.955   2.027   9.871 -0.3577  0.6001 -0.5828
   49CHL1   H7A 6044   3.875   2.085   9.820 -2.8379  0.3381  2.6400
   49CHL1   H7B 6045   4.051   2.082   9.873 -0.1761  0.3159  1.9884
   49CHL1    C8 6046   3.982   1.907   9.784 -0.2535  0.6910  0.6417
   49CHL1    H8 6047   3.882   1.865   9.759 -0.4345  0.2459  2.0034
   49CHL1   C14 6048   4.061   1.948   9.664  0.2460  0.2873 -0.2902
   49CHL1   H14 6049   4.161   1.980   9.700  0.5374 -0.7968 -0.0876
   49CHL1   C15 6050   3.996   2.066   9.592 -0.0303  0.5610 -0.3800
   49CHL1  H15A 6051   3.889   2.049   9.569  0.4817  0.1434 -2.7513
   49CHL1  H15B 6052   4.024   2.150   9.658 -0.7510 -0.2262  0.9604
   49CHL1   C16 6053   4.061   2.065   9.451 -0.1948 -0.1557  0.5943
   49CHL1  H16A 6054   3.979   2.077   9.378 -0.6641  0.1619  1.1621
   49CHL1  H16B 6055   4.136   2.145   9.437  0.8298 -1.4117 -1.6572
   49CHL1   C17 6056   4.132   1.927   9.441 -0.3229  0.3778  0.5049
   49CHL1   H17 6057   4.242   1.931   9.453 -0.0441 -1.0649 -1.1031
   49CHL1   C13 6058   4.070   1.842   9.558  0.2778  0.3791 -0.2919
   49CHL1   C18 6059   3.928   1.783   9.520  0.1585  0.3441  0.7072
   49CHL1  H18A 6060   3.873   1.861   9.463  1.6683  1.4048  0.6627
   49CHL1  H18B 6061   3.930   1.692   9.456 -2.9678  0.3140  0.4739
   49CHL1  H18C 6062   3.861   1.752   9.603  0.6498  0.2898  1.0881
   49CHL1   C12 6063   4.157   1.735   9.623 -0.7027  0.0547  0.8227
   49CHL1  H12A 6064   4.176   1.648   9.557 -1.1949 -0.4996  1.3958
   49CHL1  H12B 6065   4.257   1.779   9.647  0.0109 -1.6675  1.1697
   49CHL1   C11 6066   4.089   1.682   9.748 -0.3883 -0.7060 -0.2635
   49CHL1  H11A 6067   3.999   1.626   9.715 -0.5063 -0.3794 -0.4971
   49CHL1  H11B 6068   4.159   1.615   9.802  0.0183  0.8843  1.2626
   49CHL1    C9 6069   4.056   1.797   9.853 -0.6960  0.5428  0.0167
   49CHL1    H9 6070   4.160   1.828   9.877 -0.2852  0.1833 -1.2228
   49CHL1   C10 6071   3.994   1.742   9.984 -0.3451  0.7376 -0.2764
   49CHL1   C19 6072   3.874   1.661   9.954  0.5839  0.6611  0.0992
   49CHL1  H19A 6073   3.815   1.641  10.046  0.7249 -0.1830  0.0194
   49CHL1  H19B 6074   3.799   1.711   9.889  0.2007 -1.9934 -1.6721
   49CHL1  H19C 6075   3.903   1.565   9.906 -1.0380  0.4890 -0.6124
   49CHL1    C1 6076   4.092   1.651  10.068  0.5665 -0.3760  0.6283
   49CHL1   H1A 6077   4.107   1.555  10.013 -0.3457  0.4614 -1.1977
   49CHL1   H1B 6078   4.189   1.704  10.075  0.8385 -0.7620 -0.0933
   49CHL1    C2 6079   4.063   1.632  10.216 -0.1850  0.1544  0.3035
   49CHL1   H2A 6080   4.148   1.585  10.269  0.2878  1.1286  0.4238
   49CHL1   H2B 6081   3.972   1.571  10.236 -0.5641  0.8009  0.5652
   49CHL1   C20 6082   4.104   1.873   9.302  0.3594  0.1013 -0.5063
   49CHL1   H20 6083   3.994   1.866   9.287  0.2187  1.4640 -0.2147
   49CHL1   C21 6084   4.163   1.735   9.284  0.6310  0.3304  0.6365
   49CHL1  H21A 6085   4.271   1.738   9.310  0.5295  2.3158  0.9901
   49CHL1  H21B 6086   4.164   1.706   9.176 -0.5604 -0.5694  0.8581
   49CHL1  H21C 6087   4.116   1.664   9.354  4.1830  0.0609  3.0349
   49CHL1   C22 6088   4.163   1.965   9.193 -0.0235 -0.5573 -0.1656
   49CHL1  H22A 6089   4.152   2.072   9.223 -0.7895 -1.1593  1.8489
   49CHL1  H22B 6090   4.268   1.935   9.177  0.6522  0.9853  1.0369
   49CHL1   C23 6091   4.101   1.941   9.058 -0.1456 -0.3877  0.7326
   49CHL1  H23A 6092   4.105   1.834   9.028  1.1431 -0.0844 -0.2864
   49CHL1  H23B 6093   3.994   1.971   9.060 -0.4672 -1.5191  1.2696
   49CHL1   C24 6094   4.176   2.019   8.951 -0.1374  0.2505  0.4367
   49CHL1  H24A 6095   4.185   2.126   8.981 -0.7062  0.6834 -0.8480
   49CHL1  H24B 6096   4.279   1.982   8.931 -0.2855  0.3795 -0.6565
   49CHL1   C25 6097   4.109   2.026   8.813  0.0445 -0.5859  0.1335
   49CHL1   H25 6098   4.013   2.079   8.833 -0.4633 -0.8000 -1.5709
   49CHL1   C26 6099   4.183   2.107   8.713  0.2083  0.0312 -0.0284
   49CHL1  H26A 6100   4.223   2.200   8.758  0.9805  0.8258 -2.2396
   49CHL1  H26B 6101   4.279   2.054   8.692 -0.1853  0.0614 -2.1064
   49CHL1  H26C 6102   4.126   2.133   8.621 -0.0572 -1.7096 -0.3920
   49CHL1   C27 6103   4.066   1.892   8.749 -0.6390 -0.1730  0.7304
   49CHL1  H27A 6104   3.999   1.916   8.663  0.7910 -0.1646 -0.4266
   49CHL1  H27B 6105   4.155   1.830   8.725  0.1820  1.7526 -1.6469
   49CHL1  H27C 6106   4.000   1.840   8.821 -0.4488 -0.4721  0.6900
   50CHL1    C3 6107   0.487   4.466   9.887  0.0653  0.3458 -0.4369
   50CHL1    H3 6108   0.581   4.518   9.859  0.5083  1.1595  2.2384
   50CHL1    O3 6109   0.465   4.490  10.029  0.0705 -0.3092  0.0698
   50CHL1   H3' 6110   0.424   4.413  10.068 -1.9779  1.5093  1.7482
   50CHL1    C4 6111   0.371   4.496   9.803  0.3358  0.0216  0.0224
   50CHL1   H4A 6112   0.284   4.446   9.851 -0.6006 -0.2297 -1.8350
   50CHL1   H4B 6113   0.354   4.605   9.813  3.5868  0.6799 -0.3343
   50CHL1    C5 6114   0.396   4.463   9.656  1.1866  0.0138  0.0689
   50CHL1    C6 6115   0.393   4.554   9.558  0.2591  0.0908 -0.2698
   50CHL1    H6 6116   0.370   4.658   9.587  0.9383 -0.1590  1.2791
   50CHL1    C7 6117   0.414   4.528   9.410  0.0647  0.3155 -0.0667
   50CHL1   H7A 6118   0.331   4.570   9.348  0.6569 -0.1192 -1.1794
   50CHL1   H7B 6119   0.505   4.584   9.379 -0.5182  0.6612 -1.2200
   50CHL1    C8 6120   0.427   4.374   9.376  0.3742 -0.2990  0.2496
   50CHL1    H8 6121   0.321   4.340   9.372 -0.0472  1.0040 -3.4365
   50CHL1   C14 6122   0.484   4.338   9.239 -0.1309  0.1775 -0.8281
   50CHL1   H14 6123   0.594   4.356   9.246  0.2957 -2.3781  0.0474
   50CHL1   C15 6124   0.431   4.411   9.110  0.2028  0.2260 -0.5276
   50CHL1  H15A 6125   0.320   4.414   9.113  0.2261  0.3327  1.5091
   50CHL1  H15B 6126   0.475   4.512   9.101 -1.4636  1.0339  0.0533
   50CHL1   C16 6127   0.478   4.320   8.996  0.3291 -0.1342 -0.0989
   50CHL1  H16A 6128   0.388   4.278   8.947 -0.5671 -0.5730  1.8013
   50CHL1  H16B 6129   0.543   4.379   8.928  1.6112 -0.7553  0.5438
   50CHL1   C17 6130   0.540   4.199   9.060  0.0195  1.6624  0.1371
   50CHL1   H17 6131   0.649   4.221   9.058 -0.2845  3.3133 -0.5329
   50CHL1   C13 6132   0.488   4.189   9.205 -0.0973 -0.2455  0.3596
   50CHL1   C18 6133   0.351   4.118   9.198 -0.8664 -0.6824 -0.5896
   50CHL1  H18A 6134   0.359   4.008   9.189 -0.8434 -0.6252 -1.2956
   50CHL1  H18B 6135   0.289   4.129   9.290  1.5531  1.2743  0.9378
   50CHL1  H18C 6136   0.287   4.167   9.121 -2.6963  0.9067  1.7764
   50CHL1   C12 6137   0.579   4.118   9.307 -0.6381 -0.2376 -0.4750
   50CHL1  H12A 6138   0.577   4.007   9.303  0.6555 -0.3839  1.4760
   50CHL1  H12B 6139   0.684   4.154   9.303 -0.6405  0.0172  1.0873
   50CHL1   C11 6140   0.536   4.149   9.454  0.2932 -0.3884 -0.4956
   50CHL1  H11A 6141   0.449   4.082   9.467  0.6219 -0.8776 -0.8046
   50CHL1  H11B 6142   0.620   4.122   9.522 -0.5192 -3.0615 -0.4649
   50CHL1    C9 6143   0.503   4.295   9.482 -0.2385  0.0898 -0.4684
   50CHL1    H9 6144   0.599   4.350   9.469 -0.1330 -0.6544 -3.4873
   50CHL1   C10 6145   0.446   4.314   9.624  0.1051 -0.5514  0.2332
   50CHL1   C19 6146   0.316   4.224   9.636  0.6049 -0.1509  0.0517
   50CHL1  H19A 6147   0.347   4.132   9.690 -1.8401 -1.4227 -0.5955
   50CHL1  H19B 6148   0.240   4.262   9.706  1.2000  0.1938  0.5226
   50CHL1  H19C 6149   0.264   4.211   9.539  1.3699 -0.8241 -0.2816
   50CHL1    C1 6150   0.556   4.274   9.726 -0.5863  0.1674 -0.7233
   50CHL1   H1A 6151   0.572   4.165   9.715  1.3501  0.4083 -0.5764
   50CHL1   H1B 6152   0.649   4.329   9.701  0.2230 -0.0477  1.5865
   50CHL1    C2 6153   0.522   4.313   9.878  0.6695  0.5258  0.7038
   50CHL1   H2A 6154   0.611   4.286   9.939  1.0883  0.1724 -0.0524
   50CHL1   H2B 6155   0.430   4.259   9.907  0.6264 -0.5937 -1.3830
   50CHL1   C20 6156   0.527   4.064   8.968 -0.2699 -0.5082 -0.3363
   50CHL1   H20 6157   0.421   4.029   8.970  0.0677 -1.6245 -1.0915
   50CHL1   C21 6158   0.613   3.950   9.029  0.0846 -0.3917 -0.0792
   50CHL1  H21A 6159   0.626   3.862   8.962  0.7894 -1.3297  1.2431
   50CHL1  H21B 6160   0.557   3.914   9.118 -0.4889 -0.2992 -0.4007
   50CHL1  H21C 6161   0.706   3.997   9.068 -0.1919 -0.8068  1.1205
   50CHL1   C22 6162   0.565   4.087   8.825  0.2860 -0.4656 -0.5060
   50CHL1  H22A 6163   0.524   4.183   8.786 -1.1046 -0.5143  0.7318
   50CHL1  H22B 6164   0.676   4.086   8.813  0.1880 -2.3030 -1.6756
   50CHL1   C23 6165   0.522   3.963   8.735  0.2815  0.0148 -0.2352
   50CHL1  H23A 6166   0.571   3.871   8.772 -1.0381 -0.4339  0.4800
   50CHL1  H23B 6167   0.411   3.951   8.743  0.5867 -2.2504  1.6467
   50CHL1   C24 6168   0.560   3.999   8.591 -0.0537  0.3313  0.4337
   50CHL1  H24A 6169   0.493   4.080   8.554  0.3226 -0.0717 -1.2293
   50CHL1  H24B 6170   0.664   4.040   8.597  0.2815 -0.6996  3.7808
   50CHL1   C25 6171   0.547   3.872   8.496 -0.0482 -0.5158 -0.1916
   50CHL1   H25 6172   0.615   3.796   8.541  2.3432  2.1444  1.0392
   50CHL1   C26 6173   0.400   3.829   8.490 -0.4737  0.4090  0.1982
   50CHL1  H26A 6174   0.377   3.765   8.579  1.1230 -1.1325 -0.4358
   50CHL1  H26B 6175   0.327   3.912   8.484  0.1414  1.1079  1.8609
   50CHL1  H26C 6176   0.392   3.760   8.403  1.7429  1.1151 -0.6296
   50CHL1   C27 6177   0.610   3.892   8.355 -0.0778 -0.0318  0.4085
   50CHL1  H27A 6178   0.605   3.791   8.309  0.3035  1.1437 -2.4293
   50CHL1  H27B 6179   0.561   3.966   8.287  0.0403  1.1666  1.5887
   50CHL1  H27C 6180   0.715   3.924   8.366  0.6638 -2.3747  0.6577
   51CHL1    C3 6181   6.729   6.481  10.154 -0.0467  1.0010 -0.5358
   51CHL1    H3 6182   6.830   6.436  10.144  0.5873  2.0541  0.8592
   51CHL1    O3 6183   6.708   6.493  10.294 -0.4552  0.0559  0.1067
   51CHL1   H3' 6184   6.616   6.519  10.298 -0.6908 -0.7812  0.3653
   51CHL1    C4 6185   6.729   6.614  10.082  0.1187 -0.7503 -0.7331
   51CHL1   H4A 6186   6.640   6.681  10.091  0.8042 -0.0420  1.1604
   51CHL1   H4B 6187   6.808   6.672  10.134  0.5946 -1.3804 -0.7449
   51CHL1    C5 6188   6.760   6.596   9.935 -0.3539  0.0349  0.3561
   51CHL1    C6 6189   6.861   6.657   9.870 -0.2505 -0.1311 -0.6442
   51CHL1    H6 6190   6.924   6.729   9.924  0.9224 -1.2968 -0.4160
   51CHL1    C7 6191   6.900   6.655   9.725 -0.0096  0.0650  0.1001
   51CHL1   H7A 6192   6.913   6.757   9.682 -0.3091 -0.3923 -1.1073
   51CHL1   H7B 6193   6.993   6.596   9.718 -0.4761 -1.0029  2.1621
   51CHL1    C8 6194   6.783   6.587   9.649 -0.8195  0.3368 -0.3762
   51CHL1    H8 6195   6.706   6.666   9.641  0.1695  1.5408  1.2383
   51CHL1   C14 6196   6.827   6.563   9.509 -0.3484 -0.4378  0.3207
   51CHL1   H14 6197   6.918   6.499   9.516 -0.8704 -1.1307  0.9248
   51CHL1   C15 6198   6.880   6.679   9.431 -0.0528 -0.3685  0.0010
   51CHL1  H15A 6199   6.801   6.757   9.430 -0.9813 -1.2792  0.4083
   51CHL1  H15B 6200   6.979   6.720   9.463 -0.2536 -0.0036  0.1614
   51CHL1   C16 6201   6.881   6.627   9.291  0.0402  0.0963  0.5241
   51CHL1  H16A 6202   6.839   6.697   9.216  0.7221  1.0805  1.0335
   51CHL1  H16B 6203   6.984   6.600   9.257 -0.2318 -0.3888  0.0754
   51CHL1   C17 6204   6.809   6.489   9.287 -0.0013 -0.0695 -0.4145
   51CHL1   H17 6205   6.889   6.412   9.298  0.2001  0.2599  0.5087
   51CHL1   C13 6206   6.724   6.494   9.422 -0.0126 -0.8788  0.0955
   51CHL1   C18 6207   6.594   6.574   9.408  0.7287 -0.0122 -0.2959
   51CHL1  H18A 6208   6.604   6.670   9.353  1.6317  0.1592  0.1460
   51CHL1  H18B 6209   6.520   6.508   9.358  1.0806  0.2026 -1.1175
   51CHL1  H18C 6210   6.549   6.593   9.508  1.6026 -0.8643  0.2864
   51CHL1   C12 6211   6.698   6.355   9.481 -0.6792  0.2016  0.7538
   51CHL1  H12A 6212   6.616   6.297   9.433 -0.4104 -1.0334  1.7525
   51CHL1  H12B 6213   6.795   6.304   9.467 -0.6171  0.5782 -0.2640
   51CHL1   C11 6214   6.662   6.361   9.630  0.5396  0.0343 -0.3460
   51CHL1  H11A 6215   6.552   6.370   9.642  0.4664  0.2200 -1.1299
   51CHL1  H11B 6216   6.681   6.262   9.679 -0.7059  0.3032  0.7508
   51CHL1    C9 6217   6.743   6.459   9.724 -0.2137  0.7512  0.3948
   51CHL1    H9 6218   6.842   6.412   9.742  0.1428  0.6241 -1.6281
   51CHL1   C10 6219   6.678   6.494   9.861 -0.2840 -0.1952  0.3555
   51CHL1   C19 6220   6.547   6.569   9.833 -0.0364 -0.0380  1.0015
   51CHL1  H19A 6221   6.482   6.510   9.765 -1.4424  0.4204  1.9211
   51CHL1  H19B 6222   6.492   6.589   9.927  0.3099  1.5783  0.8828
   51CHL1  H19C 6223   6.564   6.665   9.781  2.9865 -1.1783 -0.3681
   51CHL1    C1 6224   6.652   6.363   9.943 -0.1421 -0.4519 -0.4207
   51CHL1   H1A 6225   6.587   6.296   9.882 -0.3972 -0.8855  0.3260
   51CHL1   H1B 6226   6.744   6.301   9.939 -0.5073 -1.0104 -0.3969
   51CHL1    C2 6227   6.622   6.384  10.092 -0.1757 -0.4060 -0.2210
   51CHL1   H2A 6228   6.622   6.283  10.139  3.5355 -1.0864 -1.3638
   51CHL1   H2B 6229   6.520   6.428  10.103  0.1327  0.5475 -0.9426
   51CHL1   C20 6230   6.743   6.462   9.152  0.6075  0.4962 -0.0174
   51CHL1   H20 6231   6.655   6.530   9.149  1.2206  1.4209  1.6700
   51CHL1   C21 6232   6.703   6.320   9.156 -0.6565  0.3679 -0.5071
   51CHL1  H21A 6233   6.614   6.304   9.221 -2.1320  2.3335 -1.9144
   51CHL1  H21B 6234   6.785   6.251   9.186 -0.5140  2.1971  4.0383
   51CHL1  H21C 6235   6.674   6.297   9.051 -1.6893  0.6624 -0.3034
   51CHL1   C22 6236   6.825   6.499   9.026 -0.5390 -0.1773 -0.3797
   51CHL1  H22A 6237   6.893   6.584   9.044  0.6362 -0.9337 -1.1368
   51CHL1  H22B 6238   6.892   6.413   9.002 -0.8832 -0.5424 -0.0573
   51CHL1   C23 6239   6.757   6.522   8.885  0.3615  0.3203  0.4045
   51CHL1  H23A 6240   6.674   6.448   8.878 -0.4927  1.1672  1.2792
   51CHL1  H23B 6241   6.704   6.620   8.886 -0.3333  0.0643 -2.3525
   51CHL1   C24 6242   6.838   6.501   8.760  0.0486  0.6131 -0.3113
   51CHL1  H24A 6243   6.903   6.586   8.731  2.0859 -0.9925 -0.7218
   51CHL1  H24B 6244   6.899   6.409   8.768 -1.7783 -0.8142 -1.6958
   51CHL1   C25 6245   6.750   6.485   8.635 -0.6736  0.5752 -0.3856
   51CHL1   H25 6246   6.688   6.393   8.641 -1.8185  1.1301 -2.5031
   51CHL1   C26 6247   6.639   6.595   8.613 -0.0419 -0.0010 -0.3647
   51CHL1  H26A 6248   6.564   6.595   8.694  1.8413 -0.0144  1.4774
   51CHL1  H26B 6249   6.682   6.696   8.631 -0.9902  0.6123 -1.4109
   51CHL1  H26C 6250   6.588   6.596   8.514  0.3588 -0.2145 -0.5766
   51CHL1   C27 6251   6.838   6.466   8.510  0.3988 -0.2899  0.4666
   51CHL1  H27A 6252   6.776   6.418   8.431  1.7000 -0.4619 -0.4872
   51CHL1  H27B 6253   6.887   6.558   8.471  1.5988 -1.7683 -1.7041
   51CHL1  H27C 6254   6.923   6.400   8.540  0.0972 -1.1485 -0.4994
   52CHL1    C3 6255   4.718   5.424   9.901 -0.1612  0.5086  0.1754
   52CHL1    H3 6256   4.710   5.339   9.830 -1.4364 -0.5315  1.5088
   52CHL1    O3 6257   4.666   5.372  10.023 -0.3177  0.1669 -0.8182
   52CHL1   H3' 6258   4.703   5.284  10.033  0.3853  0.2444 -2.4660
   52CHL1    C4 6259   4.863   5.474   9.928  0.4868  0.3212 -0.1084
   52CHL1   H4A 6260   4.866   5.550  10.009 -0.7303  0.6471 -0.3523
   52CHL1   H4B 6261   4.924   5.389   9.965  0.3606  0.8342  1.3395
   52CHL1    C5 6262   4.930   5.541   9.814  0.7303  0.0762 -0.1909
   52CHL1    C6 6263   5.051   5.502   9.771  0.6264  0.5070  0.2260
   52CHL1    H6 6264   5.105   5.438   9.843 -0.5024 -1.3200 -0.4945
   52CHL1    C7 6265   5.127   5.567   9.655 -0.0121 -0.0711 -0.1224
   52CHL1   H7A 6266   5.228   5.602   9.685 -1.1137  2.5700  0.8100
   52CHL1   H7B 6267   5.144   5.490   9.576 -0.3355 -0.8052  0.5081
   52CHL1    C8 6268   5.047   5.685   9.587  0.0456  0.2026 -0.5823
   52CHL1    H8 6269   5.058   5.783   9.638 -1.8980  0.2547 -0.1611
   52CHL1   C14 6270   5.092   5.702   9.441 -0.1130  0.0906  0.3285
   52CHL1   H14 6271   5.065   5.613   9.381  1.3234 -1.2595  1.5852
   52CHL1   C15 6272   5.242   5.721   9.410  0.2920  0.4474 -0.1191
   52CHL1  H15A 6273   5.301   5.781   9.482 -0.8427  1.9374 -0.3808
   52CHL1  H15B 6274   5.284   5.619   9.394  0.4421  0.4223  0.4253
   52CHL1   C16 6275   5.248   5.787   9.272  0.6067  0.2927  0.9346
   52CHL1  H16A 6276   5.295   5.888   9.275  1.0593  0.5363 -4.1928
   52CHL1  H16B 6277   5.313   5.731   9.202  0.9233  0.3121  1.2098
   52CHL1   C17 6278   5.100   5.812   9.225  0.0846 -0.0261  0.7220
   52CHL1   H17 6279   5.069   5.719   9.171  0.1365  0.2465  0.2122
   52CHL1   C13 6280   5.024   5.811   9.363  0.4791 -0.1745 -0.5235
   52CHL1   C18 6281   5.053   5.944   9.435 -0.1578 -0.1139  0.0171
   52CHL1  H18A 6282   4.995   5.955   9.529 -0.3965 -1.8702  0.1017
   52CHL1  H18B 6283   5.160   5.971   9.450  0.3084 -1.9786  0.1950
   52CHL1  H18C 6284   5.007   6.024   9.372 -2.1608  1.1158  2.8512
   52CHL1   C12 6285   4.871   5.792   9.362  0.1409 -0.1695 -0.0513
   52CHL1  H12A 6286   4.809   5.877   9.327  2.1395  0.2615 -2.9017
   52CHL1  H12B 6287   4.847   5.701   9.303  1.4328 -3.1605  3.6159
   52CHL1   C11 6288   4.820   5.764   9.506  0.1792  0.6024 -0.0106
   52CHL1  H11A 6289   4.809   5.861   9.558  0.2097  2.1137 -2.6460
   52CHL1  H11B 6290   4.718   5.721   9.503  0.5811 -0.4062  0.1520
   52CHL1    C9 6291   4.898   5.656   9.587  0.7650 -0.1576  0.3218
   52CHL1    H9 6292   4.894   5.562   9.528  1.9730 -0.7790  1.1955
   52CHL1   C10 6293   4.844   5.644   9.737 -0.0887 -0.1521 -0.3995
   52CHL1   C19 6294   4.850   5.777   9.814 -0.4422 -0.7643  0.5389
   52CHL1  H19A 6295   4.780   5.854   9.776  0.6171  0.1467  0.3751
   52CHL1  H19B 6296   4.832   5.762   9.923  1.2478 -1.2765  0.7915
   52CHL1  H19C 6297   4.956   5.812   9.811 -0.5237 -0.5005  0.6547
   52CHL1    C1 6298   4.697   5.589   9.732  0.6990 -0.2573  0.1542
   52CHL1   H1A 6299   4.632   5.669   9.693 -1.1856 -1.2258  1.1870
   52CHL1   H1B 6300   4.689   5.498   9.668 -0.6463  1.6380 -2.5315
   52CHL1    C2 6301   4.640   5.553   9.868  0.0497  0.2994  0.2568
   52CHL1   H2A 6302   4.533   5.524   9.867  0.4202 -1.2175 -1.1340
   52CHL1   H2B 6303   4.658   5.634   9.941  1.6104  0.4435 -0.2352
   52CHL1   C20 6304   5.091   5.930   9.125 -0.9024 -0.0784 -0.1828
   52CHL1   H20 6305   5.139   6.016   9.176  0.8359 -2.0659  1.7539
   52CHL1   C21 6306   4.949   5.951   9.084  0.6769 -0.1241 -0.0326
   52CHL1  H21A 6307   4.922   6.034   9.014 -1.5814 -1.4166 -0.8096
   52CHL1  H21B 6308   4.876   5.973   9.165 -2.1603 -1.1534 -2.1336
   52CHL1  H21C 6309   4.917   5.858   9.033 -0.6848 -0.1664  0.8583
   52CHL1   C22 6310   5.190   5.903   8.999  0.7819 -0.3891 -0.1129
   52CHL1  H22A 6311   5.294   5.881   9.031  0.9036  0.1394 -0.1427
   52CHL1  H22B 6312   5.154   5.805   8.962 -0.0885 -0.6712  1.3822
   52CHL1   C23 6313   5.190   6.017   8.899 -0.6249 -0.0197 -0.2218
   52CHL1  H23A 6314   5.097   6.077   8.891 -1.3775 -1.0841  0.3304
   52CHL1  H23B 6315   5.267   6.089   8.934 -1.7249  0.1304  2.0600
   52CHL1   C24 6316   5.219   5.965   8.762  1.0190 -0.3998  0.4726
   52CHL1  H24A 6317   5.327   5.947   8.777  1.1097  1.3985  2.2438
   52CHL1  H24B 6318   5.171   5.865   8.749  0.2795 -0.0018  0.0736
   52CHL1   C25 6319   5.185   6.039   8.630  0.1707  0.0333 -0.5626
   52CHL1   H25 6320   5.200   5.978   8.538 -2.1030  2.2354 -2.5387
   52CHL1   C26 6321   5.041   6.078   8.634 -0.2824 -0.1654 -0.3655
   52CHL1  H26A 6322   5.042   6.169   8.697 -0.5790 -0.1441 -0.3933
   52CHL1  H26B 6323   5.004   6.107   8.534  2.3252  0.1897 -1.3074
   52CHL1  H26C 6324   4.987   5.997   8.688  1.0382 -1.4638 -0.9332
   52CHL1   C27 6325   5.271   6.158   8.612 -0.6760 -0.3186  0.1998
   52CHL1  H27A 6326   5.377   6.128   8.595 -0.1292  0.2115  2.3898
   52CHL1  H27B 6327   5.232   6.228   8.534 -0.7584  0.9838  1.3623
   52CHL1  H27C 6328   5.254   6.211   8.708 -3.3986  0.8187 -0.8044
   53CHL1    C3 6329   5.525   5.799   9.766  0.1287 -0.2241  0.3315
   53CHL1    H3 6330   5.426   5.790   9.718  0.4448  0.8138 -0.5691
   53CHL1    O3 6331   5.528   5.768   9.900 -0.1460  0.8151 -0.2966
   53CHL1   H3' 6332   5.612   5.802   9.931 -0.1816  0.7322 -0.1042
   53CHL1    C4 6333   5.624   5.704   9.699 -0.9470  0.3942  0.0842
   53CHL1   H4A 6334   5.719   5.733   9.748 -1.5952  3.1663 -0.1215
   53CHL1   H4B 6335   5.599   5.597   9.714 -1.2580  0.5570  0.7370
   53CHL1    C5 6336   5.644   5.731   9.543  0.3465 -0.3632  0.1653
   53CHL1    C6 6337   5.622   5.636   9.447  0.4677 -0.2140  0.4297
   53CHL1    H6 6338   5.606   5.529   9.465  1.1522 -0.6390 -1.3324
   53CHL1    C7 6339   5.643   5.667   9.300  0.2453  0.4458 -0.0399
   53CHL1   H7A 6340   5.716   5.598   9.254  0.9852 -0.6082  2.5304
   53CHL1   H7B 6341   5.544   5.655   9.252  0.3950  0.2548 -0.2971
   53CHL1    C8 6342   5.686   5.814   9.266  1.2258 -0.6934 -0.1263
   53CHL1    H8 6343   5.796   5.816   9.275  1.2557 -0.0032 -0.6016
   53CHL1   C14 6344   5.650   5.854   9.125  0.7013 -0.7948 -0.1838
   53CHL1   H14 6345   5.540   5.847   9.113  0.1461  0.0079  3.4538
   53CHL1   C15 6346   5.711   5.768   9.010 -0.3011 -0.2509  0.0406
   53CHL1  H15A 6347   5.811   5.733   9.045 -0.8304  0.6120  2.6935
   53CHL1  H15B 6348   5.641   5.684   8.993 -0.4348  0.2695 -2.2989
   53CHL1   C16 6349   5.713   5.850   8.883  0.5344 -0.7368  0.1867
   53CHL1  H16A 6350   5.819   5.865   8.854  0.3794  0.3321  0.1483
   53CHL1  H16B 6351   5.660   5.798   8.799 -1.0566  0.8230  0.1659
   53CHL1   C17 6352   5.652   5.988   8.927  0.3874  0.0111  0.3159
   53CHL1   H17 6353   5.543   5.981   8.907  0.5115  0.5942 -0.6720
   53CHL1   C13 6354   5.680   5.993   9.082  0.2969 -0.2212 -0.3613
   53CHL1   C18 6355   5.831   6.027   9.104 -0.9259  0.0161  0.3545
   53CHL1  H18A 6356   5.858   6.133   9.085  0.0548 -0.2069  0.4608
   53CHL1  H18B 6357   5.872   6.020   9.208  0.3347  2.4985  0.0842
   53CHL1  H18C 6358   5.898   5.960   9.046 -0.5825  1.2370 -0.7098
   53CHL1   C12 6359   5.604   6.092   9.170 -0.2883  0.2505  0.3252
   53CHL1  H12A 6360   5.634   6.198   9.155 -1.6676  1.1456  3.1809
   53CHL1  H12B 6361   5.497   6.083   9.140  0.2956 -1.1916 -1.4892
   53CHL1   C11 6362   5.629   6.062   9.322 -0.1174 -0.7902  0.4464
   53CHL1  H11A 6363   5.727   6.099   9.359 -1.1730  1.6454  0.9810
   53CHL1  H11B 6364   5.555   6.117   9.384 -0.5352 -2.5076  1.5546
   53CHL1    C9 6365   5.618   5.915   9.360 -0.0597 -0.2688  0.1968
   53CHL1    H9 6366   5.510   5.890   9.351  0.6814 -3.3809 -2.4118
   53CHL1   C10 6367   5.657   5.884   9.507 -0.1253  0.1348 -0.4837
   53CHL1   C19 6368   5.801   5.925   9.539  0.9111  0.3163  0.1464
   53CHL1  H19A 6369   5.805   6.036   9.546 -2.4780  0.6163 -1.0298
   53CHL1  H19B 6370   5.825   5.886   9.640  3.3911  3.0816  0.7707
   53CHL1  H19C 6371   5.873   5.877   9.469 -0.0318 -1.6283  0.4373
   53CHL1    C1 6372   5.558   5.963   9.595  0.1977 -0.4445 -0.9038
   53CHL1   H1A 6373   5.591   6.069   9.590  0.2279 -0.2743  1.8534
   53CHL1   H1B 6374   5.453   5.961   9.559 -0.0337  2.0680 -0.5375
   53CHL1    C2 6375   5.563   5.947   9.748 -0.0041  0.3958 -0.0409
   53CHL1   H2A 6376   5.493   6.020   9.793 -1.1618 -0.1543 -0.9007
   53CHL1   H2B 6377   5.669   5.959   9.779  0.8906 -3.8668 -0.8559
   53CHL1   C20 6378   5.678   6.113   8.839  0.2804  0.1543  0.2188
   53CHL1   H20 6379   5.788   6.128   8.849  0.6141 -1.3998 -0.7950
   53CHL1   C21 6380   5.587   6.230   8.868 -0.3741 -0.2378 -0.1550
   53CHL1  H21A 6381   5.601   6.302   8.785 -0.1379  0.5163  0.5199
   53CHL1  H21B 6382   5.620   6.284   8.960 -0.6291 -0.1884 -0.0929
   53CHL1  H21C 6383   5.478   6.208   8.866 -0.1170 -1.5630 -1.0644
   53CHL1   C22 6384   5.663   6.079   8.693  0.2395 -0.3785 -0.3350
   53CHL1  H22A 6385   5.706   5.979   8.671  1.9366  0.5031 -1.2185
   53CHL1  H22B 6386   5.554   6.073   8.672 -0.2652  1.7535  1.3131
   53CHL1   C23 6387   5.719   6.184   8.589 -0.7709 -0.1588 -0.1473
   53CHL1  H23A 6388   5.693   6.289   8.616  1.6833  0.4603  0.0147
   53CHL1  H23B 6389   5.830   6.179   8.591 -0.6522 -0.3445 -3.0926
   53CHL1   C24 6390   5.680   6.153   8.443  0.3147  0.0882  0.4127
   53CHL1  H24A 6391   5.703   6.046   8.425 -0.1806 -0.2423  1.6730
   53CHL1  H24B 6392   5.569   6.165   8.442  0.2277 -0.4304 -1.5368
   53CHL1   C25 6393   5.736   6.244   8.330 -0.4319  0.6486  0.2563
   53CHL1   H25 6394   5.695   6.217   8.231  3.0863  0.5901 -1.3252
   53CHL1   C26 6395   5.707   6.392   8.365  0.4395 -0.6120 -0.1116
   53CHL1  H26A 6396   5.725   6.458   8.277 -0.0143  0.1566  0.3567
   53CHL1  H26B 6397   5.598   6.403   8.386  0.4054  1.2618 -0.9930
   53CHL1  H26C 6398   5.759   6.430   8.455  0.7219  1.9808 -1.2625
   53CHL1   C27 6399   5.882   6.211   8.307  0.8753  0.0059  0.0455
   53CHL1  H27A 6400   5.950   6.262   8.379 -0.2188 -1.6457  2.3695
   53CHL1  H27B 6401   5.900   6.102   8.321  2.6913 -0.0460 -2.1591
   53CHL1  H27C 6402   5.915   6.239   8.205 -0.6548  1.9599  0.0216
   54CHL1    C3 6403   5.313   6.327   9.651  0.0696 -0.1937  0.2474
   54CHL1    H3 6404   5.421   6.324   9.625  0.3353  2.5352  0.6821
   54CHL1    O3 6405   5.285   6.285   9.786  0.2017 -0.1170 -0.0023
   54CHL1   H3' 6406   5.242   6.200   9.785  0.5783 -0.3177  0.5789
   54CHL1    C4 6407   5.263   6.466   9.623 -0.0739 -0.0456  0.1718
   54CHL1   H4A 6408   5.153   6.464   9.634 -0.1873 -1.4082 -0.9170
   54CHL1   H4B 6409   5.298   6.546   9.692 -3.0703  0.9928  0.6403
   54CHL1    C5 6410   5.297   6.503   9.483 -0.6274  0.7150 -0.2280
   54CHL1    C6 6411   5.384   6.599   9.448 -0.1788 -0.3658 -0.4821
   54CHL1    H6 6412   5.442   6.653   9.524  1.3844 -0.1518 -1.7807
   54CHL1    C7 6413   5.422   6.637   9.312 -0.1330  0.4417 -0.7031
   54CHL1   H7A 6414   5.438   6.746   9.326  3.3812 -0.3304  3.5579
   54CHL1   H7B 6415   5.523   6.592   9.298 -1.1413 -2.3127  0.0629
   54CHL1    C8 6416   5.323   6.586   9.204  0.1531 -0.3468  0.1207
   54CHL1    H8 6417   5.236   6.651   9.224  0.8933  0.1079  2.1055
   54CHL1   C14 6418   5.379   6.604   9.068 -0.1810  0.6332  0.5760
   54CHL1   H14 6419   5.478   6.555   9.067  0.6407  2.1475 -1.8517
   54CHL1   C15 6420   5.423   6.749   9.042  0.0185 -0.5427 -0.0094
   54CHL1  H15A 6421   5.347   6.824   9.074  1.4381  2.2761 -2.6572
   54CHL1  H15B 6422   5.522   6.763   9.090  0.4555  0.6942 -1.2114
   54CHL1   C16 6423   5.415   6.759   8.887  0.1178 -0.2054 -0.1329
   54CHL1  H16A 6424   5.333   6.831   8.864  0.4741  0.2511  0.0054
   54CHL1  H16B 6425   5.509   6.790   8.837  1.7934 -1.7880  1.8478
   54CHL1   C17 6426   5.381   6.613   8.840 -0.0104  0.0064 -0.1154
   54CHL1   H17 6427   5.476   6.555   8.843 -0.5144 -1.2788 -3.6095
   54CHL1   C13 6428   5.286   6.562   8.951  0.1736  0.0090 -0.1127
   54CHL1   C18 6429   5.154   6.637   8.959 -0.0461  0.1828 -0.1686
   54CHL1  H18A 6430   5.164   6.746   8.980 -0.7397  0.7966 -2.7461
   54CHL1  H18B 6431   5.103   6.622   8.862 -0.8469  1.2266  0.0653
   54CHL1  H18C 6432   5.083   6.598   9.035  0.9142  0.1370  0.7483
   54CHL1   C12 6433   5.272   6.410   8.972  0.1508 -0.2811 -0.3953
   54CHL1  H12A 6434   5.221   6.360   8.887 -0.2371  0.6192 -0.7141
   54CHL1  H12B 6435   5.377   6.375   8.976  0.0278 -0.5706  0.5592
   54CHL1   C11 6436   5.208   6.376   9.115 -0.3603 -0.1011  0.4934
   54CHL1  H11A 6437   5.105   6.416   9.104 -0.3223 -0.3805 -1.1073
   54CHL1  H11B 6438   5.188   6.267   9.120 -0.4679 -0.3577 -3.1320
   54CHL1    C9 6439   5.285   6.438   9.224 -0.1453 -0.8589 -0.1745
   54CHL1    H9 6440   5.383   6.387   9.241  0.8818  0.6885 -1.2557
   54CHL1   C10 6441   5.233   6.411   9.371 -0.9207 -0.7968  0.1838
   54CHL1   C19 6442   5.078   6.428   9.373  0.3524  0.3672 -0.7430
   54CHL1  H19A 6443   5.022   6.519   9.344 -3.2712 -0.7614  2.0345
   54CHL1  H19B 6444   5.042   6.347   9.307 -0.8899 -0.7411  1.2081
   54CHL1  H19C 6445   5.036   6.411   9.474  2.0604  0.0822 -0.0349
   54CHL1    C1 6446   5.268   6.263   9.411 -0.0096 -0.6755  0.0586
   54CHL1   H1A 6447   5.204   6.195   9.351 -1.7067 -2.5314  3.6376
   54CHL1   H1B 6448   5.378   6.253   9.413  0.1528  0.9693  1.2135
   54CHL1    C2 6449   5.234   6.229   9.555 -0.0929  0.0843 -0.2157
   54CHL1   H2A 6450   5.259   6.122   9.573  0.1566  0.2747  0.5932
   54CHL1   H2B 6451   5.127   6.239   9.583  0.0644 -0.2536  0.5454
   54CHL1   C20 6452   5.331   6.607   8.695 -0.1553 -0.4005  0.6437
   54CHL1   H20 6453   5.281   6.509   8.682  0.6423 -0.5951 -1.4491
   54CHL1   C21 6454   5.449   6.592   8.606  0.3728  0.6980  0.9327
   54CHL1  H21A 6455   5.505   6.497   8.619  1.3720  1.0195 -0.7354
   54CHL1  H21B 6456   5.513   6.682   8.598  2.1339 -0.6542 -1.6820
   54CHL1  H21C 6457   5.425   6.571   8.500  1.3896  0.7706  0.6712
   54CHL1   C22 6458   5.247   6.727   8.646 -0.4878  0.4896 -0.1280
   54CHL1  H22A 6459   5.178   6.769   8.722 -1.2623  0.0564 -0.5738
   54CHL1  H22B 6460   5.314   6.813   8.625  2.1351 -0.9370  1.7130
   54CHL1   C23 6461   5.168   6.695   8.517 -0.4565  0.3015  0.3659
   54CHL1  H23A 6462   5.112   6.789   8.500 -1.8479 -0.7420 -1.1490
   54CHL1  H23B 6463   5.240   6.686   8.432  1.1815 -0.6273  1.7938
   54CHL1   C24 6464   5.079   6.573   8.531 -0.2249 -0.4259 -0.1743
   54CHL1  H24A 6465   5.139   6.481   8.547  1.3209  0.9195  2.2844
   54CHL1  H24B 6466   5.014   6.596   8.617 -1.0520  3.0709 -1.5547
   54CHL1   C25 6467   4.978   6.546   8.411  0.4476  1.0309  0.4988
   54CHL1   H25 6468   4.920   6.458   8.444 -1.1470  2.2466  1.0678
   54CHL1   C26 6469   4.877   6.654   8.379 -0.0453  0.9209 -0.2922
   54CHL1  H26A 6470   4.816   6.614   8.296  0.9126 -0.8839 -0.1872
   54CHL1  H26B 6471   4.820   6.673   8.473  0.1073 -1.6878  0.4094
   54CHL1  H26C 6472   4.930   6.745   8.345  2.0631  0.4197  1.3808
   54CHL1   C27 6473   5.040   6.518   8.268 -0.5444 -0.0786  0.1473
   54CHL1  H27A 6474   4.970   6.478   8.192 -0.8768 -0.0333  0.4264
   54CHL1  H27B 6475   5.086   6.610   8.226 -0.3193 -0.9637 -1.6215
   54CHL1  H27C 6476   5.133   6.458   8.282 -1.4407 -1.0059  2.6580
   55CHL1    C3 6477   1.176   4.476  10.015 -0.2135  0.7085 -1.0429
   55CHL1    H3 6478   1.285   4.486   9.993 -0.2134  0.2532 -1.2739
   55CHL1    O3 6479   1.158   4.481  10.155  0.7436 -0.3045  0.0669
   55CHL1   H3' 6480   1.065   4.480  10.178  0.1765  1.5319 -1.8468
   55CHL1    C4 6481   1.096   4.598   9.950  0.2687 -0.0730  0.5492
   55CHL1   H4A 6482   0.994   4.592   9.995  0.4274 -2.0284  0.7459
   55CHL1   H4B 6483   1.149   4.682  10.000  1.8846 -1.0038  0.4326
   55CHL1    C5 6484   1.106   4.592   9.800 -1.2321 -0.1169 -0.0066
   55CHL1    C6 6485   1.160   4.696   9.728  0.1378  0.1155  0.4465
   55CHL1    H6 6486   1.203   4.781   9.784  1.2154 -0.4439  0.4900
   55CHL1    C7 6487   1.162   4.683   9.578 -0.2327  0.2435  0.7405
   55CHL1   H7A 6488   1.119   4.777   9.537 -0.5757 -0.5010 -0.6690
   55CHL1   H7B 6489   1.268   4.688   9.547 -0.4576  0.5233  0.0044
   55CHL1    C8 6490   1.086   4.565   9.517  0.0807 -0.0886  0.0552
   55CHL1    H8 6491   0.976   4.583   9.523  0.1027  0.2282 -0.3523
   55CHL1   C14 6492   1.120   4.539   9.371  0.1736  0.8124  0.9863
   55CHL1   H14 6493   1.223   4.498   9.366 -0.6191 -1.3424  0.9414
   55CHL1   C15 6494   1.115   4.666   9.274 -0.3738  0.5006  0.1322
   55CHL1  H15A 6495   1.042   4.741   9.312 -0.2283  1.3152 -1.1571
   55CHL1  H15B 6496   1.219   4.704   9.282 -0.3419  0.1555  1.8473
   55CHL1   C16 6497   1.090   4.608   9.133 -0.2301 -0.3986  0.0417
   55CHL1  H16A 6498   0.989   4.640   9.100 -0.2111  1.6238  1.7872
   55CHL1  H16B 6499   1.164   4.655   9.064 -0.5352 -0.5340 -0.3839
   55CHL1   C17 6500   1.090   4.450   9.153  0.0046  0.1233 -1.0490
   55CHL1   H17 6501   1.193   4.411   9.146  0.2532  0.2921  0.9059
   55CHL1   C13 6502   1.039   4.427   9.300  0.4829  0.3636  0.0136
   55CHL1   C18 6503   0.887   4.467   9.312  0.6908 -0.5378 -0.0430
   55CHL1  H18A 6504   0.859   4.560   9.258  0.2432  0.3986  1.7234
   55CHL1  H18B 6505   0.840   4.380   9.261  2.7605 -2.2393  0.8456
   55CHL1  H18C 6506   0.851   4.473   9.417  2.8681 -2.0406  0.8494
   55CHL1   C12 6507   1.074   4.296   9.373  0.2734  0.0775  0.0592
   55CHL1  H12A 6508   1.016   4.215   9.324 -0.4131  1.2122 -1.0705
   55CHL1  H12B 6509   1.183   4.278   9.361  0.1689 -0.3297 -0.2628
   55CHL1   C11 6510   1.042   4.313   9.526 -0.1340  0.4728 -0.7230
   55CHL1  H11A 6511   0.931   4.311   9.535 -0.0112 -0.8887  0.9329
   55CHL1  H11B 6512   1.067   4.216   9.573 -0.6972  0.8005  0.2921
   55CHL1    C9 6513   1.101   4.439   9.596 -0.0563  0.0450 -0.4818
   55CHL1    H9 6514   1.210   4.418   9.600  0.2682  1.6322 -0.3625
   55CHL1   C10 6515   1.060   4.457   9.743 -0.3349 -0.0245  0.2849
   55CHL1   C19 6516   0.901   4.449   9.761 -0.4012  0.3631 -0.3406
   55CHL1  H19A 6517   0.843   4.528   9.708 -1.6499 -0.3908 -0.1412
   55CHL1  H19B 6518   0.857   4.354   9.725 -1.8884  0.9017 -0.0310
   55CHL1  H19C 6519   0.873   4.460   9.868  1.3912  3.0619 -0.0268
   55CHL1    C1 6520   1.124   4.330   9.820 -0.1281 -0.6488 -0.1203
   55CHL1   H1A 6521   1.076   4.237   9.780 -1.2336 -0.0666 -0.1857
   55CHL1   H1B 6522   1.232   4.337   9.796  0.7769 -2.5711  2.7923
   55CHL1    C2 6523   1.118   4.338   9.975 -0.0365  0.2985 -0.3733
   55CHL1   H2A 6524   1.167   4.254  10.028  0.2198  0.2605 -0.6654
   55CHL1   H2B 6525   1.015   4.329  10.015 -0.1950 -1.8016 -1.1486
   55CHL1   C20 6526   1.011   4.381   9.041 -0.2081 -0.6811  0.4901
   55CHL1   H20 6527   0.909   4.423   9.038  0.7346  1.6842 -1.8574
   55CHL1   C21 6528   1.001   4.227   9.047 -0.0772  0.3878 -0.4939
   55CHL1  H21A 6529   1.100   4.185   9.075 -1.4435 -1.3223  2.3138
   55CHL1  H21B 6530   0.960   4.179   8.957 -0.6845  0.0583 -0.0486
   55CHL1  H21C 6531   0.930   4.188   9.123  1.6204  0.1800  1.0785
   55CHL1   C22 6532   1.082   4.418   8.907 -0.5335 -0.0424  0.4932
   55CHL1  H22A 6533   1.124   4.521   8.906  0.6238 -0.4247 -2.3921
   55CHL1  H22B 6534   1.172   4.356   8.891 -0.1185  1.0984 -2.1163
   55CHL1   C23 6535   0.997   4.434   8.773  0.1546  0.0253  0.4672
   55CHL1  H23A 6536   1.078   4.411   8.700  1.3704 -0.4679  1.9345
   55CHL1  H23B 6537   0.927   4.350   8.756  0.1158  0.1521 -0.0326
   55CHL1   C24 6538   0.930   4.577   8.748  0.2116 -0.1572  0.0465
   55CHL1  H24A 6539   0.893   4.621   8.843 -2.0684  0.2385 -0.9623
   55CHL1  H24B 6540   1.008   4.647   8.708 -0.6458  1.0304  0.4145
   55CHL1   C25 6541   0.818   4.579   8.644 -0.2842 -0.1344 -0.2084
   55CHL1   H25 6542   0.790   4.687   8.645  0.2426  0.0074 -0.3670
   55CHL1   C26 6543   0.865   4.542   8.503  0.5331 -0.0253 -0.5939
   55CHL1  H26A 6544   0.887   4.434   8.499  0.0830 -0.1853  0.6365
   55CHL1  H26B 6545   0.793   4.566   8.421 -1.4419 -3.0708  0.0986
   55CHL1  H26C 6546   0.957   4.600   8.483  0.8459 -0.1926  0.3018
   55CHL1   C27 6547   0.686   4.515   8.692 -0.1444 -0.0453  0.3967
   55CHL1  H27A 6548   0.702   4.405   8.699 -1.5024 -0.3230 -0.4598
   55CHL1  H27B 6549   0.648   4.548   8.791  1.1909  1.5293  0.4210
   55CHL1  H27C 6550   0.612   4.547   8.614  0.8203  1.2307 -0.0274
   56CHL1    C3 6551   2.519   2.674   9.853 -0.1877  0.9031 -0.0735
   56CHL1    H3 6552   2.412   2.645   9.846  0.1174 -0.1410 -0.6152
   56CHL1    O3 6553   2.537   2.667   9.992 -0.6753  0.0693 -0.0308
   56CHL1   H3' 6554   2.610   2.726  10.011  0.8701 -1.2821 -1.3902
   56CHL1    C4 6555   2.618   2.581   9.790  0.0155 -0.1244 -0.5513
   56CHL1   H4A 6556   2.721   2.607   9.821  0.7488 -0.7001 -2.3722
   56CHL1   H4B 6557   2.589   2.484   9.836  0.2956 -0.0111 -0.1343
   56CHL1    C5 6558   2.597   2.577   9.641 -1.0924 -0.1253  0.1411
   56CHL1    C6 6559   2.579   2.459   9.591  0.1282 -0.0496  0.1701
   56CHL1    H6 6560   2.579   2.372   9.658  0.4169 -0.1875 -0.0031
   56CHL1    C7 6561   2.541   2.434   9.446  1.0271 -0.0759 -0.0698
   56CHL1   H7A 6562   2.606   2.351   9.408  0.9410 -0.6044  0.8982
   56CHL1   H7B 6563   2.435   2.403   9.437 -0.3632  3.4900  1.9771
   56CHL1    C8 6564   2.572   2.556   9.363 -0.2854  0.2062  0.4348
   56CHL1    H8 6565   2.682   2.556   9.356 -0.2218  0.6094  1.3286
   56CHL1   C14 6566   2.513   2.538   9.224  0.1297  0.2272 -0.1445
   56CHL1   H14 6567   2.402   2.531   9.235 -0.2342 -1.7138 -3.4075
   56CHL1   C15 6568   2.556   2.409   9.158 -0.5865  0.1031  0.2264
   56CHL1  H15A 6569   2.663   2.380   9.162 -0.7123 -0.4965 -0.5146
   56CHL1  H15B 6570   2.497   2.320   9.190  0.3620 -0.8132 -0.4791
   56CHL1   C16 6571   2.523   2.438   9.010  0.5178  0.7218  0.1299
   56CHL1  H16A 6572   2.612   2.421   8.946  1.2465 -0.4050  1.3906
   56CHL1  H16B 6573   2.443   2.366   8.980  0.7387 -0.8462  2.9611
   56CHL1   C17 6574   2.467   2.585   9.009 -0.6381 -0.4971  0.3077
   56CHL1   H17 6575   2.356   2.581   9.020 -0.9453 -0.7647 -2.3384
   56CHL1   C13 6576   2.532   2.656   9.125 -0.3195  0.9169  0.6869
   56CHL1   C18 6577   2.686   2.675   9.100  0.0283 -0.1659  0.3311
   56CHL1  H18A 6578   2.714   2.740   9.014  1.6126 -1.0698  0.1310
   56CHL1  H18B 6579   2.725   2.719   9.194 -1.3657 -0.1105  0.9037
   56CHL1  H18C 6580   2.737   2.581   9.068 -0.0011  0.0686 -0.4384
   56CHL1   C12 6581   2.463   2.777   9.182 -0.3308  0.5901 -0.4231
   56CHL1  H12A 6582   2.470   2.867   9.116  1.3408  1.6047  1.0583
   56CHL1  H12B 6583   2.357   2.744   9.180 -1.4244  3.7550  0.1004
   56CHL1   C11 6584   2.518   2.804   9.331  0.2407 -0.4917  0.7225
   56CHL1  H11A 6585   2.615   2.856   9.315  0.5401 -0.4632  2.4083
   56CHL1  H11B 6586   2.457   2.890   9.364  0.3073  0.8849 -2.3663
   56CHL1    C9 6587   2.526   2.686   9.433 -0.3505 -0.0525  0.2396
   56CHL1    H9 6588   2.423   2.657   9.462 -0.8325 -0.4679 -1.7580
   56CHL1   C10 6589   2.587   2.709   9.570 -0.4316  0.1116 -0.5249
   56CHL1   C19 6590   2.726   2.767   9.541 -0.5876 -0.4692 -0.4192
   56CHL1  H19A 6591   2.777   2.703   9.465  1.0454  1.5998 -1.1613
   56CHL1  H19B 6592   2.728   2.874   9.511 -1.9580 -0.0571  0.8613
   56CHL1  H19C 6593   2.777   2.761   9.639 -1.9063  1.2620  0.4305
   56CHL1    C1 6594   2.492   2.811   9.650  0.0299  0.1812  0.1083
   56CHL1   H1A 6595   2.520   2.906   9.600  0.0171 -0.2594 -0.7621
   56CHL1   H1B 6596   2.383   2.799   9.633  0.1867  0.2125 -1.0131
   56CHL1    C2 6597   2.531   2.816   9.795  0.1027 -0.0202 -0.2012
   56CHL1   H2A 6598   2.460   2.882   9.849  0.6502  0.5966 -0.2065
   56CHL1   H2B 6599   2.629   2.861   9.823 -0.0393 -1.4430  3.0496
   56CHL1   C20 6600   2.474   2.656   8.869 -0.3027 -0.0290  0.1202
   56CHL1   H20 6601   2.581   2.679   8.848 -0.6609 -0.3349 -2.3537
   56CHL1   C21 6602   2.396   2.789   8.868 -0.0547  0.6836 -0.4199
   56CHL1  H21A 6603   2.467   2.864   8.908  1.1105 -1.6818  2.3800
   56CHL1  H21B 6604   2.309   2.795   8.937  1.1313  0.2357  1.1910
   56CHL1  H21C 6605   2.361   2.819   8.767 -2.4265  0.0992  0.1576
   56CHL1   C22 6606   2.428   2.556   8.757 -0.1579  0.3981 -0.0857
   56CHL1  H22A 6607   2.488   2.462   8.763 -0.5058  0.1097 -0.9943
   56CHL1  H22B 6608   2.321   2.543   8.732  0.7158 -2.4756 -3.0890
   56CHL1   C23 6609   2.493   2.598   8.626  0.7363 -0.8995  0.7059
   56CHL1  H23A 6610   2.452   2.696   8.591  0.1640 -0.9156  1.2913
   56CHL1  H23B 6611   2.602   2.617   8.632  1.2237 -3.2402 -0.0826
   56CHL1   C24 6612   2.452   2.497   8.514  0.0088  0.4542 -0.0447
   56CHL1  H24A 6613   2.465   2.389   8.539 -2.0393  0.5149  1.5143
   56CHL1  H24B 6614   2.343   2.499   8.491 -0.4622 -1.1474  1.7992
   56CHL1   C25 6615   2.529   2.519   8.374  0.2942 -0.0418  0.3214
   56CHL1   H25 6616   2.476   2.451   8.304 -0.5178  2.6736 -1.9079
   56CHL1   C26 6617   2.502   2.659   8.317 -0.2096  0.0348 -0.1592
   56CHL1  H26A 6618   2.392   2.669   8.308 -0.1425  0.9240 -0.0270
   56CHL1  H26B 6619   2.525   2.750   8.375  0.0136  0.6230 -1.1380
   56CHL1  H26C 6620   2.547   2.680   8.217  2.7672  0.8163  1.2503
   56CHL1   C27 6621   2.679   2.483   8.393 -0.5746 -0.1839  0.5885
   56CHL1  H27A 6622   2.722   2.553   8.468 -1.4546 -0.5089  1.4128
   56CHL1  H27B 6623   2.681   2.379   8.432  0.7082  0.1695  1.5439
   56CHL1  H27C 6624   2.734   2.485   8.296 -0.3748  0.9096  0.7141
   57CHL1    C3 6625   6.637   5.332   9.824  0.2546 -0.2596 -0.3427
   57CHL1    H3 6626   6.667   5.439   9.824  0.3126 -0.2212  1.8673
   57CHL1    O3 6627   6.617   5.283   9.965  0.0447 -0.2763  0.3928
   57CHL1   H3' 6628   6.542   5.336   9.990  1.1537  0.3929  2.5205
   57CHL1    C4 6629   6.512   5.308   9.741 -0.4484 -0.1996  0.4528
   57CHL1   H4A 6630   6.475   5.208   9.770  0.3855 -1.8986 -3.6276
   57CHL1   H4B 6631   6.429   5.374   9.773  0.8438  0.4340  2.6826
   57CHL1    C5 6632   6.533   5.312   9.588  0.7772 -0.8351 -0.2407
   57CHL1    C6 6633   6.446   5.393   9.519 -0.1582 -0.0376  0.6486
   57CHL1    H6 6634   6.365   5.436   9.581  1.8166  0.9094  2.7474
   57CHL1    C7 6635   6.449   5.417   9.370  0.2903 -0.2023 -0.2076
   57CHL1   H7A 6636   6.345   5.392   9.339  0.7925 -0.6351 -1.6374
   57CHL1   H7B 6637   6.469   5.524   9.349 -1.3123  0.2257  0.2914
   57CHL1    C8 6638   6.547   5.316   9.303 -0.1148 -0.8528  0.0926
   57CHL1    H8 6639   6.495   5.218   9.304 -0.4718 -0.6650  0.1149
   57CHL1   C14 6640   6.578   5.376   9.165  0.2245  0.7390 -0.3570
   57CHL1   H14 6641   6.616   5.480   9.177  1.2474  0.2782  0.5679
   57CHL1   C15 6642   6.458   5.394   9.067  0.2014  0.1426 -0.3237
   57CHL1  H15A 6643   6.398   5.301   9.074 -0.0125  0.3373  0.5313
   57CHL1  H15B 6644   6.392   5.475   9.106  0.0301  0.1478 -0.6254
   57CHL1   C16 6645   6.524   5.405   8.935  0.5393 -0.5649  0.5153
   57CHL1  H16A 6646   6.478   5.339   8.859 -0.9388 -0.4890  1.2998
   57CHL1  H16B 6647   6.530   5.508   8.893  0.8341 -0.5379  0.6231
   57CHL1   C17 6648   6.679   5.365   8.949  0.0098 -0.5605 -0.4469
   57CHL1   H17 6649   6.738   5.458   8.969 -0.3116 -0.3455 -0.4933
   57CHL1   C13 6650   6.675   5.290   9.089  0.6218 -0.2642  0.2558
   57CHL1   C18 6651   6.617   5.147   9.070  0.1928  0.2292  0.0484
   57CHL1  H18A 6652   6.520   5.149   9.016 -0.4994 -1.5072  1.1485
   57CHL1  H18B 6653   6.698   5.098   9.011  0.8276  1.8185 -0.4572
   57CHL1  H18C 6654   6.605   5.087   9.163  3.8361 -1.1760 -0.2071
   57CHL1   C12 6655   6.805   5.283   9.168 -0.0941 -0.0252  0.3863
   57CHL1  H12A 6656   6.885   5.227   9.115 -0.8754 -0.4943 -0.3328
   57CHL1  H12B 6657   6.855   5.381   9.177  1.2123 -0.1463 -3.5483
   57CHL1   C11 6658   6.785   5.222   9.308 -0.1377 -0.5915 -0.3228
   57CHL1  H11A 6659   6.754   5.115   9.306 -2.2923 -0.2004  3.4691
   57CHL1  H11B 6660   6.876   5.239   9.370 -0.2594 -4.2634  1.1088
   57CHL1    C9 6661   6.674   5.299   9.384 -0.3789 -0.1929 -0.5451
   57CHL1    H9 6662   6.710   5.403   9.400  0.3840 -0.4714 -0.4010
   57CHL1   C10 6663   6.646   5.243   9.528 -0.7258  0.4388 -0.5725
   57CHL1   C19 6664   6.618   5.095   9.517 -0.0623  0.2223  0.3889
   57CHL1  H19A 6665   6.585   5.047   9.612 -1.2563 -2.2883 -1.1764
   57CHL1  H19B 6666   6.530   5.070   9.454  0.9171 -1.3374 -0.4198
   57CHL1  H19C 6667   6.706   5.040   9.478  0.2071  0.6646  0.3708
   57CHL1    C1 6668   6.771   5.260   9.616 -0.3750  0.0000 -0.0977
   57CHL1   H1A 6669   6.848   5.183   9.593 -1.0145 -1.1173  1.3598
   57CHL1   H1B 6670   6.823   5.356   9.596  0.7147 -0.5803 -0.1766
   57CHL1    C2 6671   6.755   5.250   9.768 -0.2320 -0.7709 -0.1841
   57CHL1   H2A 6672   6.849   5.285   9.818  0.2621 -1.9603 -0.2464
   57CHL1   H2B 6673   6.742   5.144   9.799 -0.8369 -1.3539 -2.3219
   57CHL1   C20 6674   6.731   5.304   8.820  0.2056 -0.3024 -0.5237
   57CHL1   H20 6675   6.660   5.220   8.803 -3.1737  1.9306  1.2448
   57CHL1   C21 6676   6.872   5.245   8.841  0.5662 -0.0635  0.0663
   57CHL1  H21A 6677   6.922   5.318   8.907 -1.1999 -0.0773  1.4939
   57CHL1  H21B 6678   6.931   5.236   8.747  1.4243 -0.9018  0.6562
   57CHL1  H21C 6679   6.883   5.144   8.887  1.5205 -0.6796 -1.4048
   57CHL1   C22 6680   6.725   5.401   8.696 -0.1017 -0.0816  0.2295
   57CHL1  H22A 6681   6.631   5.460   8.688 -1.0336 -1.5658  0.0016
   57CHL1  H22B 6682   6.797   5.482   8.718  0.8017 -0.8273  0.0588
   57CHL1   C23 6683   6.756   5.333   8.563 -0.3747  0.1287  0.3463
   57CHL1  H23A 6684   6.756   5.407   8.480 -2.1604  0.7952  0.8948
   57CHL1  H23B 6685   6.858   5.289   8.557 -0.4425  0.1576 -1.7606
   57CHL1   C24 6686   6.643   5.227   8.529 -0.1654  0.0003 -0.0003
   57CHL1  H24A 6687   6.670   5.143   8.596  0.9239  1.1239  1.0096
   57CHL1  H24B 6688   6.540   5.258   8.560 -0.4244  0.6312 -1.3966
   57CHL1   C25 6689   6.633   5.175   8.387 -0.3392  0.2419  0.4462
   57CHL1   H25 6690   6.559   5.093   8.386  0.3356 -0.3852  1.0520
   57CHL1   C26 6691   6.591   5.280   8.278 -0.8800  0.2714 -0.7071
   57CHL1  H26A 6692   6.603   5.229   8.181 -2.6165 -0.3531 -0.6175
   57CHL1  H26B 6693   6.483   5.305   8.287 -0.9188 -0.4994  1.8012
   57CHL1  H26C 6694   6.652   5.373   8.269 -1.2733  0.3775 -2.6724
   57CHL1   C27 6695   6.775   5.121   8.350  0.0079 -0.4100 -1.0041
   57CHL1  H27A 6696   6.853   5.200   8.347 -0.4783  0.1538  0.3040
   57CHL1  H27B 6697   6.789   5.043   8.427 -0.1981 -0.0675 -0.6143
   57CHL1  H27C 6698   6.754   5.080   8.248 -1.1483  1.4598 -1.5874
   58CHL1    C3 6699   2.878   5.046   9.312  0.6998  0.2319 -0.2494
   58CHL1    H3 6700   2.974   4.993   9.295  0.4227 -0.2935 -0.1940
   58CHL1    O3 6701   2.849   5.065   9.449 -0.2721 -0.3088 -0.2586
   58CHL1   H3' 6702   2.758   5.040   9.465 -0.4324  0.9850  1.1410
   58CHL1    C4 6703   2.882   5.171   9.235  0.2787 -0.4100  0.1497
   58CHL1   H4A 6704   2.797   5.244   9.238  0.9638  0.3663  2.0045
   58CHL1   H4B 6705   2.954   5.236   9.289 -1.7741  4.3846 -2.2076
   58CHL1    C5 6706   2.901   5.151   9.083 -0.0509  0.3855 -0.2061
   58CHL1    C6 6707   2.991   5.228   9.017 -0.8147 -0.3792  0.2993
   58CHL1    H6 6708   3.053   5.301   9.071  0.2340 -0.1726 -1.1448
   58CHL1    C7 6709   3.021   5.228   8.859 -0.0503 -0.0240  0.2388
   58CHL1   H7A 6710   3.012   5.327   8.811  2.4112  1.1386  1.9413
   58CHL1   H7B 6711   3.114   5.175   8.829 -1.1733  0.0703 -3.9161
   58CHL1    C8 6712   2.919   5.133   8.793 -0.1995  0.3605  0.1150
   58CHL1    H8 6713   2.828   5.194   8.777 -0.0094  1.2850  2.2616
   58CHL1   C14 6714   2.965   5.098   8.649  0.4650 -0.0124 -0.5710
   58CHL1   H14 6715   3.063   5.048   8.656 -0.0030 -0.9730 -0.7818
   58CHL1   C15 6716   2.999   5.213   8.549 -0.1890 -0.4105 -0.1181
   58CHL1  H15A 6717   2.914   5.284   8.545 -0.5038 -0.7394  0.5363
   58CHL1  H15B 6718   3.094   5.258   8.585 -0.6887 -0.5593  1.4872
   58CHL1   C16 6719   2.993   5.142   8.411 -0.6394  0.6775  0.6727
   58CHL1  H16A 6720   2.921   5.191   8.341 -1.9689 -1.4902  0.4283
   58CHL1  H16B 6721   3.094   5.137   8.365 -0.8907  0.9745  0.0646
   58CHL1   C17 6722   2.937   4.993   8.434 -0.0219 -0.0111 -0.8077
   58CHL1   H17 6723   3.024   4.925   8.452  0.8847  1.3457  0.1139
   58CHL1   C13 6724   2.867   5.004   8.570 -0.1101 -0.0511  0.1616
   58CHL1   C18 6725   2.731   5.075   8.553  0.1882 -0.1433 -0.6036
   58CHL1  H18A 6726   2.678   5.088   8.650  0.2516 -0.8218 -0.4720
   58CHL1  H18B 6727   2.731   5.170   8.495 -1.5420 -0.1453 -0.6352
   58CHL1  H18C 6728   2.675   5.002   8.492 -0.5498 -0.1184  0.0215
   58CHL1   C12 6729   2.854   4.873   8.647  0.3552  0.3256 -0.1038
   58CHL1  H12A 6730   2.777   4.801   8.612  3.2064 -1.9150 -2.3502
   58CHL1  H12B 6731   2.952   4.820   8.637  0.0490 -0.2388 -0.1552
   58CHL1   C11 6732   2.810   4.902   8.798 -1.0359  0.5804  0.0771
   58CHL1  H11A 6733   2.703   4.933   8.801 -0.2523  4.2494 -2.4355
   58CHL1  H11B 6734   2.828   4.807   8.852  2.4048 -0.1976 -2.1144
   58CHL1    C9 6735   2.894   5.009   8.873 -0.0763 -0.3439 -0.3538
   58CHL1    H9 6736   2.989   4.955   8.894 -0.0627 -1.0223 -2.0626
   58CHL1   C10 6737   2.822   5.045   9.009  0.4623  0.4471  0.4768
   58CHL1   C19 6738   2.677   5.107   8.988  0.1602 -0.0037 -0.4907
   58CHL1  H19A 6739   2.605   5.030   8.956  1.4725 -0.1664 -3.3242
   58CHL1  H19B 6740   2.643   5.151   9.085 -0.6467 -0.7554 -0.4237
   58CHL1  H19C 6741   2.663   5.180   8.906 -2.8382  1.0731  0.8385
   58CHL1    C1 6742   2.801   4.917   9.103 -0.1903 -0.9189  0.4561
   58CHL1   H1A 6743   2.718   4.859   9.058  0.4463 -0.1443 -1.8557
   58CHL1   H1B 6744   2.899   4.866   9.090  1.1210  1.6006 -0.3118
   58CHL1    C2 6745   2.763   4.957   9.246 -0.1914 -0.0988 -0.4472
   58CHL1   H2A 6746   2.743   4.864   9.302 -4.8102  0.1722 -1.2402
   58CHL1   H2B 6747   2.667   5.013   9.244 -0.4475 -0.5613 -1.2935
   58CHL1   C20 6748   2.860   4.947   8.306 -0.3157  0.0782  0.5480
   58CHL1   H20 6749   2.782   5.024   8.289 -1.0366  0.1582  3.5466
   58CHL1   C21 6750   2.794   4.807   8.317 -0.2612  0.2961 -0.2519
   58CHL1  H21A 6751   2.740   4.770   8.227  1.5447 -2.0221 -0.4868
   58CHL1  H21B 6752   2.721   4.801   8.401  0.9103 -0.3797  0.7588
   58CHL1  H21C 6753   2.864   4.724   8.342 -0.8975 -0.9554 -2.3743
   58CHL1   C22 6754   2.954   4.945   8.186  0.1998 -0.0059 -0.0479
   58CHL1  H22A 6755   2.900   4.903   8.099  2.5732 -1.1546 -1.0550
   58CHL1  H22B 6756   2.976   5.047   8.148  0.9040 -1.1308 -2.9646
   58CHL1   C23 6757   3.092   4.873   8.196  0.4854 -0.4974 -0.0844
   58CHL1  H23A 6758   3.146   4.920   8.281  0.1003  1.4021 -0.8498
   58CHL1  H23B 6759   3.077   4.764   8.211 -1.9724 -0.0109  1.5723
   58CHL1   C24 6760   3.162   4.878   8.066  0.3435 -0.3305  1.1062
   58CHL1  H24A 6761   3.098   4.813   8.002  0.6233  0.9250 -0.5275
   58CHL1  H24B 6762   3.164   4.977   8.015 -0.8379 -0.8572  0.0095
   58CHL1   C25 6763   3.310   4.836   8.074 -0.0204 -0.3515  0.3053
   58CHL1   H25 6764   3.357   4.894   8.156 -0.0151 -0.8318  0.6382
   58CHL1   C26 6765   3.326   4.684   8.101 -0.4472 -0.5629 -0.4064
   58CHL1  H26A 6766   3.268   4.660   8.193 -1.3239  1.6346 -0.3031
   58CHL1  H26B 6767   3.292   4.621   8.016  1.7641 -0.5187 -1.3852
   58CHL1  H26C 6768   3.433   4.663   8.122 -0.4605 -2.3043 -1.8695
   58CHL1   C27 6769   3.387   4.870   7.945  0.3151 -0.4536 -0.5687
   58CHL1  H27A 6770   3.394   4.981   7.950 -3.4138 -0.1470  1.6842
   58CHL1  H27B 6771   3.495   4.855   7.967  0.7480  1.9830 -0.6905
   58CHL1  H27C 6772   3.348   4.829   7.850 -2.1517 -1.2687  0.7182
   59CHL1    C3 6773   2.104   3.490  10.125 -0.0365 -0.0655  0.2158
   59CHL1    H3 6774   2.060   3.578  10.072 -0.0982  0.6574  1.4219
   59CHL1    O3 6775   2.138   3.534  10.254 -0.5099  0.5110 -0.1097
   59CHL1   H3' 6776   2.116   3.626  10.268  3.7600  1.7119  0.1459
   59CHL1    C4 6777   2.007   3.373  10.115  0.1824 -0.3597  0.3919
   59CHL1   H4A 6778   2.039   3.289  10.180  2.1205  0.7238  0.9282
   59CHL1   H4B 6779   1.912   3.413  10.157  1.3033  3.6188 -0.4116
   59CHL1    C5 6780   1.995   3.329   9.973  0.0454  0.2973 -0.2613
   59CHL1    C6 6781   1.873   3.330   9.917  0.0677 -0.6573 -0.5414
   59CHL1    H6 6782   1.788   3.360   9.980 -0.6358 -2.4567 -0.5630
   59CHL1    C7 6783   1.834   3.274   9.780  0.0828 -0.0856  0.1239
   59CHL1   H7A 6784   1.750   3.202   9.780  0.1811 -0.2105  0.6972
   59CHL1   H7B 6785   1.806   3.360   9.715 -1.6150 -1.6361 -1.2802
   59CHL1    C8 6786   1.956   3.198   9.718 -0.2602 -0.1568 -0.3896
   59CHL1    H8 6787   1.957   3.098   9.766 -0.6262 -1.4356 -2.8712
   59CHL1   C14 6788   1.931   3.182   9.568 -0.1369  0.2295  0.0714
   59CHL1   H14 6789   1.943   3.287   9.536  0.9843  0.1945  0.3333
   59CHL1   C15 6790   1.788   3.128   9.532  0.5714  0.6437 -0.3632
   59CHL1  H15A 6791   1.755   3.051   9.605 -0.9612  1.0135 -0.6443
   59CHL1  H15B 6792   1.719   3.214   9.532  0.2285  0.3705 -0.0017
   59CHL1   C16 6793   1.817   3.073   9.390  0.6376 -0.2191  0.1733
   59CHL1  H16A 6794   1.797   2.963   9.393  1.3264 -0.3287  1.2691
   59CHL1  H16B 6795   1.765   3.128   9.309  0.2694 -0.0780  0.5003
   59CHL1   C17 6796   1.970   3.090   9.352  0.2213  0.5611  0.2282
   59CHL1   H17 6797   1.985   3.188   9.303 -1.9325 -0.1688 -2.1132
   59CHL1   C13 6798   2.036   3.100   9.493 -0.3456 -0.6922 -0.0806
   59CHL1   C18 6799   2.059   2.958   9.560  0.1054 -0.1800 -0.3036
   59CHL1  H18A 6800   1.963   2.904   9.573  0.6478 -1.0644  0.0553
   59CHL1  H18B 6801   2.132   2.904   9.496  2.9916  3.2241 -0.1946
   59CHL1  H18C 6802   2.092   2.979   9.664 -1.0814 -0.5919  0.1791
   59CHL1   C12 6803   2.162   3.190   9.504  0.5859 -0.1863 -0.2119
   59CHL1  H12A 6804   2.253   3.141   9.462 -0.3883 -0.3964 -2.2042
   59CHL1  H12B 6805   2.149   3.287   9.452 -0.5261 -0.5612 -0.6647
   59CHL1   C11 6806   2.207   3.226   9.655  0.3273 -0.1299  0.1152
   59CHL1  H11A 6807   2.245   3.135   9.705  0.6605 -0.4448 -0.6795
   59CHL1  H11B 6808   2.296   3.293   9.641 -0.7849  1.1401 -1.3067
   59CHL1    C9 6809   2.093   3.273   9.744 -0.1382 -0.2492 -0.2487
   59CHL1    H9 6810   2.072   3.375   9.705 -0.4656  0.4338  1.6095
   59CHL1   C10 6811   2.129   3.294   9.892  0.5867 -0.5500  0.2896
   59CHL1   C19 6812   2.188   3.166   9.959 -0.3663  0.1957 -0.0361
   59CHL1  H19A 6813   2.147   3.064   9.939 -1.5069  0.3938  1.1618
   59CHL1  H19B 6814   2.298   3.163   9.946  0.4097  0.8113  4.7252
   59CHL1  H19C 6815   2.174   3.176  10.069  1.9704  0.2786  0.3016
   59CHL1    C1 6816   2.218   3.415   9.908 -0.6293 -0.3264 -0.7400
   59CHL1   H1A 6817   2.316   3.402   9.856 -0.2338  1.9588 -0.6953
   59CHL1   H1B 6818   2.171   3.501   9.855 -1.5742 -0.3444  0.0427
   59CHL1    C2 6819   2.238   3.453  10.055  0.4507  0.7404  0.6056
   59CHL1   H2A 6820   2.310   3.536  10.065  1.2469 -0.0941  2.1144
   59CHL1   H2B 6821   2.285   3.366  10.105  0.1223  0.6726  0.7981
   59CHL1   C20 6822   2.020   2.983   9.256 -0.0679  0.0514 -0.4299
   59CHL1   H20 6823   2.022   2.882   9.303 -0.7295  0.5966  0.8232
   59CHL1   C21 6824   2.172   3.002   9.219  0.7093  0.0480  0.5859
   59CHL1  H21A 6825   2.227   3.013   9.315 -0.0288  1.3247  0.8946
   59CHL1  H21B 6826   2.184   3.095   9.160  0.7208  1.0242  2.0531
   59CHL1  H21C 6827   2.216   2.924   9.153 -2.3771 -0.3783 -1.1431
   59CHL1   C22 6828   1.927   2.968   9.131  0.1556  0.3449  0.3185
   59CHL1  H22A 6829   1.834   2.918   9.165 -0.8382  1.7438 -0.2347
   59CHL1  H22B 6830   1.899   3.065   9.085 -1.6461  0.1121  0.8527
   59CHL1   C23 6831   1.976   2.884   9.013  0.6639 -0.6042 -0.7319
   59CHL1  H23A 6832   1.899   2.903   8.935 -0.1129 -0.5635  0.0296
   59CHL1  H23B 6833   2.069   2.930   8.971 -0.9422  1.9749 -1.7110
   59CHL1   C24 6834   1.980   2.732   9.027 -0.5414 -0.6761 -0.4082
   59CHL1  H24A 6835   2.069   2.704   9.088 -0.1481 -1.0846 -1.1536
   59CHL1  H24B 6836   1.882   2.706   9.071 -1.2548  2.6847  0.2470
   59CHL1   C25 6837   1.991   2.664   8.893 -0.5843  0.2568  0.3491
   59CHL1   H25 6838   2.085   2.694   8.842 -0.2261 -1.5948 -0.1541
   59CHL1   C26 6839   1.997   2.516   8.930 -0.2964  0.2000  0.0918
   59CHL1  H26A 6840   1.999   2.443   8.846  2.7053 -0.4078  0.5817
   59CHL1  H26B 6841   2.084   2.500   8.997  1.3885  2.6281 -1.3675
   59CHL1  H26C 6842   1.905   2.484   8.984 -0.5080 -0.6349 -0.7472
   59CHL1   C27 6843   1.870   2.682   8.802  0.4209 -0.4285  0.5415
   59CHL1  H27A 6844   1.869   2.784   8.758 -4.1511 -0.9786 -1.1580
   59CHL1  H27B 6845   1.894   2.619   8.714 -1.3335  2.0153 -1.8582
   59CHL1  H27C 6846   1.781   2.649   8.859  0.8138  0.3363  1.6199
   60CHL1    C3 6847   2.182   1.449  10.224 -0.3228  0.8695 -0.0331
   60CHL1    H3 6848   2.291   1.470  10.225 -0.1141 -0.0280 -1.2084
   60CHL1    O3 6849   2.147   1.436  10.356 -0.3392 -0.2568  0.0555
   60CHL1   H3' 6850   2.176   1.348  10.382  2.2853  0.5667  0.1720
   60CHL1    C4 6851   2.113   1.574  10.158 -0.1505 -0.3200 -0.5021
   60CHL1   H4A 6852   2.002   1.568  10.169 -0.1000  0.3397  0.5128
   60CHL1   H4B 6853   2.135   1.663  10.220 -1.1139  0.4478 -1.2290
   60CHL1    C5 6854   2.161   1.592  10.017 -0.7605  0.1952  0.7504
   60CHL1    C6 6855   2.237   1.694   9.980  0.0699  0.2281  0.3946
   60CHL1    H6 6856   2.255   1.775  10.052  0.5306  1.7016 -1.2970
   60CHL1    C7 6857   2.288   1.725   9.842  0.4476 -1.0032 -0.6680
   60CHL1   H7A 6858   2.269   1.833   9.821  1.5568 -0.9513 -1.4959
   60CHL1   H7B 6859   2.398   1.710   9.839  1.0800  2.5486  0.1748
   60CHL1    C8 6860   2.221   1.633   9.743 -0.6857  0.6012  0.5037
   60CHL1    H8 6861   2.117   1.667   9.725 -1.1719 -0.1099  1.8334
   60CHL1   C14 6862   2.294   1.645   9.609 -0.0382  0.2125 -0.6453
   60CHL1   H14 6863   2.392   1.596   9.630 -0.0843  0.0295 -0.8547
   60CHL1   C15 6864   2.310   1.788   9.554  0.0481 -0.0983  0.5094
   60CHL1  H15A 6865   2.216   1.845   9.567  0.5977  0.7421  0.8942
   60CHL1  H15B 6866   2.392   1.831   9.615 -1.2350  1.2165  1.3776
   60CHL1   C16 6867   2.341   1.768   9.405 -0.0699  0.1568 -0.2793
   60CHL1  H16A 6868   2.276   1.827   9.337  0.4243  0.9130 -0.0992
   60CHL1  H16B 6869   2.447   1.789   9.379  0.1719 -1.3519 -0.6141
   60CHL1   C17 6870   2.317   1.612   9.381  0.2776 -0.1499 -0.2422
   60CHL1   H17 6871   2.418   1.567   9.392  0.9112  1.1287 -0.5445
   60CHL1   C13 6872   2.226   1.569   9.499 -0.2373 -0.2763  0.1372
   60CHL1   C18 6873   2.075   1.616   9.473 -0.2240  0.0644 -0.4376
   60CHL1  H18A 6874   2.015   1.601   9.565  2.7533  0.4292  1.7186
   60CHL1  H18B 6875   2.076   1.722   9.441  0.3329 -0.5436 -2.5906
   60CHL1  H18C 6876   2.035   1.556   9.388  0.2882 -0.0831 -0.5768
   60CHL1   C12 6877   2.221   1.421   9.536 -0.5695 -0.3097  0.1696
   60CHL1  H12A 6878   2.173   1.369   9.450 -1.0206  1.9539 -1.0293
   60CHL1  H12B 6879   2.325   1.386   9.554 -1.3579 -2.6573  0.5281
   60CHL1   C11 6880   2.157   1.399   9.676  0.9833 -0.4289  0.0081
   60CHL1  H11A 6881   2.051   1.430   9.677  1.1786  0.3238 -1.0509
   60CHL1  H11B 6882   2.159   1.294   9.711  0.7829  0.3035  2.4028
   60CHL1    C9 6883   2.216   1.486   9.787  0.3680  0.3109 -0.4372
   60CHL1    H9 6884   2.325   1.465   9.787  0.4243  0.5879  0.3064
   60CHL1   C10 6885   2.139   1.472   9.922 -0.3203  0.5372 -0.0519
   60CHL1   C19 6886   1.984   1.463   9.910  0.6275  0.6387  0.2980
   60CHL1  H19A 6887   1.934   1.475  10.009 -2.6244  0.1640 -1.1523
   60CHL1  H19B 6888   1.951   1.541   9.839  1.2713  0.0623 -0.6492
   60CHL1  H19C 6889   1.963   1.359   9.880  0.8697  0.6136  0.2164
   60CHL1    C1 6890   2.190   1.342   9.998 -0.0728 -0.3841 -0.4387
   60CHL1   H1A 6891   2.173   1.254   9.932  0.6062 -0.9166  0.0732
   60CHL1   H1B 6892   2.299   1.360   9.999 -0.2868  1.0064  0.1354
   60CHL1    C2 6893   2.148   1.321  10.144 -0.4328  0.1154 -0.0632
   60CHL1   H2A 6894   2.204   1.236  10.189  0.7734  0.8788 -0.0668
   60CHL1   H2B 6895   2.042   1.289  10.141 -0.0022 -1.5475  0.8882
   60CHL1   C20 6896   2.270   1.573   9.241 -0.3376  0.2538  0.1844
   60CHL1   H20 6897   2.175   1.628   9.225  0.8440  1.9021 -1.7507
   60CHL1   C21 6898   2.253   1.422   9.227 -0.7497  0.9943  0.2299
   60CHL1  H21A 6899   2.155   1.381   9.256 -0.3186  0.3899  0.8711
   60CHL1  H21B 6900   2.325   1.365   9.290 -1.1514 -2.1264 -1.9052
   60CHL1  H21C 6901   2.282   1.385   9.126  1.5926  2.0852  0.4284
   60CHL1   C22 6902   2.372   1.631   9.132  0.0437 -0.4385 -0.2892
   60CHL1  H22A 6903   2.365   1.740   9.154  1.4972 -0.6613  1.5876
   60CHL1  H22B 6904   2.469   1.580   9.150  1.8752  2.4570 -1.3660
   60CHL1   C23 6905   2.325   1.611   8.991  0.0933 -0.6318  0.3446
   60CHL1  H23A 6906   2.331   1.507   8.952  1.1192  0.1326 -1.6660
   60CHL1  H23B 6907   2.223   1.646   8.965  1.0913  3.7376  1.5651
   60CHL1   C24 6908   2.428   1.669   8.896 -0.2746 -0.5954  0.9687
   60CHL1  H24A 6909   2.430   1.778   8.915  0.4240 -0.0389 -1.7832
   60CHL1  H24B 6910   2.526   1.623   8.925 -0.4170 -1.5672 -0.0080
   60CHL1   C25 6911   2.402   1.640   8.745  0.2825 -0.2851  0.3808
   60CHL1   H25 6912   2.413   1.530   8.747 -0.7058 -0.4140 -0.6391
   60CHL1   C26 6913   2.259   1.672   8.689 -0.0105 -0.4520  0.3018
   60CHL1  H26A 6914   2.255   1.657   8.579  2.4704  1.6198 -0.1506
   60CHL1  H26B 6915   2.182   1.612   8.742 -3.1333  1.9158 -1.2121
   60CHL1  H26C 6916   2.236   1.779   8.710  0.0598 -0.6794  1.6486
   60CHL1   C27 6917   2.509   1.693   8.655 -0.1172  0.5255 -0.8728
   60CHL1  H27A 6918   2.608   1.684   8.704 -0.9926  2.2453  1.3896
   60CHL1  H27B 6919   2.495   1.629   8.565  1.0331  0.5046 -1.0536
   60CHL1  H27C 6920   2.494   1.799   8.625 -1.7909  0.8717  0.9883
   61CHL1    C3 6921   3.314   1.268  10.031  0.1050 -0.3695  0.3646
   61CHL1    H3 6922   3.414   1.316  10.044  0.6232 -1.1059 -0.7728
   61CHL1    O3 6923   3.254   1.262  10.158  0.4070  0.0165  0.6113
   61CHL1   H3' 6924   3.196   1.186  10.162  1.7332 -1.0654 -0.1528
   61CHL1    C4 6925   3.215   1.345   9.945  0.9657 -0.4360 -0.3536
   61CHL1   H4A 6926   3.116   1.297   9.960  0.8711  0.5043  2.5281
   61CHL1   H4B 6927   3.208   1.447   9.990  2.7359 -1.1096  1.5915
   61CHL1    C5 6928   3.242   1.344   9.795  0.0913 -0.2494 -0.7195
   61CHL1    C6 6929   3.244   1.458   9.726 -0.4419  0.7481 -0.3181
   61CHL1    H6 6930   3.232   1.554   9.777 -0.6211  0.5336  0.0505
   61CHL1    C7 6931   3.273   1.460   9.578 -0.1239  0.2687 -1.1166
   61CHL1   H7A 6932   3.205   1.535   9.533 -0.8541  1.6919  2.0302
   61CHL1   H7B 6933   3.376   1.501   9.566  0.3903 -0.3462  0.7592
   61CHL1    C8 6934   3.266   1.326   9.506 -0.7961  0.0175 -0.5198
   61CHL1    H8 6935   3.158   1.301   9.494 -0.4435 -1.3980 -0.9018
   61CHL1   C14 6936   3.337   1.331   9.371 -0.1508 -0.0181 -0.3145
   61CHL1   H14 6937   3.443   1.347   9.400  0.2447  0.3916 -1.8897
   61CHL1   C15 6938   3.308   1.451   9.276  0.2170 -0.5129  0.2650
   61CHL1  H15A 6939   3.197   1.461   9.270  0.0830 -0.8443  1.7952
   61CHL1  H15B 6940   3.343   1.548   9.315 -1.1342 -0.7573  2.1889
   61CHL1   C16 6941   3.362   1.408   9.140 -0.2224 -0.4396  1.2876
   61CHL1  H16A 6942   3.271   1.419   9.076 -0.7203  1.1972  2.2170
   61CHL1  H16B 6943   3.450   1.469   9.111  0.9794 -2.0830  1.3457
   61CHL1   C17 6944   3.406   1.258   9.156 -0.7794  0.2989 -0.1836
   61CHL1   H17 6945   3.516   1.262   9.161 -0.8300  0.0834  2.2533
   61CHL1   C13 6946   3.337   1.208   9.282 -0.8916 -0.2697  0.0820
   61CHL1   C18 6947   3.191   1.183   9.254 -0.5079 -0.3295 -0.1182
   61CHL1  H18A 6948   3.125   1.184   9.343  2.0040 -0.4789  1.8688
   61CHL1  H18B 6949   3.154   1.257   9.179  1.4048  1.0443  0.2055
   61CHL1  H18C 6950   3.170   1.081   9.216  0.9883 -0.9319  0.5984
   61CHL1   C12 6951   3.411   1.096   9.364 -0.4275  0.1190 -0.8953
   61CHL1  H12A 6952   3.405   1.001   9.306 -0.2869 -0.5108  0.1083
   61CHL1  H12B 6953   3.518   1.120   9.384 -0.7189  1.1152 -0.4859
   61CHL1   C11 6954   3.339   1.080   9.500 -0.0917 -0.0778  0.0458
   61CHL1  H11A 6955   3.235   1.046   9.481 -0.0444  0.4606 -1.3051
   61CHL1  H11B 6956   3.395   1.003   9.556  1.8636  0.8337 -0.5502
   61CHL1    C9 6957   3.324   1.214   9.587  0.2244  0.2748 -0.5763
   61CHL1    H9 6958   3.431   1.241   9.606  0.6149 -1.6559  0.1230
   61CHL1   C10 6959   3.268   1.207   9.729  0.4715  0.0518  0.0230
   61CHL1   C19 6960   3.136   1.128   9.730  0.7519 -0.0854 -0.4386
   61CHL1  H19A 6961   3.071   1.177   9.655  0.2757  0.3003  0.2139
   61CHL1  H19B 6962   3.152   1.025   9.692 -1.2877 -0.3129 -0.7578
   61CHL1  H19C 6963   3.085   1.125   9.828  2.2373 -1.6445  0.3501
   61CHL1    C1 6964   3.372   1.134   9.829 -0.4816  0.0533  0.0305
   61CHL1   H1A 6965   3.395   1.035   9.782  1.6469 -0.0988  1.2466
   61CHL1   H1B 6966   3.473   1.179   9.826  0.3097 -1.5215  1.4078
   61CHL1    C2 6967   3.332   1.128   9.974  0.3059  0.1740 -0.9601
   61CHL1   H2A 6968   3.417   1.082  10.030  0.8001 -0.9126 -2.5401
   61CHL1   H2B 6969   3.243   1.066   9.999  0.2118  0.2714 -1.0551
   61CHL1   C20 6970   3.375   1.179   9.024 -0.2876 -0.7146 -0.7706
   61CHL1   H20 6971   3.266   1.158   9.017 -0.6779  0.7082  0.5612
   61CHL1   C21 6972   3.440   1.035   9.032 -0.5841  0.1876  0.6112
   61CHL1  H21A 6973   3.431   0.989   8.932 -1.4902 -0.7014  1.0870
   61CHL1  H21B 6974   3.370   0.975   9.093 -2.7552 -2.0747 -3.6329
   61CHL1  H21C 6975   3.546   1.032   9.065  0.2941  1.0240 -1.8848
   61CHL1   C22 6976   3.428   1.244   8.895  0.5968  0.1205  0.4376
   61CHL1  H22A 6977   3.381   1.344   8.883 -1.0044 -0.5716  0.6551
   61CHL1  H22B 6978   3.539   1.244   8.902  0.5695  1.1418  1.0968
   61CHL1   C23 6979   3.396   1.170   8.766  0.2344 -0.2847 -0.0333
   61CHL1  H23A 6980   3.448   1.072   8.761 -1.5549 -1.4258  1.8613
   61CHL1  H23B 6981   3.286   1.157   8.769  0.4030 -1.9283 -0.0318
   61CHL1   C24 6982   3.433   1.243   8.639 -0.1617  0.4421  0.2374
   61CHL1  H24A 6983   3.369   1.331   8.618 -0.8745  0.1959  1.2966
   61CHL1  H24B 6984   3.531   1.288   8.665 -0.2777  1.1321 -0.5015
   61CHL1   C25 6985   3.434   1.133   8.533  0.2428 -1.1315  0.2811
   61CHL1   H25 6986   3.495   1.047   8.569 -0.8238 -2.2103 -0.4132
   61CHL1   C26 6987   3.284   1.092   8.501  1.0662 -0.1688  0.2855
   61CHL1  H26A 6988   3.228   1.185   8.477  0.4440 -0.9746 -1.5750
   61CHL1  H26B 6989   3.282   1.025   8.413  1.9789  1.2500 -0.8720
   61CHL1  H26C 6990   3.237   1.031   8.581  0.9750  0.8790  1.0539
   61CHL1   C27 6991   3.505   1.181   8.400  0.4062  0.0189 -0.6479
   61CHL1  H27A 6992   3.595   1.238   8.431 -0.7045  1.5117 -0.0498
   61CHL1  H27B 6993   3.528   1.090   8.340  2.2598  0.3175 -0.4403
   61CHL1  H27C 6994   3.433   1.238   8.336  0.0301 -1.8814 -2.0024
   62CHL1    C3 6995   6.209   4.804   9.852 -0.3418  0.8326 -0.1981
   62CHL1    H3 6996   6.195   4.695   9.843  0.8132  0.5006  1.5165
   62CHL1    O3 6997   6.215   4.840   9.990  0.8676 -0.3197  0.2721
   62CHL1   H3' 6998   6.131   4.809  10.024 -1.5093  1.9427 -2.9262
   62CHL1    C4 6999   6.340   4.848   9.778 -0.4039  0.6276  0.5465
   62CHL1   H4A 7000   6.353   4.958   9.783  0.8548  0.6875 -2.1499
   62CHL1   H4B 7001   6.425   4.793   9.826 -1.5685 -0.6295  1.2444
   62CHL1    C5 7002   6.328   4.820   9.630  0.2104  0.9522 -0.0699
   62CHL1    C6 7003   6.420   4.746   9.567  0.1006 -0.9626 -0.4761
   62CHL1    H6 7004   6.506   4.701   9.618  0.9615 -0.1476 -1.1654
   62CHL1    C7 7005   6.414   4.721   9.419 -0.1475  0.5189  0.2659
   62CHL1   H7A 7006   6.514   4.711   9.371 -0.8729 -2.8899 -0.7914
   62CHL1   H7B 7007   6.376   4.618   9.403 -1.8662  1.3510 -1.4584
   62CHL1    C8 7008   6.317   4.817   9.344 -0.5575  0.5835 -0.2087
   62CHL1    H8 7009   6.363   4.918   9.340  0.5821  0.0796 -0.0263
   62CHL1   C14 7010   6.295   4.777   9.200 -0.6758  0.4837 -0.6258
   62CHL1   H14 7011   6.253   4.674   9.193  1.0638 -0.1488 -4.0271
   62CHL1   C15 7012   6.418   4.750   9.112  0.3486  0.3693 -0.9239
   62CHL1  H15A 7013   6.490   4.832   9.131  0.7037 -0.1381 -0.0029
   62CHL1  H15B 7014   6.459   4.648   9.132  1.6054  0.6361 -1.9527
   62CHL1   C16 7015   6.354   4.751   8.972  0.3176  0.3392  0.1366
   62CHL1  H16A 7016   6.401   4.835   8.917 -0.6531  1.2918  0.7212
   62CHL1  H16B 7017   6.373   4.661   8.910  1.3387  1.6285 -1.5235
   62CHL1   C17 7018   6.199   4.783   8.991 -0.3288  0.3350 -0.7196
   62CHL1   H17 7019   6.151   4.685   9.010  1.4901 -0.2894  1.1058
   62CHL1   C13 7020   6.202   4.856   9.124 -0.2797 -0.4104  0.9863
   62CHL1   C18 7021   6.253   4.999   9.098 -0.2420  0.3535 -0.6523
   62CHL1  H18A 7022   6.169   5.056   9.052  0.5549  1.1302 -1.1658
   62CHL1  H18B 7023   6.270   5.058   9.190 -0.7519  1.2719 -1.1289
   62CHL1  H18C 7024   6.345   5.007   9.037  1.4808  0.2790  1.8248
   62CHL1   C12 7025   6.062   4.849   9.198 -0.5802  0.1860  0.5145
   62CHL1  H12A 7026   5.993   4.912   9.138  0.9874  0.9449 -0.5626
   62CHL1  H12B 7027   6.035   4.742   9.210  0.0747  0.0293  0.6155
   62CHL1   C11 7028   6.078   4.899   9.335  0.3473 -0.7270 -0.2438
   62CHL1  H11A 7029   6.093   5.009   9.325  0.1925 -0.7383 -0.6213
   62CHL1  H11B 7030   5.983   4.890   9.393  0.8040  0.1425  0.6664
   62CHL1    C9 7031   6.187   4.829   9.424  0.5388  0.0003  0.2383
   62CHL1    H9 7032   6.155   4.723   9.429 -0.6422  0.2640 -1.1567
   62CHL1   C10 7033   6.203   4.879   9.567  0.0390  0.2427 -0.2673
   62CHL1   C19 7034   6.228   5.034   9.558  0.2734 -0.5436  0.4159
   62CHL1  H19A 7035   6.252   5.083   9.655 -0.9899 -1.2293  1.0986
   62CHL1  H19B 7036   6.306   5.059   9.484 -1.3844  0.5068 -1.0504
   62CHL1  H19C 7037   6.131   5.082   9.533  0.6842 -0.0062 -0.1473
   62CHL1    C1 7038   6.075   4.846   9.642  0.1353 -0.7305  0.4004
   62CHL1   H1A 7039   5.986   4.899   9.603  0.6820 -1.2583 -1.6832
   62CHL1   H1B 7040   6.061   4.736   9.630 -1.5812 -0.4666 -0.3946
   62CHL1    C2 7041   6.081   4.867   9.793 -0.5236 -0.2247 -0.4856
   62CHL1   H2A 7042   5.991   4.842   9.853 -0.1071  0.0272  0.2629
   62CHL1   H2B 7043   6.100   4.976   9.802  1.8678 -0.4804 -1.6185
   62CHL1   C20 7044   6.120   4.833   8.869  0.3137  0.3617 -0.2448
   62CHL1   H20 7045   6.030   4.885   8.906  0.7736  0.7382  0.3573
   62CHL1   C21 7046   6.078   4.707   8.795 -0.3569  1.0764  0.4250
   62CHL1  H21A 7047   6.167   4.645   8.771  0.9466  1.5484  3.5448
   62CHL1  H21B 7048   6.019   4.733   8.704 -1.1386 -0.4778  0.4465
   62CHL1  H21C 7049   6.006   4.637   8.842  1.2646 -0.7612  0.2650
   62CHL1   C22 7050   6.203   4.926   8.769  0.6302 -0.1988  0.4842
   62CHL1  H22A 7051   6.263   4.997   8.830  0.1287  1.5590 -0.9870
   62CHL1  H22B 7052   6.270   4.858   8.713  1.2203  1.7120 -1.2452
   62CHL1   C23 7053   6.119   5.010   8.673  0.2232  0.0894  0.1641
   62CHL1  H23A 7054   6.050   4.942   8.617 -1.3760  1.1102  0.8104
   62CHL1  H23B 7055   6.052   5.079   8.728  1.3956  0.8198  0.7130
   62CHL1   C24 7056   6.197   5.086   8.567 -0.8707  0.4539  0.4146
   62CHL1  H24A 7057   6.239   5.179   8.610  1.6146  0.7337 -2.3060
   62CHL1  H24B 7058   6.286   5.024   8.547 -0.3654  1.7907 -1.8624
   62CHL1   C25 7059   6.116   5.116   8.432  0.0401  0.7272  0.4149
   62CHL1   H25 7060   6.032   5.186   8.455  0.6183  0.8922  2.1819
   62CHL1   C26 7061   6.208   5.179   8.325 -0.5717 -0.1916 -0.8013
   62CHL1  H26A 7062   6.250   5.271   8.369 -1.2285 -0.1854 -0.1786
   62CHL1  H26B 7063   6.282   5.107   8.283  0.3430  0.0714  0.3349
   62CHL1  H26C 7064   6.135   5.215   8.249 -1.6037  0.3500  0.4306
   62CHL1   C27 7065   6.056   4.995   8.366 -0.3908  0.1649  0.1432
   62CHL1  H27A 7066   6.127   4.912   8.344  0.1644 -0.4039  3.5277
   62CHL1  H27B 7067   5.978   4.954   8.434 -0.5758  1.3914  0.6814
   62CHL1  H27C 7068   6.006   5.035   8.276 -3.5977 -0.0697  1.6750
   63CHL1    C3 7069   0.518   6.353   9.952 -0.0329  0.0122 -0.8476
   63CHL1    H3 7070   0.540   6.257   9.899 -0.9177  0.0966 -1.3923
   63CHL1    O3 7071   0.486   6.314  10.088 -0.6363 -0.4938 -0.1884
   63CHL1   H3' 7072   0.477   6.393  10.142  0.4819 -0.5181  0.0515
   63CHL1    C4 7073   0.640   6.449   9.945  0.0457  0.3236  0.3012
   63CHL1   H4A 7074   0.637   6.542  10.005  0.4841  0.7027 -0.2502
   63CHL1   H4B 7075   0.721   6.383   9.982 -1.4725 -2.2633 -0.6990
   63CHL1    C5 7076   0.672   6.478   9.794  0.2381  0.3233  0.3139
   63CHL1    C6 7077   0.794   6.449   9.747 -0.5116  0.0972 -0.0834
   63CHL1    H6 7078   0.875   6.408   9.810 -1.1050 -2.1053 -0.6759
   63CHL1    C7 7079   0.834   6.480   9.609  0.0192 -1.0052  0.4668
   63CHL1   H7A 7080   0.923   6.547   9.614  0.4771 -1.6973  2.1262
   63CHL1   H7B 7081   0.847   6.385   9.553  2.3515 -0.8230  0.5918
   63CHL1    C8 7082   0.736   6.565   9.530  0.1343  0.3639 -0.8870
   63CHL1    H8 7083   0.747   6.672   9.557  0.2632 -0.0244  0.7475
   63CHL1   C14 7084   0.778   6.555   9.389  0.2783 -0.1166  0.5484
   63CHL1   H14 7085   0.771   6.451   9.353 -1.0745 -0.6367  2.1711
   63CHL1   C15 7086   0.922   6.606   9.361 -0.6326  0.1539  0.1744
   63CHL1  H15A 7087   0.945   6.704   9.410  1.9465 -0.7116  0.8340
   63CHL1  H15B 7088   1.002   6.541   9.401  0.3941  1.1832 -0.1624
   63CHL1   C16 7089   0.922   6.615   9.204 -0.5976  0.0014 -0.1885
   63CHL1  H16A 7090   0.962   6.713   9.172 -0.6159 -0.0345 -0.3231
   63CHL1  H16B 7091   0.981   6.532   9.160 -1.8988 -1.4040  0.6313
   63CHL1   C17 7092   0.771   6.598   9.163 -0.0923  0.6824 -0.1444
   63CHL1   H17 7093   0.761   6.490   9.139  3.5214  0.2285 -0.2234
   63CHL1   C13 7094   0.693   6.622   9.293 -0.3075 -0.3838  0.0182
   63CHL1   C18 7095   0.695   6.778   9.310 -0.0557 -0.2194  0.6708
   63CHL1  H18A 7096   0.791   6.830   9.293 -0.6645  0.2149 -1.7667
   63CHL1  H18B 7097   0.624   6.824   9.238 -0.0718 -0.8175  0.2994
   63CHL1  H18C 7098   0.665   6.802   9.415  0.6932  1.2227  0.5802
   63CHL1   C12 7099   0.548   6.570   9.311 -0.0347  0.3469 -0.3203
   63CHL1  H12A 7100   0.495   6.630   9.233  1.5020  1.9453 -0.1986
   63CHL1  H12B 7101   0.548   6.462   9.286 -0.8606  0.3160 -0.2103
   63CHL1   C11 7102   0.494   6.578   9.454 -0.2082  0.3241 -0.4657
   63CHL1  H11A 7103   0.502   6.686   9.479  0.6441  0.0234  0.6185
   63CHL1  H11B 7104   0.391   6.540   9.473 -0.1101 -0.1902 -0.9356
   63CHL1    C9 7105   0.592   6.515   9.557 -0.7112 -0.5223  0.4858
   63CHL1    H9 7106   0.595   6.408   9.527  2.2100  0.3081 -2.9136
   63CHL1   C10 7107   0.558   6.529   9.708 -0.5387  0.0278  0.7697
   63CHL1   C19 7108   0.529   6.679   9.746  0.5379 -0.2710  0.5655
   63CHL1  H19A 7109   0.619   6.741   9.725 -0.7137  0.7930 -2.1399
   63CHL1  H19B 7110   0.443   6.712   9.683  0.5126 -0.3111  0.5800
   63CHL1  H19C 7111   0.504   6.692   9.854 -1.7045  1.5995 -0.0834
   63CHL1    C1 7112   0.435   6.445   9.729  0.6111 -0.1536 -0.0125
   63CHL1   H1A 7113   0.346   6.496   9.688 -0.1713 -1.7611 -0.4202
   63CHL1   H1B 7114   0.431   6.340   9.691 -0.5347 -0.4429  0.8450
   63CHL1    C2 7115   0.398   6.417   9.875  0.2210 -0.0122 -0.2997
   63CHL1   H2A 7116   0.313   6.346   9.881  0.4184 -0.2604 -0.4235
   63CHL1   H2B 7117   0.360   6.511   9.920 -0.2491 -0.1805 -0.3363
   63CHL1   C20 7118   0.715   6.674   9.035  0.6433  1.3552  0.5888
   63CHL1   H20 7119   0.616   6.722   9.051  0.9463  2.0821  0.3211
   63CHL1   C21 7120   0.704   6.570   8.924 -0.0910  0.0971 -0.6681
   63CHL1  H21A 7121   0.652   6.486   8.974 -0.6937  0.0141 -1.4357
   63CHL1  H21B 7122   0.809   6.535   8.909 -0.0757 -0.7059  1.0451
   63CHL1  H21C 7123   0.667   6.615   8.830 -0.3468 -0.9980 -1.0994
   63CHL1   C22 7124   0.797   6.799   8.990 -0.2312  0.4710  0.6148
   63CHL1  H22A 7125   0.816   6.856   9.084 -0.5935  0.8184  0.4795
   63CHL1  H22B 7126   0.891   6.770   8.937 -0.3358  0.6653  0.3230
   63CHL1   C23 7127   0.726   6.899   8.902 -0.5148 -0.4874  0.6757
   63CHL1  H23A 7128   0.685   6.850   8.810  0.1242  1.3123 -0.6158
   63CHL1  H23B 7129   0.646   6.958   8.953 -0.0531  0.6604  0.1041
   63CHL1   C24 7130   0.829   7.008   8.837  1.1252 -0.1538  0.7352
   63CHL1  H24A 7131   0.871   7.063   8.923 -2.7376 -2.2149  4.2925
   63CHL1  H24B 7132   0.908   6.948   8.785  0.0691 -1.7034  0.8479
   63CHL1   C25 7133   0.759   7.114   8.742  0.5078 -0.0416  0.0208
   63CHL1   H25 7134   0.722   7.044   8.663  1.5625  0.6556 -1.1251
   63CHL1   C26 7135   0.650   7.192   8.820  0.7198 -0.0140 -0.0426
   63CHL1  H26A 7136   0.674   7.246   8.914 -1.5366  0.9930  0.0339
   63CHL1  H26B 7137   0.605   7.274   8.760 -1.2225 -0.2221  1.0404
   63CHL1  H26C 7138   0.562   7.127   8.844  0.2844  0.3354 -0.6716
   63CHL1   C27 7139   0.861   7.208   8.680  0.9117 -0.4994  0.0921
   63CHL1  H27A 7140   0.900   7.278   8.757  1.4604 -0.6628 -0.0357
   63CHL1  H27B 7141   0.946   7.153   8.634  1.7605  1.8439 -1.3241
   63CHL1  H27C 7142   0.810   7.267   8.600  1.5385  0.0395  0.0771
   64CHL1    C3 7143   0.516   5.155   9.983 -0.1752  0.1868 -0.6993
   64CHL1    H3 7144   0.601   5.085   9.966  0.6440  1.0741 -0.2846
   64CHL1    O3 7145   0.479   5.153  10.122  0.0122 -0.1805  0.0794
   64CHL1   H3' 7146   0.562   5.168  10.168  0.6716  2.5703 -1.7806
   64CHL1    C4 7147   0.580   5.287   9.942  0.0530 -0.4631 -0.5064
   64CHL1   H4A 7148   0.523   5.374   9.981  0.0406  0.4335 -2.3757
   64CHL1   H4B 7149   0.674   5.290  10.000 -0.3519  1.2222  0.1381
   64CHL1    C5 7150   0.596   5.305   9.791 -0.1677 -0.0096 -0.0628
   64CHL1    C6 7151   0.718   5.334   9.745 -0.2249  0.4326  0.3559
   64CHL1    H6 7152   0.806   5.336   9.811  1.0335  1.4684 -1.2711
   64CHL1    C7 7153   0.748   5.349   9.604 -0.6073  0.2270  0.8348
   64CHL1   H7A 7154   0.807   5.441   9.586 -0.3678 -0.3146 -1.5688
   64CHL1   H7B 7155   0.810   5.268   9.560 -0.4967  0.9595 -0.4267
   64CHL1    C8 7156   0.633   5.358   9.510  0.8174 -0.0537  0.2999
   64CHL1    H8 7157   0.591   5.461   9.509 -0.5854 -0.4759 -4.1356
   64CHL1   C14 7158   0.681   5.317   9.369 -0.0387  0.6329 -0.2704
   64CHL1   H14 7159   0.701   5.209   9.379  0.9750  0.7728 -0.6996
   64CHL1   C15 7160   0.809   5.375   9.310  0.5752  0.0333  0.0911
   64CHL1  H15A 7161   0.810   5.484   9.329  0.6992  0.0850 -0.2080
   64CHL1  H15B 7162   0.901   5.328   9.352  0.3497  0.9904  1.7510
   64CHL1   C16 7163   0.788   5.347   9.163 -0.7520  0.5450 -0.5815
   64CHL1  H16A 7164   0.799   5.437   9.099  0.3392 -1.4052 -3.3856
   64CHL1  H16B 7165   0.853   5.266   9.122 -2.0989 -1.2720  0.7327
   64CHL1   C17 7166   0.644   5.290   9.136  0.1130  0.0264 -0.5909
   64CHL1   H17 7167   0.663   5.181   9.132 -2.1083 -0.5153  1.4934
   64CHL1   C13 7168   0.568   5.320   9.262  0.3787  0.2835 -0.0334
   64CHL1   C18 7169   0.519   5.461   9.249 -0.6465 -0.6504 -0.1810
   64CHL1  H18A 7170   0.476   5.499   9.344  2.5719  1.7066  0.4907
   64CHL1  H18B 7171   0.596   5.525   9.201 -1.2432 -2.4334 -3.8560
   64CHL1  H18C 7172   0.432   5.460   9.181 -0.2828  1.4919 -0.7290
   64CHL1   C12 7173   0.457   5.218   9.302 -0.0819 -0.0284  0.5737
   64CHL1  H12A 7174   0.373   5.215   9.230  0.9760 -3.1266 -0.6829
   64CHL1  H12B 7175   0.491   5.112   9.311 -4.4202 -1.7399 -0.2474
   64CHL1   C11 7176   0.410   5.250   9.448 -0.2740 -0.2510  0.9562
   64CHL1  H11A 7177   0.354   5.345   9.444 -0.6661 -0.4888  0.6494
   64CHL1  H11B 7178   0.327   5.181   9.473  0.6940 -2.0288 -0.4493
   64CHL1    C9 7179   0.528   5.255   9.554  0.3782  0.2936 -0.0310
   64CHL1    H9 7180   0.574   5.154   9.552 -0.6933 -0.2006 -0.7693
   64CHL1   C10 7181   0.473   5.273   9.699 -0.6311  0.2666 -0.4734
   64CHL1   C19 7182   0.377   5.386   9.717  0.1674 -0.7440 -0.0181
   64CHL1  H19A 7183   0.369   5.397   9.827  2.1316  4.4442 -0.0972
   64CHL1  H19B 7184   0.412   5.483   9.675 -1.8818  0.7250  1.4592
   64CHL1  H19C 7185   0.276   5.364   9.676 -0.9450  2.4745  0.6943
   64CHL1    C1 7186   0.401   5.141   9.747 -0.0826  0.4758 -0.7850
   64CHL1   H1A 7187   0.301   5.119   9.704 -0.7420 -0.3757  1.0692
   64CHL1   H1B 7188   0.456   5.049   9.715 -2.0926 -1.5096  1.1002
   64CHL1    C2 7189   0.385   5.123   9.899 -0.9755 -0.3920  0.0567
   64CHL1   H2A 7190   0.351   5.017   9.907 -1.3764 -0.4060 -1.4872
   64CHL1   H2B 7191   0.307   5.195   9.931  0.7679  2.2036 -1.1532
   64CHL1   C20 7192   0.588   5.342   9.004  0.7015 -0.5798  0.2540
   64CHL1   H20 7193   0.586   5.453   9.006  1.6840 -0.5481 -0.2387
   64CHL1   C21 7194   0.444   5.290   8.974 -0.0918  0.0524 -0.3151
   64CHL1  H21A 7195   0.451   5.183   9.004  0.6697  0.3889  0.7665
   64CHL1  H21B 7196   0.423   5.282   8.865  1.6958  0.2809 -0.7033
   64CHL1  H21C 7197   0.361   5.337   9.031  1.5119 -0.9763  3.1347
   64CHL1   C22 7198   0.681   5.311   8.885  0.4031  0.3185  0.2055
   64CHL1  H22A 7199   0.788   5.319   8.913  0.3745 -0.5165  0.5929
   64CHL1  H22B 7200   0.694   5.206   8.851  4.0999  1.4915 -2.6436
   64CHL1   C23 7201   0.665   5.404   8.764  0.1931  0.5548  0.3240
   64CHL1  H23A 7202   0.559   5.420   8.737 -0.7885 -3.2472  1.3159
   64CHL1  H23B 7203   0.709   5.502   8.789  1.7668 -0.6157  2.4836
   64CHL1   C24 7204   0.745   5.358   8.636  0.2094 -0.4030 -1.0961
   64CHL1  H24A 7205   0.852   5.379   8.658  0.2961  0.0174 -1.8878
   64CHL1  H24B 7206   0.724   5.249   8.633 -1.3446 -0.4018  2.8645
   64CHL1   C25 7207   0.699   5.429   8.505 -0.1268  0.7087 -0.1636
   64CHL1   H25 7208   0.589   5.415   8.498 -0.2976  0.8365  1.7621
   64CHL1   C26 7209   0.757   5.572   8.513  0.4610 -0.6283  0.0936
   64CHL1  H26A 7210   0.730   5.613   8.612  0.3114 -1.7047  0.5069
   64CHL1  H26B 7211   0.867   5.570   8.503  0.4004 -2.7476 -0.8000
   64CHL1  H26C 7212   0.709   5.628   8.430 -3.0432 -3.9128 -0.3965
   64CHL1   C27 7213   0.759   5.344   8.390  0.1876  0.5381 -0.2218
   64CHL1  H27A 7214   0.748   5.234   8.402  2.0777  0.5295  2.2126
   64CHL1  H27B 7215   0.708   5.377   8.297  1.8002 -0.6740 -1.6134
   64CHL1  H27C 7216   0.868   5.352   8.370 -0.0810  1.1249 -1.5487
   65CHL1    C3 7217   1.095   2.897   9.692  0.6676  0.0110  0.3132
   65CHL1    H3 7218   1.032   2.810   9.666  1.7362 -0.2120 -1.7107
   65CHL1    O3 7219   1.072   2.959   9.815 -0.3412  0.3323 -0.2947
   65CHL1   H3' 7220   0.979   2.983   9.811 -0.4082  1.1884  3.2511
   65CHL1    C4 7221   1.242   2.835   9.691  0.0263  0.0814  0.3772
   65CHL1   H4A 7222   1.319   2.911   9.720 -1.5104  0.7634  2.9564
   65CHL1   H4B 7223   1.250   2.755   9.767  0.9688  0.7634  1.0262
   65CHL1    C5 7224   1.279   2.766   9.561  0.0398  0.4855 -0.0718
   65CHL1    C6 7225   1.310   2.634   9.555 -0.5801  0.7102  0.3400
   65CHL1    H6 7226   1.304   2.563   9.639 -0.0729  0.4875  0.1900
   65CHL1    C7 7227   1.336   2.554   9.429 -0.3399 -0.6154  0.2672
   65CHL1   H7A 7228   1.416   2.480   9.453 -3.3425 -3.4192  2.5400
   65CHL1   H7B 7229   1.243   2.501   9.401 -1.0014  0.7661 -0.2446
   65CHL1    C8 7230   1.376   2.658   9.325 -0.4335  0.3104  0.0432
   65CHL1    H8 7231   1.479   2.698   9.338 -0.8369  1.8847 -1.2085
   65CHL1   C14 7232   1.377   2.585   9.195  0.1385  0.9409 -0.2992
   65CHL1   H14 7233   1.275   2.545   9.174  0.4976  0.9877 -2.3876
   65CHL1   C15 7234   1.466   2.459   9.189  0.0409 -0.3130 -0.0182
   65CHL1  H15A 7235   1.569   2.485   9.222 -0.0812 -0.0860  0.1793
   65CHL1  H15B 7236   1.424   2.383   9.258 -1.0081 -0.3192 -0.6435
   65CHL1   C16 7237   1.455   2.418   9.034  0.1688 -0.2617  0.2162
   65CHL1  H16A 7238   1.556   2.397   8.993  0.0717 -0.4828  0.0939
   65CHL1  H16B 7239   1.371   2.347   9.020 -1.0087  1.4220 -1.7553
   65CHL1   C17 7240   1.404   2.553   8.964 -0.0592 -0.0401  0.3656
   65CHL1   H17 7241   1.294   2.541   8.950  0.1446 -1.3640 -0.2768
   65CHL1   C13 7242   1.416   2.656   9.068  0.2080 -0.0609  0.4553
   65CHL1   C18 7243   1.562   2.693   9.067 -0.0226  0.0027  0.2484
   65CHL1  H18A 7244   1.632   2.607   9.069 -3.1456 -2.7331  1.4512
   65CHL1  H18B 7245   1.580   2.756   8.978 -1.3242 -2.4693 -1.8762
   65CHL1  H18C 7246   1.582   2.741   9.166 -0.2007 -0.4454  0.5052
   65CHL1   C12 7247   1.323   2.775   9.052  0.7712 -0.2321 -0.3306
   65CHL1  H12A 7248   1.345   2.842   8.966  0.8402  1.8382  1.2065
   65CHL1  H12B 7249   1.219   2.748   9.026  1.3472  0.5433 -3.9094
   65CHL1   C11 7250   1.319   2.862   9.183  0.2018  0.4771  0.7902
   65CHL1  H11A 7251   1.420   2.908   9.191  1.0507 -0.7260 -1.7808
   65CHL1  H11B 7252   1.240   2.936   9.158 -1.0458 -1.4040 -1.2440
   65CHL1    C9 7253   1.279   2.774   9.310  0.0223  0.1232  0.2321
   65CHL1    H9 7254   1.178   2.733   9.290  0.2218 -1.0222  1.4630
   65CHL1   C10 7255   1.273   2.855   9.434  0.1833 -0.1288  0.0026
   65CHL1   C19 7256   1.389   2.961   9.447  0.6163 -0.7089  0.0276
   65CHL1  H19A 7257   1.395   3.027   9.358  0.5853  0.4589  0.8639
   65CHL1  H19B 7258   1.355   3.019   9.536 -0.8966 -0.1385 -0.8805
   65CHL1  H19C 7259   1.490   2.925   9.477  0.0840 -0.9421  1.6538
   65CHL1    C1 7260   1.132   2.929   9.430  0.7845  0.3757 -0.3932
   65CHL1   H1A 7261   1.123   3.010   9.354  1.6658 -0.2576 -1.1953
   65CHL1   H1B 7262   1.064   2.847   9.398 -0.6756  1.4168 -0.0404
   65CHL1    C2 7263   1.085   2.986   9.566  0.0667  0.8116  0.2604
   65CHL1   H2A 7264   0.977   3.010   9.549  0.9122  2.6300 -4.0861
   65CHL1   H2B 7265   1.134   3.085   9.581  2.9361 -0.1137 -2.0330
   65CHL1   C20 7266   1.465   2.573   8.815 -0.4262  1.5401  0.4273
   65CHL1   H20 7267   1.575   2.569   8.832 -0.1700  0.2485 -1.2526
   65CHL1   C21 7268   1.425   2.698   8.742 -0.5700  0.0713  0.0519
   65CHL1  H21A 7269   1.469   2.779   8.804  1.1930 -1.9642  1.6127
   65CHL1  H21B 7270   1.315   2.700   8.728 -0.2832 -1.2442 -3.4394
   65CHL1  H21C 7271   1.480   2.699   8.645  0.8493  0.2319  0.8249
   65CHL1   C22 7272   1.437   2.448   8.720  0.0987 -0.1641  0.1859
   65CHL1  H22A 7273   1.467   2.350   8.763  4.3870 -0.4571 -2.8350
   65CHL1  H22B 7274   1.329   2.446   8.692 -0.2667 -1.0093  1.5860
   65CHL1   C23 7275   1.531   2.438   8.594  0.3669  0.6595  0.6076
   65CHL1  H23A 7276   1.508   2.350   8.531 -0.4496  1.6064 -0.4624
   65CHL1  H23B 7277   1.521   2.524   8.524 -0.7332 -0.3448 -0.5092
   65CHL1   C24 7278   1.682   2.422   8.621  0.4426  0.1532  0.6180
   65CHL1  H24A 7279   1.713   2.526   8.645  1.8199  0.6836 -2.8346
   65CHL1  H24B 7280   1.696   2.345   8.700  0.1413  0.7300  1.2482
   65CHL1   C25 7281   1.777   2.394   8.495  0.4501  0.3825 -0.0536
   65CHL1   H25 7282   1.735   2.318   8.427 -0.6278 -0.7539  1.7948
   65CHL1   C26 7283   1.801   2.522   8.414 -0.8375  0.0390  0.2074
   65CHL1  H26A 7284   1.853   2.591   8.484 -0.2027 -2.7599  2.6945
   65CHL1  H26B 7285   1.875   2.499   8.334 -0.4683  0.6297  0.3773
   65CHL1  H26C 7286   1.704   2.566   8.383 -2.4104 -2.0056  1.8745
   65CHL1   C27 7287   1.913   2.348   8.545  0.0879  0.2662 -0.5001
   65CHL1  H27A 7288   1.954   2.429   8.609  0.9380 -0.0882 -0.5814
   65CHL1  H27B 7289   1.896   2.260   8.611 -0.7782  1.5098  1.0047
   65CHL1  H27C 7290   1.976   2.321   8.458  1.0291 -0.3569  0.3544
   66CHL1    C3 7291   0.178   0.555  10.488 -0.0007  0.7914  0.5339
   66CHL1    H3 7292   0.287   0.574  10.480  0.2203 -0.7987 -0.9847
   66CHL1    O3 7293   0.131   0.531  10.621 -0.0740  0.2989  0.1044
   66CHL1   H3' 7294   0.114   0.620  10.653 -1.2192 -0.2580  1.1209
   66CHL1    C4 7295   0.107   0.680  10.431 -0.2372 -0.1493  0.3324
   66CHL1   H4A 7296  -0.000   0.670  10.460 -0.2619 -2.4015 -0.3197
   66CHL1   H4B 7297   0.145   0.767  10.489 -2.4526  2.2509 -1.6036
   66CHL1    C5 7298   0.118   0.704  10.282 -0.4248 -0.9479 -0.4506
   66CHL1    C6 7299   0.163   0.827  10.239  0.9983  0.3718  0.3747
   66CHL1    H6 7300   0.171   0.905  10.316  1.1127  0.3801  0.3557
   66CHL1    C7 7301   0.152   0.861  10.089 -0.3569 -0.2416 -0.4575
   66CHL1   H7A 7302   0.106   0.961  10.070  1.8234  0.8012 -0.7048
   66CHL1   H7B 7303   0.255   0.856  10.047 -0.8107 -1.4286 -1.4879
   66CHL1    C8 7304   0.077   0.750  10.004 -0.8059  0.5860  0.5678
   66CHL1    H8 7305  -0.032   0.756  10.022 -1.3647 -2.3416 -1.0700
   66CHL1   C14 7306   0.114   0.773   9.855 -0.0209  0.2052  0.5578
   66CHL1   H14 7307   0.221   0.746   9.842  0.3287  1.9224 -0.4604
   66CHL1   C15 7308   0.085   0.911   9.799 -1.0048 -0.5362  0.3982
   66CHL1  H15A 7309  -0.022   0.937   9.813 -1.3836 -1.3613 -0.8045
   66CHL1  H15B 7310   0.146   0.991   9.847 -1.6856  1.2244 -1.4685
   66CHL1   C16 7311   0.103   0.887   9.646  0.1734  0.5357  0.0046
   66CHL1  H16A 7312   0.017   0.929   9.590  1.4455 -0.8146 -3.2021
   66CHL1  H16B 7313   0.188   0.939   9.597  0.6885 -0.5094 -0.2500
   66CHL1   C17 7314   0.122   0.732   9.635 -1.3812 -0.2298 -0.0657
   66CHL1   H17 7315   0.229   0.707   9.653 -1.3941 -0.0943  0.2111
   66CHL1   C13 7316   0.055   0.667   9.756 -0.3414  0.4238 -0.1219
   66CHL1   C18 7317  -0.099   0.666   9.748  0.0546 -0.9153  0.6865
   66CHL1  H18A 7318  -0.147   0.603   9.670 -0.9633  1.0929 -0.4073
   66CHL1  H18B 7319  -0.136   0.631   9.847 -1.5504 -0.7282  0.1875
   66CHL1  H18C 7320  -0.127   0.768   9.713  2.3838 -1.2867 -2.7541
   66CHL1   C12 7321   0.113   0.530   9.797  0.5700  0.0664 -0.4575
   66CHL1  H12A 7322   0.067   0.450   9.735  0.9741  0.6257 -1.5185
   66CHL1  H12B 7323   0.224   0.524   9.786  1.0444  3.5549  1.1088
   66CHL1   C11 7324   0.082   0.497   9.946 -0.2266  0.1094 -0.3592
   66CHL1  H11A 7325  -0.026   0.487   9.970 -0.1139 -0.4707 -0.0712
   66CHL1  H11B 7326   0.130   0.402   9.976  1.3406  1.0993  0.3518
   66CHL1    C9 7327   0.122   0.614  10.050 -0.0236  0.1410 -0.5506
   66CHL1    H9 7328   0.233   0.617  10.053 -0.0612  1.5449  0.4836
   66CHL1   C10 7329   0.088   0.579  10.198 -0.0183  0.5246 -0.8153
   66CHL1   C19 7330  -0.064   0.549  10.210 -0.0488  0.1909 -0.1661
   66CHL1  H19A 7331  -0.119   0.627  10.154 -0.2080 -0.2313 -0.6110
   66CHL1  H19B 7332  -0.089   0.451  10.163 -1.5907 -0.0290  0.9994
   66CHL1  H19C 7333  -0.097   0.544  10.316  1.4902  0.2002  0.3404
   66CHL1    C1 7334   0.165   0.453  10.254  0.3178  0.4713  0.2102
   66CHL1   H1A 7335   0.134   0.362  10.200  0.3612 -0.5234  1.8139
   66CHL1   H1B 7336   0.276   0.467  10.249  0.3910  0.8063  2.0997
   66CHL1    C2 7337   0.137   0.429  10.403  0.6064  0.4801  0.2782
   66CHL1   H2A 7338   0.197   0.347  10.448  0.5966  1.0058  1.2764
   66CHL1   H2B 7339   0.031   0.405  10.424 -0.2981  3.5000 -0.2755
   66CHL1   C20 7340   0.079   0.669   9.493 -0.4168  0.3549  0.6200
   66CHL1   H20 7341  -0.022   0.711   9.473 -1.5065 -2.3611  0.0244
   66CHL1   C21 7342   0.077   0.521   9.496 -1.4514 -0.4548 -0.6423
   66CHL1  H21A 7343   0.171   0.475   9.534 -0.4055  1.4309 -0.7724
   66CHL1  H21B 7344   0.067   0.479   9.394 -2.4923 -1.9881  0.0625
   66CHL1  H21C 7345  -0.007   0.480   9.556 -1.1577  0.0158  0.1120
   66CHL1   C22 7346   0.165   0.718   9.376  0.3590 -0.7079  0.2590
   66CHL1  H22A 7347   0.101   0.697   9.287 -0.7515 -1.3357  1.1843
   66CHL1  H22B 7348   0.185   0.827   9.376  2.2493 -1.0158  0.6011
   66CHL1   C23 7349   0.298   0.642   9.360 -0.1129 -0.0557  0.2011
   66CHL1  H23A 7350   0.351   0.661   9.455  0.9509  0.9214 -0.5544
   66CHL1  H23B 7351   0.278   0.537   9.328  2.9686 -1.1229  1.3634
   66CHL1   C24 7352   0.392   0.706   9.250 -0.2938 -0.4320  0.5704
   66CHL1  H24A 7353   0.345   0.681   9.152 -1.7937  2.3424  0.4889
   66CHL1  H24B 7354   0.386   0.817   9.248 -0.3490 -0.4473 -0.2181
   66CHL1   C25 7355   0.540   0.656   9.255  0.3373  0.1165  0.6894
   66CHL1   H25 7356   0.589   0.698   9.164 -0.7307 -3.4716 -1.7559
   66CHL1   C26 7357   0.617   0.712   9.377 -0.1524  0.5390 -0.6873
   66CHL1  H26A 7358   0.613   0.631   9.452 -0.6380  0.9691 -0.2369
   66CHL1  H26B 7359   0.726   0.729   9.366 -0.0198 -0.1066 -0.3857
   66CHL1  H26C 7360   0.574   0.806   9.419 -1.4831 -2.4241  5.7322
   66CHL1   C27 7361   0.544   0.500   9.248 -0.3356  0.0310 -0.4370
   66CHL1  H27A 7362   0.500   0.463   9.153  1.3956  0.0439 -1.2741
   66CHL1  H27B 7363   0.649   0.465   9.235 -1.2224 -2.0077 -3.1465
   66CHL1  H27C 7364   0.501   0.454   9.339  1.4419 -0.4303  0.1976
   67CHL1    C3 7365   3.394   2.074  10.043  0.1698 -0.1790 -0.3170
   67CHL1    H3 7366   3.297   2.022  10.030 -0.5306  0.6890  1.1489
   67CHL1    O3 7367   3.414   2.097  10.180 -0.2918 -0.1594 -0.0267
   67CHL1   H3' 7368   3.379   2.185  10.194 -0.6581 -0.2668 -0.2472
   67CHL1    C4 7369   3.498   1.978   9.989 -0.1456 -0.2148  0.5130
   67CHL1   H4A 7370   3.599   2.015  10.018 -0.6681  0.6492  1.3015
   67CHL1   H4B 7371   3.483   1.878  10.035 -0.2212 -0.8909 -0.9410
   67CHL1    C5 7372   3.510   1.973   9.835 -0.1173 -0.4516  0.1310
   67CHL1    C6 7373   3.523   1.852   9.769  0.2392 -0.2058 -0.1066
   67CHL1    H6 7374   3.536   1.765   9.835  0.1047  0.7872  1.2868
   67CHL1    C7 7375   3.534   1.825   9.617  0.5083 -0.6568 -0.6730
   67CHL1   H7A 7376   3.624   1.762   9.600 -0.4469 -1.9785 -1.0244
   67CHL1   H7B 7377   3.453   1.759   9.580 -0.7156  0.9269 -0.9239
   67CHL1    C8 7378   3.546   1.968   9.549  0.5641 -0.0561 -0.2613
   67CHL1    H8 7379   3.651   1.997   9.568  0.6230 -0.0595 -0.5809
   67CHL1   C14 7380   3.518   1.953   9.399  0.5012 -0.1205 -0.1780
   67CHL1   H14 7381   3.412   1.923   9.405  0.0152  1.7723  1.5493
   67CHL1   C15 7382   3.598   1.849   9.302  0.2628  0.9682  0.2895
   67CHL1  H15A 7383   3.702   1.841   9.340  0.4736  1.7283 -0.1084
   67CHL1  H15B 7384   3.547   1.750   9.310 -0.7964  1.3900 -0.7957
   67CHL1   C16 7385   3.602   1.915   9.167 -0.1220 -0.2493  0.1633
   67CHL1  H16A 7386   3.707   1.909   9.133 -0.6466 -1.1061 -1.4393
   67CHL1  H16B 7387   3.553   1.845   9.095 -1.7167  1.1549 -0.1690
   67CHL1   C17 7388   3.523   2.048   9.180  0.4900  0.1531 -0.5125
   67CHL1   H17 7389   3.417   2.023   9.159  0.3444 -0.6600  1.0193
   67CHL1   C13 7390   3.531   2.092   9.333 -0.4881 -0.2437  1.1514
   67CHL1   C18 7391   3.666   2.167   9.345  0.1260  0.2557 -0.8607
   67CHL1  H18A 7392   3.743   2.115   9.285  0.4494  0.2942 -0.4839
   67CHL1  H18B 7393   3.645   2.269   9.307 -1.1298  1.3229  2.3560
   67CHL1  H18C 7394   3.699   2.167   9.451  1.8590  0.7406 -1.3668
   67CHL1   C12 7395   3.409   2.175   9.379  0.1016 -0.4100 -0.0373
   67CHL1  H12A 7396   3.411   2.266   9.316  1.1280 -1.5780 -1.7874
   67CHL1  H12B 7397   3.311   2.128   9.360 -1.0125  1.4557  0.8742
   67CHL1   C11 7398   3.420   2.207   9.525 -0.8451  0.1830 -0.3623
   67CHL1  H11A 7399   3.505   2.278   9.535 -0.9955  0.4726 -1.1360
   67CHL1  H11B 7400   3.329   2.256   9.564  0.4278  1.7321  0.7762
   67CHL1    C9 7401   3.457   2.077   9.619 -0.0267  0.3866 -0.5881
   67CHL1    H9 7402   3.358   2.025   9.622  0.3440 -0.2960  1.6527
   67CHL1   C10 7403   3.490   2.111   9.765 -0.0586  0.5295 -0.2067
   67CHL1   C19 7404   3.626   2.193   9.765 -0.2646 -0.5825 -0.5536
   67CHL1  H19A 7405   3.593   2.287   9.717  1.4446  0.0307 -0.5915
   67CHL1  H19B 7406   3.650   2.217   9.871 -0.4001  1.6019 -0.9774
   67CHL1  H19C 7407   3.706   2.142   9.706 -0.2423 -0.0737 -0.9644
   67CHL1    C1 7408   3.379   2.190   9.832  0.2919 -0.1842 -0.1178
   67CHL1   H1A 7409   3.365   2.283   9.771 -0.2637 -0.9965 -1.2685
   67CHL1   H1B 7410   3.286   2.133   9.814 -0.6767 -0.3012  4.2559
   67CHL1    C2 7411   3.396   2.215   9.977 -0.4563 -0.6026  0.3531
   67CHL1   H2A 7412   3.307   2.267  10.017 -0.2794  0.0911 -0.1275
   67CHL1   H2B 7413   3.487   2.274  10.002 -2.6551  3.3750 -0.2846
   67CHL1   C20 7414   3.559   2.147   9.066 -0.2090  0.1901  0.4880
   67CHL1   H20 7415   3.667   2.170   9.082  0.2412 -1.7708  0.5144
   67CHL1   C21 7416   3.477   2.281   9.071  0.6602  0.3149 -0.0738
   67CHL1  H21A 7417   3.523   2.332   9.159  1.7697  0.9204 -0.9817
   67CHL1  H21B 7418   3.372   2.246   9.077  1.4287 -2.3739 -0.9321
   67CHL1  H21C 7419   3.485   2.342   8.979  0.5468 -1.4157 -1.2887
   67CHL1   C22 7420   3.550   2.086   8.927  0.3042  0.9044 -0.0453
   67CHL1  H22A 7421   3.612   1.993   8.927 -2.7237 -1.4124 -3.4399
   67CHL1  H22B 7422   3.444   2.061   8.902  0.0677  2.5234 -0.7867
   67CHL1   C23 7423   3.600   2.170   8.811  0.3088  0.1986 -0.1079
   67CHL1  H23A 7424   3.532   2.256   8.791  0.8968  0.6706 -0.1134
   67CHL1  H23B 7425   3.700   2.203   8.847  0.5137 -0.8739  0.3579
   67CHL1   C24 7426   3.623   2.077   8.690  0.5095 -0.1581  0.4745
   67CHL1  H24A 7427   3.686   1.989   8.714  0.9186 -0.0361 -0.1015
   67CHL1  H24B 7428   3.519   2.041   8.675 -0.4825  2.1917  1.1024
   67CHL1   C25 7429   3.678   2.136   8.557 -0.6225 -0.2752 -0.2460
   67CHL1   H25 7430   3.690   2.048   8.489 -1.6262 -0.8103  0.2470
   67CHL1   C26 7431   3.578   2.225   8.491  0.4983  0.0085  0.3687
   67CHL1  H26A 7432   3.475   2.190   8.472  0.2575 -0.2881  2.0720
   67CHL1  H26B 7433   3.569   2.313   8.558 -0.9060 -0.0095  0.2279
   67CHL1  H26C 7434   3.607   2.255   8.388  0.4210 -1.5208 -0.1222
   67CHL1   C27 7435   3.812   2.201   8.575 -0.2535  0.1881 -0.2655
   67CHL1  H27A 7436   3.886   2.123   8.602 -0.3140  0.4271  0.6360
   67CHL1  H27B 7437   3.847   2.264   8.490 -0.1406  2.0081  1.0741
   67CHL1  H27C 7438   3.818   2.261   8.668  1.8424  1.6424 -1.2616
   68CHL1    C3 7439   3.082   3.411   9.967 -0.0801  0.2726 -0.2702
   68CHL1    H3 7440   3.070   3.303   9.943  0.7367 -0.0510  0.7148
   68CHL1    O3 7441   3.082   3.423  10.110 -0.7469  0.4528  0.4352
   68CHL1   H3' 7442   3.088   3.519  10.115  3.1461  0.6066 -2.6637
   68CHL1    C4 7443   3.217   3.445   9.900 -0.2037 -0.0552 -0.4187
   68CHL1   H4A 7444   3.248   3.544   9.939  0.5146 -0.4326 -0.0125
   68CHL1   H4B 7445   3.274   3.359   9.941 -0.6534 -0.1633 -0.0093
   68CHL1    C5 7446   3.209   3.449   9.751  0.0342 -0.2784  0.2871
   68CHL1    C6 7447   3.297   3.378   9.681 -0.6245 -0.8399 -0.2952
   68CHL1    H6 7448   3.383   3.323   9.724  0.4669 -0.9332 -2.4453
   68CHL1    C7 7449   3.315   3.387   9.530  0.1830 -0.2582  0.3807
   68CHL1   H7A 7450   3.417   3.400   9.489 -0.0440 -1.1799 -0.5391
   68CHL1   H7B 7451   3.286   3.286   9.494  1.5965 -0.4273 -0.3431
   68CHL1    C8 7452   3.223   3.489   9.461  0.9042 -0.0312  0.0649
   68CHL1    H8 7453   3.286   3.581   9.468  3.1890 -1.5924  1.5337
   68CHL1   C14 7454   3.200   3.451   9.320 -0.0806 -0.3730 -0.3466
   68CHL1   H14 7455   3.139   3.360   9.337 -0.1878 -0.2981 -0.3332
   68CHL1   C15 7456   3.313   3.398   9.231 -0.1953 -0.0729  0.1346
   68CHL1  H15A 7457   3.398   3.467   9.248  1.2044 -1.5138 -0.7054
   68CHL1  H15B 7458   3.345   3.293   9.249 -1.7679 -0.2168  2.4489
   68CHL1   C16 7459   3.262   3.399   9.088 -0.9855  0.3797  0.1223
   68CHL1  H16A 7460   3.337   3.446   9.021 -0.9835 -1.3847 -1.1910
   68CHL1  H16B 7461   3.254   3.295   9.049  1.1961 -0.2490  1.1614
   68CHL1   C17 7462   3.129   3.470   9.099  0.8036  0.3303  0.0473
   68CHL1   H17 7463   3.059   3.387   9.122 -0.3163  1.0443 -0.7071
   68CHL1   C13 7464   3.121   3.546   9.233 -0.8250  0.0154 -0.9130
   68CHL1   C18 7465   3.191   3.683   9.231  0.6555  0.0470  0.5153
   68CHL1  H18A 7466   3.297   3.671   9.200  0.3486 -1.2576 -0.0858
   68CHL1  H18B 7467   3.135   3.745   9.159 -3.1054 -0.4119  2.7864
   68CHL1  H18C 7468   3.171   3.739   9.325 -2.3716 -1.6385  0.9994
   68CHL1   C12 7469   2.984   3.558   9.309  0.3962  0.8537  0.2119
   68CHL1  H12A 7470   2.905   3.620   9.262 -1.0740  0.9049  2.6024
   68CHL1  H12B 7471   2.946   3.454   9.308 -0.3178  1.0827  1.3383
   68CHL1   C11 7472   2.990   3.611   9.451  0.2414  0.1389 -0.4271
   68CHL1  H11A 7473   3.013   3.720   9.451  1.2831 -0.0597 -1.2537
   68CHL1  H11B 7474   2.890   3.603   9.497  0.6903  1.3054  0.8200
   68CHL1    C9 7475   3.088   3.511   9.532 -0.3408 -0.6358 -0.1552
   68CHL1    H9 7476   3.027   3.419   9.529 -1.3968 -0.0949  2.3211
   68CHL1   C10 7477   3.098   3.541   9.685  0.0910  0.3110 -0.9120
   68CHL1   C19 7478   3.124   3.685   9.711  0.1063  0.3273 -0.3661
   68CHL1  H19A 7479   3.163   3.711   9.812  0.4038  0.6208 -0.5551
   68CHL1  H19B 7480   3.192   3.729   9.635 -0.4944  0.6643 -0.7141
   68CHL1  H19C 7481   3.026   3.735   9.696 -1.1231 -2.0038 -0.5552
   68CHL1    C1 7482   2.964   3.499   9.758  0.7357 -0.5100 -0.3300
   68CHL1   H1A 7483   2.876   3.560   9.729  1.1999  0.9044  1.0852
   68CHL1   H1B 7484   2.933   3.396   9.728  0.4207 -0.0312 -1.7180
   68CHL1    C2 7485   2.974   3.505   9.914  0.0592 -0.1270  0.2836
   68CHL1   H2A 7486   2.888   3.459   9.967 -0.0303 -0.9406 -0.5396
   68CHL1   H2B 7487   3.001   3.604   9.957 -1.3230 -0.0399  0.9953
   68CHL1   C20 7488   3.085   3.546   8.969 -0.1473 -0.3374  0.0254
   68CHL1   H20 7489   2.994   3.608   8.981 -2.2770 -2.7352 -2.2225
   68CHL1   C21 7490   3.036   3.439   8.873  0.5348  0.1165  0.2769
   68CHL1  H21A 7491   2.990   3.360   8.935 -0.4022 -0.9737 -1.7035
   68CHL1  H21B 7492   3.116   3.378   8.826 -1.9204 -1.8749 -1.6199
   68CHL1  H21C 7493   2.972   3.466   8.786  1.0395 -2.4793 -0.9724
   68CHL1   C22 7494   3.198   3.629   8.895  0.7951  0.1362 -0.5794
   68CHL1  H22A 7495   3.249   3.696   8.968  2.4094 -0.2694 -1.3025
   68CHL1  H22B 7496   3.275   3.556   8.863 -1.4025 -2.1869 -0.9221
   68CHL1   C23 7497   3.162   3.705   8.769 -0.3326 -0.8775 -0.5889
   68CHL1  H23A 7498   3.255   3.728   8.713 -1.8438 -1.0017 -3.3507
   68CHL1  H23B 7499   3.116   3.647   8.686  0.6277 -1.6252 -0.6155
   68CHL1   C24 7500   3.088   3.836   8.788 -0.2811 -0.0324  0.0411
   68CHL1  H24A 7501   2.977   3.828   8.788 -0.2218 -1.1775 -1.1773
   68CHL1  H24B 7502   3.124   3.878   8.884  2.6810  0.1481 -1.0292
   68CHL1   C25 7503   3.116   3.946   8.685 -0.3103  0.1606 -0.1425
   68CHL1   H25 7504   3.040   4.024   8.706 -0.5484 -0.0534 -0.1985
   68CHL1   C26 7505   3.264   4.001   8.683 -0.3863 -0.2721 -0.3733
   68CHL1  H26A 7506   3.299   4.017   8.787  1.5608  1.3039 -1.2078
   68CHL1  H26B 7507   3.332   3.924   8.640 -0.6729 -1.0863  0.5902
   68CHL1  H26C 7508   3.271   4.096   8.626 -2.6334 -0.0863 -0.4166
   68CHL1   C27 7509   3.078   3.909   8.542  0.6651 -0.5551  0.2099
   68CHL1  H27A 7510   2.976   3.866   8.545 -0.2611  1.1694 -2.2254
   68CHL1  H27B 7511   3.066   3.985   8.461 -0.7489 -1.2741 -0.2831
   68CHL1  H27C 7512   3.141   3.824   8.508 -0.0217 -2.0630  2.4952
   69CHL1    C3 7513   1.213   6.264   6.887 -0.3517  0.1307 -0.9245
   69CHL1    H3 7514   1.223   6.159   6.853  0.8555  0.0985 -0.5427
   69CHL1    O3 7515   1.236   6.347   6.773  0.0776 -0.0735  0.9677
   69CHL1   H3' 7516   1.187   6.429   6.784 -1.1299 -0.4354 -1.1265
   69CHL1    C4 7517   1.079   6.294   6.951 -0.0753  0.4336 -0.7483
   69CHL1   H4A 7518   1.076   6.397   6.994 -1.3710 -0.9669  2.9280
   69CHL1   H4B 7519   1.010   6.268   6.869 -1.6066 -0.7933  0.8585
   69CHL1    C5 7520   1.062   6.204   7.069 -1.1225 -0.5785 -0.0772
   69CHL1    C6 7521   0.959   6.120   7.087 -0.4591  0.4278  0.3287
   69CHL1    H6 7522   0.881   6.107   7.010  0.5614 -0.6226 -0.5674
   69CHL1    C7 7523   0.933   6.025   7.195  1.0540 -0.1967  0.3429
   69CHL1   H7A 7524   0.825   6.032   7.220  1.0593  2.7362 -0.0739
   69CHL1   H7B 7525   0.953   5.921   7.161  0.7448 -0.4346  0.8798
   69CHL1    C8 7526   1.006   6.066   7.322 -0.6968  0.5021  0.3086
   69CHL1    H8 7527   0.956   6.158   7.356  1.3785  1.3092  1.3528
   69CHL1   C14 7528   1.006   5.959   7.424 -0.1777  0.2309 -0.7412
   69CHL1   H14 7529   1.076   5.879   7.391  2.0498  0.6683  2.4944
   69CHL1   C15 7530   0.873   5.900   7.466  1.0525 -0.0539  0.9407
   69CHL1  H15A 7531   0.801   5.982   7.487  0.6197  0.0492 -0.8052
   69CHL1  H15B 7532   0.830   5.818   7.404  0.5964 -1.4025  2.9514
   69CHL1   C16 7533   0.904   5.838   7.609 -0.1647  0.0115 -0.3577
   69CHL1  H16A 7534   0.824   5.882   7.672 -0.7095 -1.2033 -0.1863
   69CHL1  H16B 7535   0.901   5.727   7.617 -1.1590  0.0335 -0.4114
   69CHL1   C17 7536   1.041   5.893   7.652  0.2730  0.8871  0.5871
   69CHL1   H17 7537   1.109   5.808   7.630 -0.4884  0.6667 -1.0479
   69CHL1   C13 7538   1.075   6.011   7.557  0.7029  0.3734 -0.2081
   69CHL1   C18 7539   1.005   6.141   7.612  0.1020 -0.1983 -0.9228
   69CHL1  H18A 7540   1.021   6.238   7.559  2.5551  0.4422  0.7867
   69CHL1  H18B 7541   0.894   6.134   7.615  0.1280 -0.4649 -0.5752
   69CHL1  H18C 7542   1.039   6.166   7.715  3.6324  0.7306 -2.1595
   69CHL1   C12 7543   1.223   6.038   7.528  0.4098 -0.5462  0.4207
   69CHL1  H12A 7544   1.273   6.070   7.622  0.6143 -1.2112  0.5470
   69CHL1  H12B 7545   1.270   5.945   7.490  3.1310  1.6894 -2.2565
   69CHL1   C11 7546   1.239   6.143   7.419 -0.0673 -0.4734 -0.5415
   69CHL1  H11A 7547   1.207   6.238   7.467 -0.7552 -0.9220 -0.0881
   69CHL1  H11B 7548   1.346   6.148   7.391  0.5227 -2.5932  1.0733
   69CHL1    C9 7549   1.158   6.111   7.290  0.8998  0.2680 -0.5291
   69CHL1    H9 7550   1.203   6.019   7.245 -0.9066 -0.0489 -1.8080
   69CHL1   C10 7551   1.172   6.223   7.179  0.0410  0.5668  0.6562
   69CHL1   C19 7552   1.169   6.358   7.251  0.5575  0.2790  0.1244
   69CHL1  H19A 7553   1.164   6.441   7.177 -3.2881 -2.6420 -3.3519
   69CHL1  H19B 7554   1.081   6.372   7.317  1.5784  1.6317  1.2610
   69CHL1  H19C 7555   1.260   6.373   7.312 -0.2060 -0.8673  1.6153
   69CHL1    C1 7556   1.314   6.213   7.115  0.2492 -0.3605  0.4897
   69CHL1   H1A 7557   1.387   6.253   7.188  1.0449  0.7874 -0.8741
   69CHL1   H1B 7558   1.337   6.108   7.088  1.7792 -0.1955  1.0810
   69CHL1    C2 7559   1.330   6.294   6.986 -0.4040  0.1613 -0.5218
   69CHL1   H2A 7560   1.428   6.268   6.941 -1.3411 -1.0062 -2.0100
   69CHL1   H2B 7561   1.338   6.404   7.001  1.8826  0.3612 -2.5561
   69CHL1   C20 7562   1.048   5.910   7.804  0.0305 -0.3788  0.2785
   69CHL1   H20 7563   0.991   5.997   7.843  0.5552 -0.4926  1.3441
   69CHL1   C21 7564   1.193   5.928   7.849  0.2777  0.4854 -0.8465
   69CHL1  H21A 7565   1.273   5.895   7.778  0.6219  1.3382 -0.8699
   69CHL1  H21B 7566   1.202   5.872   7.944 -2.6775  0.1755 -0.6675
   69CHL1  H21C 7567   1.221   6.031   7.879  3.0298 -0.3451 -0.3098
   69CHL1   C22 7568   0.985   5.792   7.887  0.1985  0.2900  0.2590
   69CHL1  H22A 7569   0.889   5.759   7.842  0.2102  1.3023 -0.5473
   69CHL1  H22B 7570   1.064   5.713   7.886 -1.4901 -1.4709  0.1839
   69CHL1   C23 7571   0.968   5.816   8.037  0.3672  0.2464  0.1213
   69CHL1  H23A 7572   1.067   5.813   8.088  1.7059 -0.9310 -2.3612
   69CHL1  H23B 7573   0.921   5.916   8.049 -0.1302  0.0365 -0.0473
   69CHL1   C24 7574   0.877   5.708   8.098  0.3628  0.4916  0.1887
   69CHL1  H24A 7575   0.902   5.621   8.034  1.1254  1.1331 -0.3999
   69CHL1  H24B 7576   0.908   5.678   8.201  0.6903  1.8340  0.5071
   69CHL1   C25 7577   0.722   5.739   8.107 -0.0263  0.5041  0.3227
   69CHL1   H25 7578   0.699   5.774   8.004 -1.2567 -0.3294  0.3038
   69CHL1   C26 7579   0.656   5.607   8.145  0.1104 -0.0289 -0.0244
   69CHL1  H26A 7580   0.554   5.631   8.183  0.0687  0.7591 -0.5987
   69CHL1  H26B 7581   0.658   5.547   8.052  0.6741  0.1880 -0.1572
   69CHL1  H26C 7582   0.720   5.564   8.224  1.1651  3.7420  1.4103
   69CHL1   C27 7583   0.696   5.846   8.204 -0.3997  0.5242  0.9808
   69CHL1  H27A 7584   0.735   5.833   8.307  1.2325 -0.5627  0.2714
   69CHL1  H27B 7585   0.735   5.940   8.158  0.0052  0.6595  1.5878
   69CHL1  H27C 7586   0.592   5.883   8.216  0.2839  2.4799  1.3613
   70CHL1    C3 7587   6.661   3.868   6.764  0.2786 -0.0260 -0.0789
   70CHL1    H3 7588   6.739   3.789   6.757 -0.7582 -1.1649  0.7643
   70CHL1    O3 7589   6.626   3.911   6.634  0.1454  0.0827 -0.7201
   70CHL1   H3' 7590   6.576   3.836   6.601  1.7274 -1.4789  0.2189
   70CHL1    C4 7591   6.541   3.809   6.835  0.0703 -0.1513  0.4258
   70CHL1   H4A 7592   6.461   3.886   6.835 -0.1094 -0.2646  2.8477
   70CHL1   H4B 7593   6.506   3.722   6.776 -1.8914  1.2076 -0.5453
   70CHL1    C5 7594   6.566   3.780   6.983 -0.0712 -0.3882  0.9954
   70CHL1    C6 7595   6.536   3.661   7.027  0.0918 -0.6840 -0.0523
   70CHL1    H6 7596   6.474   3.596   6.963 -2.5987  0.2475  1.4481
   70CHL1    C7 7597   6.564   3.616   7.166 -0.2409 -0.4748 -0.3282
   70CHL1   H7A 7598   6.476   3.572   7.217 -0.0884  0.8134  1.1459
   70CHL1   H7B 7599   6.645   3.540   7.165  0.0531 -0.1816  0.2980
   70CHL1    C8 7600   6.615   3.728   7.258 -0.1485 -0.0389 -1.0586
   70CHL1    H8 7601   6.531   3.791   7.296  0.3833 -0.0520  0.1880
   70CHL1   C14 7602   6.681   3.684   7.395  0.1499 -0.1227 -0.2081
   70CHL1   H14 7603   6.765   3.619   7.363  1.2874  1.1106  0.2119
   70CHL1   C15 7604   6.606   3.582   7.484 -0.1039  0.5291 -0.1847
   70CHL1  H15A 7605   6.496   3.592   7.469 -0.0839 -0.9503 -1.5876
   70CHL1  H15B 7606   6.624   3.476   7.453 -2.1820  0.7563 -2.4572
   70CHL1   C16 7607   6.658   3.607   7.628 -0.0567 -0.4564 -0.2875
   70CHL1  H16A 7608   6.569   3.627   7.691  0.0465 -0.3052 -0.1883
   70CHL1  H16B 7609   6.703   3.509   7.658 -0.0897 -0.4907 -0.3502
   70CHL1   C17 7610   6.769   3.721   7.614  0.7310  0.2103 -0.2680
   70CHL1   H17 7611   6.869   3.680   7.593  1.5533  2.2950 -0.6368
   70CHL1   C13 7612   6.730   3.794   7.486 -0.5287  0.3269 -0.2282
   70CHL1   C18 7613   6.617   3.897   7.514 -0.6570 -0.4623 -0.9831
   70CHL1  H18A 7614   6.546   3.857   7.589  0.9704  1.2985  1.6627
   70CHL1  H18B 7615   6.654   3.987   7.568  1.2595 -2.8672  2.0218
   70CHL1  H18C 7616   6.573   3.934   7.418  1.1769 -0.1600 -1.7599
   70CHL1   C12 7617   6.846   3.863   7.411 -0.3840  0.0160 -0.3965
   70CHL1  H12A 7618   6.900   3.944   7.465 -0.3785  1.3744 -2.3547
   70CHL1  H12B 7619   6.917   3.783   7.381 -1.8882 -2.3242  1.8491
   70CHL1   C11 7620   6.793   3.925   7.282  0.2729 -0.1289  0.2766
   70CHL1  H11A 7621   6.725   4.010   7.299  1.4091  0.3268  3.1192
   70CHL1  H11B 7622   6.885   3.955   7.227  1.3379 -0.7343  1.6580
   70CHL1    C9 7623   6.713   3.828   7.188 -0.8767 -0.6913 -0.8297
   70CHL1    H9 7624   6.791   3.765   7.139 -0.3936  0.7792 -2.0144
   70CHL1   C10 7625   6.652   3.891   7.062 -0.8555  0.2100 -0.4007
   70CHL1   C19 7626   6.564   4.018   7.104  0.0216  0.0049  0.7836
   70CHL1  H19A 7627   6.511   4.065   7.019  1.4082  0.3410  0.0759
   70CHL1  H19B 7628   6.475   3.992   7.166 -0.9294  0.4263 -0.3564
   70CHL1  H19C 7629   6.625   4.092   7.160 -0.0947  0.4222  0.3602
   70CHL1    C1 7630   6.768   3.943   6.970 -0.1133  0.0471 -0.6289
   70CHL1   H1A 7631   6.813   4.035   7.015 -0.6055  0.3201 -0.6897
   70CHL1   H1B 7632   6.860   3.881   6.973  0.5656  0.9686 -1.3879
   70CHL1    C2 7633   6.724   3.989   6.830  0.0892 -0.5734  0.3642
   70CHL1   H2A 7634   6.806   4.030   6.769 -0.5580  0.0178 -0.1228
   70CHL1   H2B 7635   6.653   4.075   6.829  1.7051  0.7979 -1.4019
   70CHL1   C20 7636   6.759   3.810   7.748 -0.2614 -0.5994  0.0413
   70CHL1   H20 7637   6.659   3.854   7.768 -1.0315 -1.5242 -1.5905
   70CHL1   C21 7638   6.863   3.923   7.757  0.1188 -0.3069  0.4242
   70CHL1  H21A 7639   6.949   3.933   7.688 -0.7752 -1.6425 -0.9321
   70CHL1  H21B 7640   6.920   3.908   7.851 -1.2644  0.1163  1.3698
   70CHL1  H21C 7641   6.808   4.019   7.770  0.0965 -0.2268 -0.2363
   70CHL1   C22 7642   6.785   3.718   7.876 -0.3172  0.0100  0.5294
   70CHL1  H22A 7643   6.716   3.633   7.859 -0.0546  0.1737 -1.7173
   70CHL1  H22B 7644   6.888   3.676   7.875 -1.2895 -2.7915  3.2886
   70CHL1   C23 7645   6.751   3.776   8.014 -0.0015 -0.0839  0.1132
   70CHL1  H23A 7646   6.807   3.871   8.025 -3.1520  1.8933  0.3642
   70CHL1  H23B 7647   6.645   3.810   8.012  0.3631  1.0946 -1.5036
   70CHL1   C24 7648   6.783   3.692   8.127 -0.1218 -0.4163 -0.1974
   70CHL1  H24A 7649   6.722   3.599   8.127 -2.8209  1.1307  3.5827
   70CHL1  H24B 7650   6.889   3.662   8.133 -0.5534 -1.7261  1.5259
   70CHL1   C25 7651   6.758   3.759   8.263  0.1136 -1.1823 -0.0130
   70CHL1   H25 7652   6.653   3.793   8.261  0.3683 -0.3889 -1.8306
   70CHL1   C26 7653   6.783   3.666   8.382  0.0198 -0.2557 -0.7853
   70CHL1  H26A 7654   6.883   3.626   8.356  0.4360  0.1847  0.1271
   70CHL1  H26B 7655   6.786   3.723   8.477 -0.3260 -1.3216 -0.1155
   70CHL1  H26C 7656   6.705   3.586   8.386 -0.1483 -0.0347  0.9823
   70CHL1   C27 7657   6.853   3.886   8.283  1.0936  0.4729  0.3880
   70CHL1  H27A 7658   6.843   3.917   8.389  0.2725  0.2584  0.3792
   70CHL1  H27B 7659   6.957   3.866   8.248  0.6235  0.0849 -0.8656
   70CHL1  H27C 7660   6.802   3.966   8.224  0.2724 -0.8547 -0.7595
   71CHL1    C3 7661   0.422   1.080   6.908 -0.4844 -0.0894 -0.4435
   71CHL1    H3 7662   0.511   1.123   6.959 -0.3391 -0.1031 -0.6851
   71CHL1    O3 7663   0.455   1.066   6.769  0.1780  0.3495 -0.1489
   71CHL1   H3' 7664   0.378   1.037   6.719  0.4947 -0.7131 -0.0580
   71CHL1    C4 7665   0.391   0.948   6.975  0.2918  0.1612 -0.4824
   71CHL1   H4A 7666   0.320   0.896   6.908 -0.6324  0.6644  0.0922
   71CHL1   H4B 7667   0.478   0.879   6.962 -1.1009 -2.0502  1.1869
   71CHL1    C5 7668   0.350   0.963   7.120 -1.5222  0.2931  0.1628
   71CHL1    C6 7669   0.425   0.891   7.207 -0.2806 -1.1247 -0.2241
   71CHL1    H6 7670   0.498   0.824   7.159 -1.1982 -1.1457 -1.6492
   71CHL1    C7 7671   0.402   0.910   7.353 -0.5033  0.3264  0.1750
   71CHL1   H7A 7672   0.398   0.812   7.405  0.5379 -0.1085 -0.5411
   71CHL1   H7B 7673   0.492   0.966   7.387 -0.5650 -0.0627  1.0141
   71CHL1    C8 7674   0.271   0.979   7.390  0.1393 -0.4766 -0.3560
   71CHL1    H8 7675   0.189   0.908   7.367 -1.4231  1.0845  0.1283
   71CHL1   C14 7676   0.275   1.033   7.532 -0.0641  0.0602 -1.1371
   71CHL1   H14 7677   0.335   1.126   7.525  0.2364 -0.0365 -0.0074
   71CHL1   C15 7678   0.335   0.947   7.646  0.1064  0.8214 -0.6187
   71CHL1  H15A 7679   0.311   0.840   7.628  2.1584 -0.3721  2.7398
   71CHL1  H15B 7680   0.444   0.945   7.664  0.1523  0.5266 -0.9269
   71CHL1   C16 7681   0.266   0.999   7.771  0.7048  0.2483 -0.0518
   71CHL1  H16A 7682   0.205   0.916   7.813  1.9892 -0.0272  1.3538
   71CHL1  H16B 7683   0.345   1.011   7.848  1.6517 -1.7674 -0.6234
   71CHL1   C17 7684   0.184   1.130   7.735  0.2450 -0.1795  0.2193
   71CHL1   H17 7685   0.264   1.207   7.741  1.3127 -1.3809  2.2077
   71CHL1   C13 7686   0.151   1.107   7.584 -0.6824 -0.6758  0.2256
   71CHL1   C18 7687   0.039   1.003   7.576  0.1833 -0.1696 -0.7753
   71CHL1  H18A 7688  -0.053   1.055   7.612  0.9587  1.4908 -1.0853
   71CHL1  H18B 7689   0.033   0.969   7.470 -0.9269  0.8444 -1.0767
   71CHL1  H18C 7690   0.057   0.914   7.639  1.1549  0.1272 -0.6214
   71CHL1   C12 7691   0.124   1.224   7.493  0.1227 -0.3753  0.0729
   71CHL1  H12A 7692   0.028   1.275   7.514  0.8761  0.1818  2.4264
   71CHL1  H12B 7693   0.203   1.300   7.513 -0.0827  0.4546 -2.0542
   71CHL1   C11 7694   0.112   1.190   7.341  0.3823 -0.2200 -0.7897
   71CHL1  H11A 7695   0.021   1.125   7.336  0.3977 -0.3382  0.2273
   71CHL1  H11B 7696   0.093   1.278   7.277  0.0006 -0.3346 -0.8362
   71CHL1    C9 7697   0.236   1.098   7.302 -0.5458 -0.0637 -0.1643
   71CHL1    H9 7698   0.320   1.166   7.328  1.1012 -2.2004  0.4002
   71CHL1   C10 7699   0.250   1.066   7.153 -0.5512 -0.0910  0.6586
   71CHL1   C19 7700   0.111   1.005   7.100  0.4170 -0.2178  0.2765
   71CHL1  H19A 7701   0.086   0.933   7.180  0.9305  0.1587  0.7903
   71CHL1  H19B 7702   0.020   1.068   7.096 -1.0860 -2.3460 -0.4719
   71CHL1  H19C 7703   0.113   0.944   7.008  0.6477  0.8183 -0.4228
   71CHL1    C1 7704   0.289   1.203   7.076  0.1484 -0.1519 -0.7469
   71CHL1   H1A 7705   0.208   1.279   7.085  0.2229 -0.1980  0.4384
   71CHL1   H1B 7706   0.383   1.251   7.111 -0.4513 -0.2144  1.0267
   71CHL1    C2 7707   0.307   1.171   6.931  0.0774  0.2759 -0.0068
   71CHL1   H2A 7708   0.343   1.261   6.876  2.7805 -0.9280 -0.3826
   71CHL1   H2B 7709   0.210   1.138   6.890  0.2984 -0.5202  0.1033
   71CHL1   C20 7710   0.073   1.164   7.836 -0.0566 -0.7040  0.0578
   71CHL1   H20 7711  -0.027   1.131   7.802  0.1177 -0.9043 -0.2702
   71CHL1   C21 7712   0.046   1.319   7.820 -0.1989  0.0377  0.1473
   71CHL1  H21A 7713   0.136   1.377   7.851  0.6261 -0.5888 -0.9973
   71CHL1  H21B 7714  -0.044   1.345   7.880  2.2943  0.1238  4.2135
   71CHL1  H21C 7715   0.019   1.344   7.715  0.4660 -0.2978 -0.1119
   71CHL1   C22 7716   0.103   1.130   7.981 -0.5228  0.2711  0.2339
   71CHL1  H22A 7717   0.113   1.020   7.993 -0.7074  0.1271 -0.8476
   71CHL1  H22B 7718   0.202   1.172   8.008  1.3293 -4.4204  1.7645
   71CHL1   C23 7719  -0.004   1.176   8.087 -0.4528  0.3303  0.9110
   71CHL1  H23A 7720  -0.011   1.286   8.100  0.3641  0.3713  1.0766
   71CHL1  H23B 7721  -0.099   1.144   8.039 -0.1089  0.1792  0.3218
   71CHL1   C24 7722   0.014   1.110   8.228 -0.2298 -0.1287  0.3048
   71CHL1  H24A 7723   0.011   1.000   8.214  1.5036 -0.1270 -0.3026
   71CHL1  H24B 7724   0.117   1.136   8.262 -0.1248  0.9602 -0.7708
   71CHL1   C25 7725  -0.077   1.157   8.337 -0.0425 -0.1888 -0.0610
   71CHL1   H25 7726  -0.066   1.263   8.369 -0.1171 -0.4395  0.8278
   71CHL1   C26 7727  -0.230   1.148   8.290  0.6590 -0.2047  0.4552
   71CHL1  H26A 7728  -0.252   1.045   8.257 -1.9271  0.0388  1.1630
   71CHL1  H26B 7729  -0.291   1.174   8.379  2.1645 -0.1919  1.5082
   71CHL1  H26C 7730  -0.241   1.226   8.211  5.2849 -0.8021 -1.0684
   71CHL1   C27 7731  -0.055   1.076   8.469  0.7132  0.6430 -0.0247
   71CHL1  H27A 7732   0.047   1.098   8.507  0.8450  0.0215 -0.0043
   71CHL1  H27B 7733  -0.125   1.108   8.550  0.5372 -1.8101  0.8741
   71CHL1  H27C 7734  -0.072   0.968   8.451 -0.6507  0.4855  1.8795
   72CHL1    C3 7735   5.498   3.977   6.561 -0.1120 -0.8310  0.6871
   72CHL1    H3 7736   5.398   4.021   6.577  0.4282  1.6707 -2.0141
   72CHL1    O3 7737   5.512   3.939   6.425  0.3189  0.9505  0.4502
   72CHL1   H3' 7738   5.471   3.853   6.415 -2.1522  1.5709  3.6662
   72CHL1    C4 7739   5.609   4.088   6.585  0.2795 -0.1711  0.1040
   72CHL1   H4A 7740   5.705   4.059   6.536  0.0311 -1.2846  0.2534
   72CHL1   H4B 7741   5.560   4.174   6.536 -0.2298  1.2106  2.8235
   72CHL1    C5 7742   5.629   4.120   6.732  0.1613  0.4043  0.3650
   72CHL1    C6 7743   5.616   4.249   6.778 -0.5049 -0.0016 -0.1721
   72CHL1    H6 7744   5.604   4.330   6.704  0.2589  0.7648  0.5117
   72CHL1    C7 7745   5.620   4.288   6.922  0.0134  0.0592 -0.4097
   72CHL1   H7A 7746   5.672   4.386   6.930 -3.0104  1.8719 -1.1017
   72CHL1   H7B 7747   5.513   4.313   6.942 -0.0763  0.5015 -1.3898
   72CHL1    C8 7748   5.680   4.175   7.015  0.8808 -0.4204  0.2011
   72CHL1    H8 7749   5.790   4.179   7.000  0.5372  2.0797 -2.5039
   72CHL1   C14 7750   5.656   4.195   7.164 -0.1863 -0.3004  0.1560
   72CHL1   H14 7751   5.546   4.192   7.175 -0.5401 -0.2787 -2.6318
   72CHL1   C15 7752   5.690   4.331   7.215  0.0339  0.3577  0.3592
   72CHL1  H15A 7753   5.784   4.375   7.174  0.7233 -1.1571  0.2289
   72CHL1  H15B 7754   5.611   4.408   7.206 -1.4708 -1.2431 -0.9626
   72CHL1   C16 7755   5.690   4.308   7.373  0.4958  0.1799  0.8143
   72CHL1  H16A 7756   5.778   4.356   7.421  0.3988 -0.3156  1.4880
   72CHL1  H16B 7757   5.595   4.344   7.418 -0.3505  0.3248 -0.9966
   72CHL1   C17 7758   5.690   4.155   7.401 -1.4349 -0.8505  0.5924
   72CHL1   H17 7759   5.585   4.124   7.415 -1.7147 -0.5994 -0.7741
   72CHL1   C13 7760   5.726   4.101   7.260 -0.7412 -0.6934 -0.1092
   72CHL1   C18 7761   5.880   4.116   7.256 -0.2656  0.0169  0.5638
   72CHL1  H18A 7762   5.902   4.225   7.262 -1.0534  0.3439 -1.6512
   72CHL1  H18B 7763   5.945   4.048   7.316  0.4939  1.7858  1.8484
   72CHL1  H18C 7764   5.914   4.099   7.152 -0.2948  0.3950  0.4905
   72CHL1   C12 7765   5.676   3.954   7.226 -0.2120  0.4299  0.1363
   72CHL1  H12A 7766   5.734   3.879   7.284  3.4867  0.8997 -2.5685
   72CHL1  H12B 7767   5.569   3.943   7.252 -0.9284  0.6677 -2.4146
   72CHL1   C11 7768   5.685   3.924   7.074 -0.0305 -0.3591  0.2365
   72CHL1  H11A 7769   5.794   3.915   7.051  0.0627 -0.7497  0.8000
   72CHL1  H11B 7770   5.613   3.841   7.058 -2.8985  1.8802  0.7535
   72CHL1    C9 7771   5.627   4.036   6.976 -0.3853  0.5497 -0.5714
   72CHL1    H9 7772   5.518   4.043   6.994 -0.2197 -1.9685  2.2114
   72CHL1   C10 7773   5.638   4.000   6.823 -0.3022 -0.1483 -0.4421
   72CHL1   C19 7774   5.783   3.949   6.793  0.2919 -0.2224  0.3407
   72CHL1  H19A 7775   5.809   3.861   6.855  0.3358 -0.5828 -0.1788
   72CHL1  H19B 7776   5.779   3.912   6.688 -1.9176  3.0018 -0.9022
   72CHL1  H19C 7777   5.858   4.031   6.796 -0.5131  0.5686 -0.3487
   72CHL1    C1 7778   5.536   3.884   6.799  0.4154 -0.2295 -0.1507
   72CHL1   H1A 7779   5.568   3.794   6.855 -3.7812 -0.4538  2.3276
   72CHL1   H1B 7780   5.435   3.914   6.832  0.1370  1.3500 -2.2274
   72CHL1    C2 7781   5.520   3.856   6.645  0.5602 -0.4073 -0.3957
   72CHL1   H2A 7782   5.452   3.772   6.620 -0.7886 -0.5191  3.0215
   72CHL1   H2B 7783   5.619   3.816   6.615  0.4855 -0.4436 -0.5965
   72CHL1   C20 7784   5.764   4.116   7.534  0.0646  0.3877  0.6119
   72CHL1   H20 7785   5.872   4.130   7.517 -0.0049  0.4851  0.2285
   72CHL1   C21 7786   5.741   3.962   7.540  0.6518  0.4419 -0.2453
   72CHL1  H21A 7787   5.648   3.910   7.509 -0.2596  2.2897 -0.7172
   72CHL1  H21B 7788   5.758   3.933   7.646 -0.1413  3.4886  0.8068
   72CHL1  H21C 7789   5.816   3.920   7.469  0.1560 -1.7389  0.4316
   72CHL1   C22 7790   5.709   4.193   7.660  0.1878  0.3012 -0.9001
   72CHL1  H22A 7791   5.711   4.303   7.642 -0.3773  0.8744  2.0284
   72CHL1  H22B 7792   5.606   4.160   7.685  0.9229 -0.4375  1.3312
   72CHL1   C23 7793   5.787   4.171   7.794  0.6906 -0.0122  0.4060
   72CHL1  H23A 7794   5.807   4.064   7.813  2.6195  0.1869 -0.2483
   72CHL1  H23B 7795   5.887   4.220   7.795  1.0285 -0.6908  0.1980
   72CHL1   C24 7796   5.705   4.231   7.911 -0.4053  0.6743  0.2170
   72CHL1  H24A 7797   5.710   4.342   7.915  0.5971  0.6571 -0.3448
   72CHL1  H24B 7798   5.603   4.188   7.910  0.4159 -1.3984 -1.2307
   72CHL1   C25 7799   5.780   4.183   8.042  0.4126  0.2889  0.1231
   72CHL1   H25 7800   5.789   4.074   8.023 -3.7807 -0.0280 -1.1846
   72CHL1   C26 7801   5.906   4.257   8.068 -1.0720 -0.6097  0.0180
   72CHL1  H26A 7802   5.994   4.251   8.000  0.3938 -2.0304  1.9284
   72CHL1  H26B 7803   5.889   4.364   8.094  1.5832 -0.2701  0.6782
   72CHL1  H26C 7804   5.951   4.218   8.162  2.9239  0.0803 -1.4373
   72CHL1   C27 7805   5.688   4.210   8.166  0.2773  0.6139  0.0797
   72CHL1  H27A 7806   5.734   4.189   8.265  0.7938  2.2082  0.2026
   72CHL1  H27B 7807   5.660   4.317   8.170  1.1444  0.8537 -0.0927
   72CHL1  H27C 7808   5.598   4.146   8.149  0.7809 -0.1441  0.2176
   73CHL1    C3 7809   5.336   2.757  10.203  0.4773  1.3497 -0.9379
   73CHL1    H3 7810   5.257   2.824  10.165 -1.6553  0.7165  2.0562
   73CHL1    O3 7811   5.354   2.769  10.343  0.4163 -0.3298  0.2338
   73CHL1   H3' 7812   5.425   2.832  10.357  1.0146 -1.3064  1.9356
   73CHL1    C4 7813   5.312   2.611  10.171  0.1767  0.9748 -0.2462
   73CHL1   H4A 7814   5.395   2.546  10.207  0.5913  1.9395  0.5698
   73CHL1   H4B 7815   5.216   2.578  10.216 -0.4491  1.5050 -1.1527
   73CHL1    C5 7816   5.298   2.597  10.017 -0.6877  0.1206 -0.1913
   73CHL1    C6 7817   5.194   2.547   9.946  0.1264  0.4182 -0.5832
   73CHL1    H6 7818   5.103   2.506   9.991 -0.1097  1.7133  0.1565
   73CHL1    C7 7819   5.188   2.533   9.801  0.5409  0.2245  0.7372
   73CHL1   H7A 7820   5.140   2.437   9.773 -0.2204  0.3586  1.5553
   73CHL1   H7B 7821   5.115   2.606   9.762 -1.7225 -2.5534 -0.5694
   73CHL1    C8 7822   5.328   2.549   9.723 -0.0130 -0.2937 -0.4550
   73CHL1    H8 7823   5.384   2.453   9.735  0.4880 -0.0327 -0.6453
   73CHL1   C14 7824   5.315   2.562   9.576  0.3049  0.3837  0.6368
   73CHL1   H14 7825   5.266   2.662   9.572 -0.2156  0.3424  3.6172
   73CHL1   C15 7826   5.230   2.467   9.502  0.4602 -0.6070  0.3528
   73CHL1  H15A 7827   5.250   2.363   9.537  0.9093  0.4890  3.6472
   73CHL1  H15B 7828   5.119   2.477   9.509  0.4102 -1.2923  0.7020
   73CHL1   C16 7829   5.278   2.491   9.355  0.1947 -0.6007  0.2162
   73CHL1  H16A 7830   5.293   2.392   9.308 -1.7459 -1.7246  1.7721
   73CHL1  H16B 7831   5.203   2.542   9.290  0.7018 -0.5639 -0.3427
   73CHL1   C17 7832   5.403   2.581   9.354 -0.1161 -1.1288  0.1736
   73CHL1   H17 7833   5.359   2.682   9.337 -2.1804 -2.1302 -0.8135
   73CHL1   C13 7834   5.453   2.576   9.505  0.1036  0.6473 -0.5206
   73CHL1   C18 7835   5.545   2.453   9.520  0.5359  0.0752  0.6291
   73CHL1  H18A 7836   5.491   2.362   9.488 -1.0854  0.6661  1.5741
   73CHL1  H18B 7837   5.636   2.461   9.457 -0.0834 -0.3061 -0.3347
   73CHL1  H18C 7838   5.578   2.442   9.626  0.3830 -1.6963  0.5197
   73CHL1   C12 7839   5.527   2.697   9.560  0.1012 -0.2637 -0.2524
   73CHL1  H12A 7840   5.630   2.712   9.521 -0.0617  0.6242 -0.3459
   73CHL1  H12B 7841   5.462   2.780   9.527  0.0092  0.2503  1.1670
   73CHL1   C11 7842   5.540   2.701   9.709  0.0340  0.0794 -0.2801
   73CHL1  H11A 7843   5.602   2.613   9.739  0.2824 -0.2312 -1.6260
   73CHL1  H11B 7844   5.576   2.800   9.744 -1.7601  0.1594  1.4781
   73CHL1    C9 7845   5.411   2.665   9.785 -0.1030  0.3593 -0.3468
   73CHL1    H9 7846   5.346   2.753   9.770 -0.3365  0.3513  0.5769
   73CHL1   C10 7847   5.430   2.651   9.936 -0.3542  0.6443 -0.0463
   73CHL1   C19 7848   5.540   2.547   9.973 -0.2526 -0.5434  0.2475
   73CHL1  H19A 7849   5.640   2.590   9.948 -0.0140 -0.2453  1.6469
   73CHL1  H19B 7850   5.556   2.510  10.077 -0.6536  0.4178  0.6602
   73CHL1  H19C 7851   5.538   2.458   9.907 -1.6878  1.1591 -2.1441
   73CHL1    C1 7852   5.471   2.786   9.997 -0.0210 -0.5145  0.7551
   73CHL1   H1A 7853   5.575   2.815   9.973 -0.4434 -0.3122 -0.9902
   73CHL1   H1B 7854   5.406   2.860   9.944  0.5034 -0.2698  0.4489
   73CHL1    C2 7855   5.466   2.803  10.146  0.3390  0.1854 -0.1083
   73CHL1   H2A 7856   5.497   2.905  10.177  1.4617 -0.1434 -0.0866
   73CHL1   H2B 7857   5.543   2.733  10.184  0.1363  0.2173  0.3624
   73CHL1   C20 7858   5.501   2.572   9.232 -0.5604  0.5631  0.2208
   73CHL1   H20 7859   5.549   2.472   9.222 -1.9162  0.0292 -1.4386
   73CHL1   C21 7860   5.617   2.669   9.252 -0.4726 -0.1710 -0.0594
   73CHL1  H21A 7861   5.673   2.679   9.157  1.1684  1.0136  0.9925
   73CHL1  H21B 7862   5.686   2.629   9.329 -0.2344 -0.6287 -0.4968
   73CHL1  H21C 7863   5.568   2.766   9.274 -0.9214  0.2741 -2.7320
   73CHL1   C22 7864   5.435   2.593   9.091 -0.2013  0.4613 -0.7607
   73CHL1  H22A 7865   5.328   2.568   9.103  0.2395 -0.3207  2.1334
   73CHL1  H22B 7866   5.446   2.698   9.056 -0.9349  1.0091  0.5955
   73CHL1   C23 7867   5.488   2.500   8.978 -0.1446 -0.6046  0.0462
   73CHL1  H23A 7868   5.590   2.523   8.940  0.1397 -2.8795 -0.7319
   73CHL1  H23B 7869   5.504   2.396   9.014 -1.8068 -0.5729  0.9738
   73CHL1   C24 7870   5.400   2.512   8.850 -0.0322 -0.4716  0.2730
   73CHL1  H24A 7871   5.302   2.462   8.870  0.8658 -2.1974  0.6006
   73CHL1  H24B 7872   5.376   2.617   8.825 -0.1168 -0.7523 -0.8714
   73CHL1   C25 7873   5.463   2.452   8.725 -0.6477  0.0559  0.9181
   73CHL1   H25 7874   5.554   2.510   8.698  0.0106 -0.8123  1.2595
   73CHL1   C26 7875   5.506   2.310   8.750  0.1667  0.4921  0.3490
   73CHL1  H26A 7876   5.600   2.320   8.808  0.2367  1.1498  0.1308
   73CHL1  H26B 7877   5.429   2.267   8.818 -1.9726 -1.0408 -2.7959
   73CHL1  H26C 7878   5.520   2.249   8.658  1.4196  0.7701  0.3344
   73CHL1   C27 7879   5.360   2.450   8.614  0.5312 -0.5902  0.0848
   73CHL1  H27A 7880   5.405   2.419   8.518 -0.1669 -1.3912  0.0055
   73CHL1  H27B 7881   5.272   2.389   8.645 -0.5107  0.5251 -0.6201
   73CHL1  H27C 7882   5.317   2.551   8.597  0.2618 -0.4262  1.5314
   74CHL1    C3 7883   0.916   0.908   6.957 -0.4819 -0.1469  0.1747
   74CHL1    H3 7884   1.015   0.948   6.925  2.0626 -3.3427  3.1968
   74CHL1    O3 7885   0.837   0.884   6.849  0.2559 -0.0512 -0.0314
   74CHL1   H3' 7886   0.845   0.792   6.823 -1.0237 -0.1293 -0.2244
   74CHL1    C4 7887   0.946   0.780   7.031  0.0320  0.5173 -0.7020
   74CHL1   H4A 7888   0.859   0.711   7.034  0.8537 -0.5758 -1.3787
   74CHL1   H4B 7889   1.015   0.719   6.969  0.2518 -0.1225  0.1397
   74CHL1    C5 7890   1.000   0.789   7.173 -0.3203 -0.5344  0.7662
   74CHL1    C6 7891   1.116   0.728   7.208 -0.3868 -0.1436  0.1128
   74CHL1    H6 7892   1.166   0.667   7.130  0.3768  1.9758 -1.1316
   74CHL1    C7 7893   1.166   0.732   7.340 -0.1855 -0.5138 -0.6072
   74CHL1   H7A 7894   1.209   0.634   7.371  0.8712 -0.0147 -0.4167
   74CHL1   H7B 7895   1.247   0.802   7.374 -0.6941 -0.4626  0.5582
   74CHL1    C8 7896   1.047   0.767   7.445 -0.0670  0.9756  0.3925
   74CHL1    H8 7897   0.963   0.695   7.442 -0.5473  1.4968  0.9707
   74CHL1   C14 7898   1.104   0.776   7.586  0.8955 -0.2315 -0.4867
   74CHL1   H14 7899   1.176   0.861   7.580 -1.3102  1.9524  1.6275
   74CHL1   C15 7900   1.186   0.657   7.647  0.0307 -0.2548  0.1037
   74CHL1  H15A 7901   1.139   0.557   7.655  1.8786 -1.0856  1.1463
   74CHL1  H15B 7902   1.282   0.639   7.594  0.0856  2.0211 -0.7071
   74CHL1   C16 7903   1.217   0.709   7.793 -0.1923 -0.2746 -0.0834
   74CHL1  H16A 7904   1.183   0.636   7.869 -1.3109  0.5471  0.2273
   74CHL1  H16B 7905   1.326   0.732   7.798 -0.0554 -0.6751 -1.1127
   74CHL1   C17 7906   1.131   0.841   7.809 -0.1896  1.7617 -0.2968
   74CHL1   H17 7907   1.195   0.931   7.798  1.6569  0.5994  0.6019
   74CHL1   C13 7908   1.019   0.836   7.697  0.6203 -1.0434 -0.3931
   74CHL1   C18 7909   0.911   0.724   7.728 -0.5089  0.0123 -0.4388
   74CHL1  H18A 7910   0.945   0.634   7.782  0.7284  1.2712  0.9735
   74CHL1  H18B 7911   0.826   0.754   7.794  0.2872 -2.2058  1.7077
   74CHL1  H18C 7912   0.863   0.687   7.635  3.3171 -1.8213 -1.8627
   74CHL1   C12 7913   0.967   0.979   7.641  0.1377 -0.1538 -0.4649
   74CHL1  H12A 7914   0.906   1.029   7.720 -0.2691 -0.6132 -0.4826
   74CHL1  H12B 7915   1.054   1.045   7.622 -0.5368  0.8571 -0.1836
   74CHL1   C11 7916   0.886   0.953   7.509 -0.1984 -0.3031  0.3503
   74CHL1  H11A 7917   0.812   0.875   7.536  1.1779 -1.3770  1.1715
   74CHL1  H11B 7918   0.839   1.050   7.482  0.9206  0.2183  0.1970
   74CHL1    C9 7919   0.979   0.899   7.398  1.1574  0.2294 -0.2338
   74CHL1    H9 7920   1.060   0.974   7.388  0.5073  0.8844 -0.7137
   74CHL1   C10 7921   0.910   0.881   7.259 -0.0821  0.7069 -0.6873
   74CHL1   C19 7922   0.765   0.822   7.279  0.2086 -0.1074  0.6101
   74CHL1  H19A 7923   0.776   0.729   7.338 -1.7312 -1.3742 -0.9074
   74CHL1  H19B 7924   0.692   0.891   7.327 -0.5232  0.1988 -0.8870
   74CHL1  H19C 7925   0.711   0.799   7.185  0.3247  0.6169  0.3552
   74CHL1    C1 7926   0.909   1.015   7.182  0.0078  0.4698 -0.4198
   74CHL1   H1A 7927   0.851   1.080   7.250  0.0383  0.7289 -0.6416
   74CHL1   H1B 7928   1.011   1.058   7.170 -0.2245  0.4278 -3.0727
   74CHL1    C2 7929   0.841   1.009   7.046 -0.3362  0.2054 -0.1624
   74CHL1   H2A 7930   0.835   1.107   6.996 -3.2066 -0.4336 -1.2830
   74CHL1   H2B 7931   0.736   0.972   7.056 -0.3467 -0.1609 -1.4141
   74CHL1   C20 7932   1.079   0.845   7.956  0.2371  0.6156  0.3284
   74CHL1   H20 7933   1.016   0.755   7.976  1.0664 -0.6412 -2.2673
   74CHL1   C21 7934   1.000   0.978   7.969  0.3324  0.0994  0.2542
   74CHL1  H21A 7935   1.056   1.063   7.924 -0.0064  0.3415  0.2860
   74CHL1  H21B 7936   0.992   0.992   8.079  2.8615 -3.2992  1.0372
   74CHL1  H21C 7937   0.904   0.973   7.913  1.5945  0.4246 -2.0406
   74CHL1   C22 7938   1.192   0.830   8.063 -0.1979  0.4213 -0.2384
   74CHL1  H22A 7939   1.155   0.827   8.168  0.8159  1.8606  0.1935
   74CHL1  H22B 7940   1.223   0.723   8.054  0.2451  0.0879  3.6470
   74CHL1   C23 7941   1.311   0.923   8.057 -0.1181  0.0864  0.4998
   74CHL1  H23A 7942   1.363   0.928   7.958 -0.7115 -4.0730 -0.2069
   74CHL1  H23B 7943   1.262   1.020   8.075 -0.6087 -0.1620  0.5210
   74CHL1   C24 7944   1.425   0.893   8.162 -0.0329  0.4015 -0.4750
   74CHL1  H24A 7945   1.449   0.785   8.164 -0.5698  0.2857  0.3805
   74CHL1  H24B 7946   1.509   0.963   8.142  1.0425  0.7545  4.1673
   74CHL1   C25 7947   1.394   0.929   8.313  0.4052  0.2570  0.0247
   74CHL1   H25 7948   1.311   0.871   8.358 -1.5634  3.8603  1.4918
   74CHL1   C26 7949   1.526   0.900   8.399  0.6052 -0.0110 -0.3598
   74CHL1  H26A 7950   1.547   0.793   8.378  1.0563  0.4895 -2.7985
   74CHL1  H26B 7951   1.614   0.964   8.377  2.9102 -2.2389  1.7495
   74CHL1  H26C 7952   1.484   0.916   8.500 -2.8943  0.9095 -1.8141
   74CHL1   C27 7953   1.368   1.075   8.325 -0.6749 -0.6810 -0.1605
   74CHL1  H27A 7954   1.310   1.119   8.241  0.2239  0.0821 -0.4027
   74CHL1  H27B 7955   1.311   1.103   8.417  1.5607 -0.5828  1.2532
   74CHL1  H27C 7956   1.461   1.135   8.331 -0.7067 -0.7538  2.4363
   75CHL1    C3 7957   3.049   0.469   6.670 -0.7258  0.0443  0.1061
   75CHL1    H3 7958   3.137   0.439   6.730 -0.2602  0.1222 -0.5207
   75CHL1    O3 7959   3.077   0.456   6.533 -0.3098 -0.1435 -0.3290
   75CHL1   H3' 7960   3.137   0.528   6.512  1.2815 -2.0253 -2.7609
   75CHL1    C4 7961   2.918   0.397   6.702 -0.8650  0.1471  0.1324
   75CHL1   H4A 7962   2.832   0.430   6.641 -1.8581 -2.2246  0.1322
   75CHL1   H4B 7963   2.922   0.288   6.681 -0.2817  0.1001  0.4437
   75CHL1    C5 7964   2.893   0.409   6.853  0.6988 -0.0393  0.7934
   75CHL1    C6 7965   2.908   0.302   6.943 -1.1368 -0.1308 -0.5776
   75CHL1    H6 7966   2.946   0.205   6.908 -2.0221 -0.0858 -1.7044
   75CHL1    C7 7967   2.885   0.309   7.094  0.2058 -0.2053 -0.4740
   75CHL1   H7A 7968   2.844   0.211   7.126  1.2344 -0.2988  0.6256
   75CHL1   H7B 7969   2.977   0.334   7.151 -1.1327  2.8296  0.5800
   75CHL1    C8 7970   2.790   0.432   7.124 -0.2204  0.4306  1.0092
   75CHL1    H8 7971   2.689   0.408   7.085 -0.0567  2.2940 -0.7117
   75CHL1   C14 7972   2.783   0.453   7.277 -0.4755  0.4699 -0.0673
   75CHL1   H14 7973   2.884   0.490   7.306 -0.1152 -1.8508  1.9714
   75CHL1   C15 7974   2.744   0.331   7.360 -0.5656  0.3455  0.2102
   75CHL1  H15A 7975   2.664   0.277   7.305 -0.0203  1.5305 -1.8634
   75CHL1  H15B 7976   2.825   0.257   7.375 -0.1746  0.9063  0.8834
   75CHL1   C16 7977   2.709   0.388   7.496 -0.6300  0.0231  0.1198
   75CHL1  H16A 7978   2.617   0.340   7.534  0.0667 -2.8506 -1.5277
   75CHL1  H16B 7979   2.794   0.370   7.567 -0.7351  0.2029  0.2920
   75CHL1   C17 7980   2.705   0.550   7.473 -0.1340 -0.1577  0.2247
   75CHL1   H17 7981   2.809   0.585   7.488 -0.1615  0.3745 -0.7381
   75CHL1   C13 7982   2.688   0.564   7.324  0.0850  0.1714  0.2641
   75CHL1   C18 7983   2.534   0.545   7.299  0.2307  0.3130 -0.8592
   75CHL1  H18A 7984   2.472   0.637   7.304  0.8365  0.9420 -3.4576
   75CHL1  H18B 7985   2.500   0.516   7.197 -1.8473  1.9858 -0.7104
   75CHL1  H18C 7986   2.496   0.463   7.363 -0.8616  0.9549 -0.6586
   75CHL1   C12 7987   2.743   0.692   7.254  0.0154 -0.3137  0.5607
   75CHL1  H12A 7988   2.691   0.782   7.294  0.3185  0.7643 -1.3387
   75CHL1  H12B 7989   2.843   0.716   7.294  1.1751  1.3422 -2.9657
   75CHL1   C11 7990   2.746   0.677   7.105  0.3953 -0.4094 -0.4301
   75CHL1  H11A 7991   2.638   0.667   7.079 -0.0297  1.6795  0.2933
   75CHL1  H11B 7992   2.795   0.767   7.061 -0.6084  1.3676  1.8515
   75CHL1    C9 7993   2.836   0.559   7.055 -0.1065  0.1977  0.0593
   75CHL1    H9 7994   2.937   0.582   7.094 -0.8847  0.2461  2.1481
   75CHL1   C10 7995   2.858   0.549   6.895  0.6205 -0.9091  0.2087
   75CHL1   C19 7996   2.717   0.583   6.839 -0.6520  0.2283  0.0097
   75CHL1  H19A 7997   2.649   0.501   6.868 -1.5717  0.6331 -0.9352
   75CHL1  H19B 7998   2.673   0.683   6.861 -4.0299 -1.1655  0.1460
   75CHL1  H19C 7999   2.719   0.581   6.728 -0.3555 -0.5235  0.0194
   75CHL1    C1 8000   2.967   0.644   6.839  0.2011  0.6262  0.1013
   75CHL1   H1A 8001   2.918   0.744   6.836  0.5482  0.8129  0.6539
   75CHL1   H1B 8002   3.057   0.630   6.902  0.3502  0.5139 -0.1343
   75CHL1    C2 8003   3.022   0.617   6.698  0.6986 -0.3306  0.4524
   75CHL1   H2A 8004   3.110   0.683   6.681 -0.1585  0.8781  0.6089
   75CHL1   H2B 8005   2.940   0.650   6.631  1.3932  0.4164 -0.0430
   75CHL1   C20 8006   2.615   0.624   7.571 -0.2679  0.0477  0.6973
   75CHL1   H20 8007   2.513   0.592   7.544 -1.1407  0.7682  2.9150
   75CHL1   C21 8008   2.619   0.780   7.552 -0.5065 -0.2846  0.0990
   75CHL1  H21A 8009   2.585   0.841   7.638  0.0521 -0.8196  0.7070
   75CHL1  H21B 8010   2.561   0.806   7.460 -0.3007  0.0459  0.0629
   75CHL1  H21C 8011   2.723   0.814   7.538 -1.6056  2.9925 -1.0511
   75CHL1   C22 8012   2.640   0.586   7.717 -0.5988 -0.1629 -0.4519
   75CHL1  H22A 8013   2.564   0.629   7.785  1.8017  0.7551  1.8505
   75CHL1  H22B 8014   2.621   0.479   7.735 -0.1913 -0.2722 -0.6460
   75CHL1   C23 8015   2.782   0.617   7.775 -0.6093  0.5117  0.1725
   75CHL1  H23A 8016   2.849   0.529   7.767 -0.3706  0.6342  0.7165
   75CHL1  H23B 8017   2.835   0.695   7.717  1.8276  0.9342  2.7350
   75CHL1   C24 8018   2.781   0.651   7.930  0.3475  0.1216  0.5589
   75CHL1  H24A 8019   2.725   0.747   7.922  1.5853  0.8348  0.2477
   75CHL1  H24B 8020   2.727   0.573   7.989  1.2018 -0.2415  0.8751
   75CHL1   C25 8021   2.921   0.670   7.994  0.6316 -0.7800  0.2593
   75CHL1   H25 8022   2.956   0.753   7.929 -2.0417 -1.5129 -2.3513
   75CHL1   C26 8023   2.891   0.731   8.132 -0.2039  0.4029 -0.2592
   75CHL1  H26A 8024   2.981   0.769   8.185  0.7275  0.8196 -2.0481
   75CHL1  H26B 8025   2.811   0.808   8.137 -2.0850 -1.5906  2.7079
   75CHL1  H26C 8026   2.869   0.646   8.200 -0.3087  1.1686  0.6860
   75CHL1   C27 8027   3.010   0.551   8.006 -0.8658  0.0925  0.0848
   75CHL1  H27A 8028   2.980   0.469   8.075 -0.0230 -0.3651 -0.0765
   75CHL1  H27B 8029   3.020   0.514   7.902 -0.7995 -0.2340  0.2065
   75CHL1  H27C 8030   3.111   0.572   8.047 -0.9528 -0.6948  0.7232
   76CHL1    C3 8031   6.240   3.133   6.985  0.0249 -0.2426  0.3037
   76CHL1    H3 8032   6.255   3.025   7.004 -0.8984 -0.4025  0.1833
   76CHL1    O3 8033   6.209   3.145   6.850 -0.2816 -0.5002  0.2654
   76CHL1   H3' 8034   6.119   3.175   6.835  0.5893  2.2853 -0.0049
   76CHL1    C4 8035   6.133   3.191   7.076  1.0614  0.1294 -0.6360
   76CHL1   H4A 8036   6.124   3.298   7.046 -0.6001  0.4873  0.9400
   76CHL1   H4B 8037   6.035   3.146   7.052  0.6081  1.3916 -1.2376
   76CHL1    C5 8038   6.165   3.176   7.224 -1.4025  0.2085 -0.0570
   76CHL1    C6 8039   6.089   3.114   7.313 -0.6994 -0.4717 -1.2467
   76CHL1    H6 8040   5.987   3.082   7.286 -1.6798  0.8352  0.6437
   76CHL1    C7 8041   6.116   3.097   7.459  0.6657 -0.2172 -0.4248
   76CHL1   H7A 8042   6.026   3.121   7.520  1.3982  0.3110  0.4792
   76CHL1   H7B 8043   6.140   2.989   7.468 -0.0313 -0.2740  1.3992
   76CHL1    C8 8044   6.236   3.186   7.511  0.1437  0.5756 -0.3588
   76CHL1    H8 8045   6.201   3.291   7.518 -0.4235  0.4745 -1.4486
   76CHL1   C14 8046   6.282   3.148   7.652  0.1150  1.0834  0.3647
   76CHL1   H14 8047   6.301   3.039   7.643  0.8693  1.0869  1.5723
   76CHL1   C15 8048   6.190   3.149   7.774  0.2320  0.3335  0.7882
   76CHL1  H15A 8049   6.135   3.246   7.785  0.7364  0.9926 -1.8061
   76CHL1  H15B 8050   6.106   3.076   7.768 -0.0914  0.6613  1.2316
   76CHL1   C16 8051   6.282   3.131   7.888  0.0265 -0.1375  0.1143
   76CHL1  H16A 8052   6.239   3.179   7.979 -0.0654  1.2413 -0.6283
   76CHL1  H16B 8053   6.279   3.023   7.915  0.7998 -0.3151 -0.4526
   76CHL1   C17 8054   6.432   3.158   7.842  0.7827  0.6128 -0.2885
   76CHL1   H17 8055   6.479   3.057   7.831 -0.0249  0.3593 -1.6069
   76CHL1   C13 8056   6.415   3.214   7.697 -0.0792 -0.1789 -0.0981
   76CHL1   C18 8057   6.376   3.361   7.720  0.0436 -0.3963  0.0817
   76CHL1  H18A 8058   6.332   3.402   7.626  0.1810 -2.8085 -1.1194
   76CHL1  H18B 8059   6.301   3.382   7.799 -1.2835  1.8557 -1.6435
   76CHL1  H18C 8060   6.462   3.428   7.742 -1.7320  1.8740  0.5797
   76CHL1   C12 8061   6.521   3.184   7.603 -0.2899 -0.0577 -0.3975
   76CHL1  H12A 8062   6.615   3.243   7.617  0.3544 -1.3413  0.9549
   76CHL1  H12B 8063   6.546   3.077   7.614 -2.2182 -0.5117 -0.1106
   76CHL1   C11 8064   6.478   3.232   7.456 -0.3227  0.4122  0.7133
   76CHL1  H11A 8065   6.467   3.342   7.447 -2.8529  0.0377 -3.0752
   76CHL1  H11B 8066   6.559   3.191   7.393 -2.6189 -0.7471 -1.6466
   76CHL1    C9 8067   6.346   3.182   7.406  0.0858  1.1668  0.2409
   76CHL1    H9 8068   6.362   3.072   7.413 -1.6838  0.9630  1.7984
   76CHL1   C10 8069   6.303   3.233   7.267 -0.2066 -0.4083  0.5299
   76CHL1   C19 8070   6.273   3.388   7.269  0.0240 -0.3775  0.1061
   76CHL1  H19A 8071   6.364   3.448   7.290 -0.9203  1.7932 -1.6811
   76CHL1  H19B 8072   6.243   3.437   7.174  2.7081  0.0892 -0.5883
   76CHL1  H19C 8073   6.188   3.412   7.336  0.8794  0.8543  0.7826
   76CHL1    C1 8074   6.417   3.217   7.159 -0.0431  0.4657 -0.5159
   76CHL1   H1A 8075   6.494   3.294   7.175  1.2322 -0.7586 -0.5839
   76CHL1   H1B 8076   6.472   3.125   7.190  0.1790  1.1543  1.2230
   76CHL1    C2 8077   6.376   3.208   7.008  1.0061  0.2872 -0.1905
   76CHL1   H2A 8078   6.462   3.160   6.956  0.2746 -2.0217  0.6042
   76CHL1   H2B 8079   6.357   3.312   6.974 -3.3774  0.4673  2.0345
   76CHL1   C20 8080   6.515   3.232   7.948 -0.5024 -0.4806 -0.1756
   76CHL1   H20 8081   6.472   3.334   7.951  2.5209  0.9083  1.0570
   76CHL1   C21 8082   6.667   3.230   7.901  0.2339  0.2482 -0.8903
   76CHL1  H21A 8083   6.697   3.133   7.856  0.1025 -0.1804 -0.0776
   76CHL1  H21B 8084   6.731   3.231   7.992  0.1703  0.4829 -0.8470
   76CHL1  H21C 8085   6.708   3.302   7.827  3.3107  0.9781  1.3250
   76CHL1   C22 8086   6.488   3.172   8.095  0.6348 -0.5030 -0.2696
   76CHL1  H22A 8087   6.545   3.226   8.173 -0.6902  2.1054 -0.9622
   76CHL1  H22B 8088   6.381   3.188   8.123  0.8262  1.2289 -0.3810
   76CHL1   C23 8089   6.520   3.017   8.108 -0.0656 -0.1683 -0.0591
   76CHL1  H23A 8090   6.442   2.955   8.059  0.1030  2.1820 -3.7119
   76CHL1  H23B 8091   6.614   2.995   8.052 -0.6031 -1.8170 -0.3830
   76CHL1   C24 8092   6.538   2.986   8.261 -0.2182 -0.0895  1.0998
   76CHL1  H24A 8093   6.621   3.046   8.302 -0.8901 -0.3267  2.8771
   76CHL1  H24B 8094   6.447   3.027   8.309 -1.0043  0.4735 -0.7683
   76CHL1   C25 8095   6.561   2.835   8.297 -0.1989 -0.4686  0.0718
   76CHL1   H25 8096   6.477   2.785   8.246 -1.8953  2.0599  0.2297
   76CHL1   C26 8097   6.687   2.784   8.233 -0.1976  0.0629 -0.1835
   76CHL1  H26A 8098   6.696   2.676   8.255  0.1547  0.2237  0.4970
   76CHL1  H26B 8099   6.676   2.802   8.124 -0.1209  0.3450 -0.1448
   76CHL1  H26C 8100   6.776   2.826   8.285 -0.8644 -0.8388  1.7737
   76CHL1   C27 8101   6.574   2.791   8.451  0.1271 -0.0420  0.0352
   76CHL1  H27A 8102   6.682   2.803   8.476  0.2985 -0.4332 -0.4883
   76CHL1  H27B 8103   6.510   2.854   8.516 -0.2070 -2.0195  1.6947
   76CHL1  H27C 8104   6.550   2.686   8.475 -0.0812  0.1332  0.6064
   77CHL1    C3 8105   6.685   2.162   6.938 -0.4586  0.5687 -0.3032
   77CHL1    H3 8106   6.583   2.123   6.919  0.0406 -0.4602 -0.9454
   77CHL1    O3 8107   6.731   2.197   6.808 -0.2812 -0.7523 -0.2363
   77CHL1   H3' 8108   6.813   2.242   6.830 -1.7291  2.4334 -0.8690
   77CHL1    C4 8109   6.683   2.288   7.030  0.0480 -0.7569  0.6476
   77CHL1   H4A 8110   6.766   2.362   7.026 -0.2442 -0.4698 -0.5088
   77CHL1   H4B 8111   6.601   2.350   6.989  0.1671  1.1338  3.0634
   77CHL1    C5 8112   6.658   2.254   7.173 -0.1725  0.4487  0.2022
   77CHL1    C6 8113   6.551   2.307   7.246  0.1504  0.7410  0.0787
   77CHL1    H6 8114   6.494   2.391   7.204  1.5297  0.2327 -3.1040
   77CHL1    C7 8115   6.518   2.272   7.392 -0.4089 -0.1646  0.2081
   77CHL1   H7A 8116   6.508   2.374   7.434  1.5048  0.5979 -1.0162
   77CHL1   H7B 8117   6.431   2.204   7.401 -0.2620 -0.2942  0.6367
   77CHL1    C8 8118   6.642   2.195   7.461  0.4334  0.6817 -0.4361
   77CHL1    H8 8119   6.724   2.270   7.469  1.3679 -0.3075 -0.5033
   77CHL1   C14 8120   6.613   2.137   7.594  0.1420 -0.1492  0.1201
   77CHL1   H14 8121   6.528   2.068   7.575  0.0011 -0.2157  0.9597
   77CHL1   C15 8122   6.560   2.234   7.708  0.2093 -0.0416  0.0041
   77CHL1  H15A 8123   6.637   2.314   7.719  0.0519 -0.0318  1.1556
   77CHL1  H15B 8124   6.459   2.274   7.682 -0.1888 -1.8453 -1.4220
   77CHL1   C16 8125   6.570   2.150   7.831  0.3814  0.7709  0.1975
   77CHL1  H16A 8126   6.631   2.199   7.910  0.8167  1.6360 -0.6478
   77CHL1  H16B 8127   6.466   2.123   7.859  0.0776 -0.9155 -2.2797
   77CHL1   C17 8128   6.639   2.011   7.791  0.0969  0.7365  0.3200
   77CHL1   H17 8129   6.558   1.936   7.777  1.0316 -0.1409 -0.5151
   77CHL1   C13 8130   6.712   2.039   7.656  0.2995  0.2949  0.2173
   77CHL1   C18 8131   6.843   2.119   7.684 -0.5225  0.8028  0.4928
   77CHL1  H18A 8132   6.913   2.137   7.600 -0.7327 -3.1663 -0.7632
   77CHL1  H18B 8133   6.821   2.211   7.743 -0.4396 -0.5069  2.6966
   77CHL1  H18C 8134   6.900   2.063   7.762 -2.6936  1.1240  2.4256
   77CHL1   C12 8135   6.725   1.921   7.569  0.9104  0.6008  0.4585
   77CHL1  H12A 8136   6.809   1.859   7.608 -0.8999 -1.0793  1.8490
   77CHL1  H12B 8137   6.625   1.875   7.565 -0.2973  3.0990 -0.2573
   77CHL1   C11 8138   6.771   1.965   7.428  0.3099 -0.4615  0.0746
   77CHL1  H11A 8139   6.879   1.990   7.437  0.3997 -1.1693  1.1955
   77CHL1  H11B 8140   6.766   1.873   7.365 -2.2296 -0.7962  0.6482
   77CHL1    C9 8141   6.686   2.080   7.367 -0.3172  0.9892  0.2480
   77CHL1    H9 8142   6.592   2.028   7.339  0.1976 -0.1068  0.5426
   77CHL1   C10 8143   6.738   2.139   7.234 -0.1070  0.8476 -0.2922
   77CHL1   C19 8144   6.881   2.194   7.255 -0.2119  0.3198 -0.3591
   77CHL1  H19A 8145   6.956   2.118   7.283 -0.6642 -0.3718 -0.9881
   77CHL1  H19B 8146   6.926   2.246   7.167  0.0153  0.8106  0.0396
   77CHL1  H19C 8147   6.884   2.274   7.333 -0.6296  2.7041 -2.6234
   77CHL1    C1 8148   6.732   2.019   7.135  0.3054 -0.0580  0.5793
   77CHL1   H1A 8149   6.815   1.957   7.175  2.3594  1.7717 -0.6260
   77CHL1   H1B 8150   6.640   1.957   7.137 -1.0797  1.9209  1.6685
   77CHL1    C2 8151   6.779   2.060   6.994 -0.2672 -0.5360  0.1869
   77CHL1   H2A 8152   6.788   1.970   6.929 -2.2836 -1.0566  0.5516
   77CHL1   H2B 8153   6.881   2.099   7.014 -0.5597  0.9581 -1.0710
   77CHL1   C20 8154   6.718   1.959   7.907  0.1076 -0.2421  0.4395
   77CHL1   H20 8155   6.807   2.021   7.933  0.6963 -0.6238 -0.6071
   77CHL1   C21 8156   6.758   1.816   7.884  0.4993 -0.0528  0.2426
   77CHL1  H21A 8157   6.828   1.789   7.802  0.5680  0.6207  0.0682
   77CHL1  H21B 8158   6.669   1.754   7.860  0.0504  1.4714 -2.4540
   77CHL1  H21C 8159   6.792   1.772   7.980 -1.4139 -0.2998  0.8489
   77CHL1   C22 8160   6.623   1.955   8.033 -0.1379  0.2154 -0.7771
   77CHL1  H22A 8161   6.605   2.061   8.058 -2.1775 -0.6626  2.1141
   77CHL1  H22B 8162   6.526   1.908   8.005 -0.0542 -0.3428 -0.1763
   77CHL1   C23 8163   6.667   1.881   8.165 -0.3380  0.0837  0.3581
   77CHL1  H23A 8164   6.674   1.774   8.136 -0.7001  0.7968 -2.6755
   77CHL1  H23B 8165   6.765   1.918   8.202 -1.5180  3.3154  0.5394
   77CHL1   C24 8166   6.558   1.893   8.273  1.0564 -0.0963  0.5131
   77CHL1  H24A 8167   6.554   1.997   8.312  0.1719 -0.8862  2.7349
   77CHL1  H24B 8168   6.459   1.853   8.242  0.4925  1.1469  0.6513
   77CHL1   C25 8169   6.595   1.812   8.400 -0.2002 -0.4085 -0.1369
   77CHL1   H25 8170   6.694   1.852   8.430 -1.0379  1.3095  0.4846
   77CHL1   C26 8171   6.498   1.835   8.519 -0.1756  0.4236  0.2515
   77CHL1  H26A 8172   6.395   1.833   8.477 -0.7594  1.1912  1.6040
   77CHL1  H26B 8173   6.494   1.753   8.594 -0.2886  0.9271  0.8050
   77CHL1  H26C 8174   6.511   1.936   8.562  1.2299 -0.3817  1.8578
   77CHL1   C27 8175   6.600   1.666   8.365 -0.0764  0.3095 -0.1916
   77CHL1  H27A 8176   6.666   1.639   8.280  1.5710  1.9363  0.5026
   77CHL1  H27B 8177   6.652   1.626   8.454  0.8140 -0.9727 -1.2359
   77CHL1  H27C 8178   6.501   1.618   8.351 -1.4187  2.0919  2.3866
   78CHL1    C3 8179   0.995   2.386   6.737 -0.2673  0.5787 -0.8690
   78CHL1    H3 8180   1.013   2.291   6.792  1.3686  1.6808  0.6165
   78CHL1    O3 8181   0.926   2.362   6.615  0.5222  0.5950 -0.7101
   78CHL1   H3' 8182   0.849   2.314   6.645 -0.4325  1.5940 -1.4774
   78CHL1    C4 8183   0.916   2.482   6.818  0.2355  0.1045 -0.2594
   78CHL1   H4A 8184   0.914   2.576   6.760  0.2200  1.0503  1.2173
   78CHL1   H4B 8185   0.812   2.443   6.830  0.7114 -1.3347 -0.5714
   78CHL1    C5 8186   0.970   2.504   6.962  0.4939 -0.4063  0.1633
   78CHL1    C6 8187   0.892   2.479   7.068 -0.3831  0.1751 -0.0283
   78CHL1    H6 8188   0.787   2.446   7.055 -0.9800  0.5045  3.1424
   78CHL1    C7 8189   0.930   2.491   7.206 -0.4330  1.4382 -0.5649
   78CHL1   H7A 8190   0.852   2.550   7.260 -0.6036  0.6914  0.0212
   78CHL1   H7B 8191   0.918   2.391   7.252 -0.2499  0.9307 -1.5997
   78CHL1    C8 8192   1.069   2.563   7.216 -0.0652 -0.2160  0.4866
   78CHL1    H8 8193   1.054   2.672   7.211  1.6197 -0.0066 -1.8411
   78CHL1   C14 8194   1.130   2.519   7.347  0.7735 -0.0789 -0.7538
   78CHL1   H14 8195   1.131   2.408   7.349  1.8979 -0.1438 -2.6010
   78CHL1   C15 8196   1.051   2.563   7.475  0.5124  0.2189 -0.2286
   78CHL1  H15A 8197   1.051   2.675   7.477  0.3078  0.2093  0.6638
   78CHL1  H15B 8198   0.946   2.528   7.471  0.1493  1.1635  0.5940
   78CHL1   C16 8199   1.139   2.502   7.588 -0.2840 -0.4318 -0.0068
   78CHL1  H16A 8200   1.143   2.575   7.671 -1.5044 -0.7981  0.3949
   78CHL1  H16B 8201   1.109   2.398   7.615  2.3645 -1.3782 -0.3614
   78CHL1   C17 8202   1.288   2.496   7.523 -0.5199  0.0527 -0.0910
   78CHL1   H17 8203   1.318   2.389   7.513 -0.5417  0.1949 -2.3495
   78CHL1   C13 8204   1.274   2.562   7.383  0.6064  0.1730 -0.2186
   78CHL1   C18 8205   1.278   2.715   7.392  0.0022 -0.0153 -0.3541
   78CHL1  H18A 8206   1.382   2.753   7.404 -0.0828  1.2516 -2.9288
   78CHL1  H18B 8207   1.242   2.768   7.301  1.9658  2.3140  0.1155
   78CHL1  H18C 8208   1.225   2.757   7.480  0.0071 -0.5655 -0.0881
   78CHL1   C12 8209   1.361   2.514   7.270 -0.0697  0.7769  0.1885
   78CHL1  H12A 8210   1.463   2.558   7.278 -0.6398  1.6692  4.5723
   78CHL1  H12B 8211   1.371   2.404   7.255  0.6077  0.7501  0.7704
   78CHL1   C11 8212   1.306   2.556   7.127 -0.8064  0.1863  0.0099
   78CHL1  H11A 8213   1.333   2.664   7.120  1.0628 -0.2604 -0.0747
   78CHL1  H11B 8214   1.368   2.505   7.051  0.6190 -1.7676  2.3447
   78CHL1    C9 8215   1.167   2.516   7.104  0.9882 -0.6450 -0.6175
   78CHL1    H9 8216   1.157   2.405   7.111 -1.0828 -0.4440  0.1826
   78CHL1   C10 8217   1.118   2.552   6.961 -0.0362  0.3624 -0.6047
   78CHL1   C19 8218   1.133   2.705   6.932 -0.5099 -0.0471  0.6807
   78CHL1  H19A 8219   1.113   2.768   7.021  2.1738  0.9464  0.6852
   78CHL1  H19B 8220   1.240   2.726   6.908  0.1929 -1.9103  1.9928
   78CHL1  H19C 8221   1.086   2.731   6.834  1.9506 -1.9188 -1.1330
   78CHL1    C1 8222   1.199   2.467   6.857  0.7769 -0.0701 -0.1637
   78CHL1   H1A 8223   1.302   2.505   6.838 -0.0127  1.6814 -1.2785
   78CHL1   H1B 8224   1.208   2.369   6.907 -3.7061  0.8106  2.9421
   78CHL1    C2 8225   1.133   2.445   6.716  0.5872 -0.0304 -0.3952
   78CHL1   H2A 8226   1.201   2.384   6.653  0.6392  0.1252 -0.4917
   78CHL1   H2B 8227   1.129   2.547   6.672  2.1930  1.8040  3.2407
   78CHL1   C20 8228   1.397   2.558   7.617 -0.3422  0.2763  0.7679
   78CHL1   H20 8229   1.364   2.662   7.638  0.8452  0.4897  1.7286
   78CHL1   C21 8230   1.543   2.571   7.558  0.4876  0.3798  0.1221
   78CHL1  H21A 8231   1.606   2.609   7.641  0.9527 -1.3271  0.5924
   78CHL1  H21B 8232   1.533   2.654   7.486 -1.4833  0.6291  0.6265
   78CHL1  H21C 8233   1.589   2.475   7.524 -0.9507  0.2441 -1.5579
   78CHL1   C22 8234   1.400   2.486   7.755 -0.0847 -0.3339  0.8166
   78CHL1  H22A 8235   1.303   2.437   7.775 -0.5183  0.5373  0.9022
   78CHL1  H22B 8236   1.478   2.408   7.746 -2.0976 -2.2233 -1.9619
   78CHL1   C23 8237   1.424   2.586   7.864 -0.1353  0.0454 -0.6084
   78CHL1  H23A 8238   1.532   2.614   7.867 -0.2172  0.3817  1.8179
   78CHL1  H23B 8239   1.365   2.676   7.838 -0.2984 -0.3639 -1.7035
   78CHL1   C24 8240   1.361   2.539   8.001 -0.3508  0.3943 -0.6100
   78CHL1  H24A 8241   1.251   2.530   7.993 -0.3264 -1.3538  0.5000
   78CHL1  H24B 8242   1.399   2.436   8.017 -2.5502 -0.4653 -0.6353
   78CHL1   C25 8243   1.401   2.620   8.121 -0.1014  0.2818 -1.1681
   78CHL1   H25 8244   1.368   2.726   8.121 -3.8845 -0.6738  1.4950
   78CHL1   C26 8245   1.326   2.591   8.255  0.4729 -0.1123  0.4921
   78CHL1  H26A 8246   1.218   2.604   8.230  0.2245 -1.6890  0.6596
   78CHL1  H26B 8247   1.353   2.489   8.290  2.8348 -0.4042 -1.8634
   78CHL1  H26C 8248   1.353   2.671   8.327 -0.8504 -0.2953  1.2326
   78CHL1   C27 8249   1.553   2.617   8.133  0.7541 -0.1237 -0.4267
   78CHL1  H27A 8250   1.582   2.643   8.237 -1.3193 -0.4123  0.2705
   78CHL1  H27B 8251   1.600   2.518   8.116 -1.6786 -1.1801 -1.3475
   78CHL1  H27C 8252   1.599   2.696   8.069  1.1203 -0.7678 -0.9716
   79CHL1    C3 8253   5.593   0.686  10.429  0.2035 -0.0884 -0.0958
   79CHL1    H3 8254   5.672   0.762  10.410 -0.2085  0.0529 -1.3143
   79CHL1    O3 8255   5.574   0.673  10.567  0.6140 -0.4661  0.6639
   79CHL1   H3' 8256   5.501   0.612  10.550  1.0015 -0.5643 -0.7772
   79CHL1    C4 8257   5.473   0.719  10.342 -0.1829  0.3467  0.0467
   79CHL1   H4A 8258   5.396   0.641  10.365 -0.0906  0.6401  1.4451
   79CHL1   H4B 8259   5.438   0.813  10.389 -0.2083 -0.9868  2.8797
   79CHL1    C5 8260   5.500   0.719  10.193  0.7305  0.1285  0.2172
   79CHL1    C6 8261   5.471   0.828  10.120 -0.5684  0.3742 -0.2291
   79CHL1    H6 8262   5.436   0.924  10.160  0.7952  1.2227 -0.9658
   79CHL1    C7 8263   5.489   0.822   9.969 -0.3414  0.6638 -0.5608
   79CHL1   H7A 8264   5.396   0.872   9.933 -1.2189  0.2618  1.0538
   79CHL1   H7B 8265   5.574   0.889   9.943  1.9647 -1.9876 -0.3887
   79CHL1    C8 8266   5.506   0.689   9.901 -0.9409  0.5438  0.0114
   79CHL1    H8 8267   5.403   0.648   9.896 -1.0470  0.4654  2.1997
   79CHL1   C14 8268   5.571   0.705   9.756  0.8685  0.0992 -0.5693
   79CHL1   H14 8269   5.669   0.753   9.777  0.5744  0.3909  0.1606
   79CHL1   C15 8270   5.489   0.799   9.673 -0.3740 -0.3917  1.2202
   79CHL1  H15A 8271   5.381   0.771   9.680 -0.6825  1.0044  2.9662
   79CHL1  H15B 8272   5.488   0.902   9.713  1.0333 -0.1516  0.6694
   79CHL1   C16 8273   5.549   0.777   9.534 -0.1078 -0.5499 -0.0789
   79CHL1  H16A 8274   5.469   0.777   9.458  0.2989  0.2653 -0.5137
   79CHL1  H16B 8275   5.623   0.857   9.509  0.3473 -1.4956 -1.9534
   79CHL1   C17 8276   5.643   0.654   9.546  0.1239 -0.1132 -0.5021
   79CHL1   H17 8277   5.745   0.695   9.564 -0.0140 -0.0263  0.0841
   79CHL1   C13 8278   5.601   0.587   9.674 -0.1784  0.5324  0.3986
   79CHL1   C18 8279   5.479   0.500   9.646  1.4936  0.3442 -0.0186
   79CHL1  H18A 8280   5.426   0.539   9.556 -2.2740 -1.6098  1.1295
   79CHL1  H18B 8281   5.493   0.391   9.629  0.0224 -0.1238  1.4615
   79CHL1  H18C 8282   5.404   0.505   9.728  0.5492 -0.6141 -0.7831
   79CHL1   C12 8283   5.698   0.511   9.764 -0.0643 -0.0992 -0.3582
   79CHL1  H12A 8284   5.736   0.416   9.722  3.0107  0.5194  0.7430
   79CHL1  H12B 8285   5.788   0.574   9.782 -0.9016  0.7714  0.9279
   79CHL1   C11 8286   5.630   0.475   9.902  0.1076 -0.5644 -0.2713
   79CHL1  H11A 8287   5.548   0.406   9.874  1.0823 -1.5992 -0.6711
   79CHL1  H11B 8288   5.713   0.426   9.957  1.7056 -2.0710 -3.6810
   79CHL1    C9 8289   5.602   0.609   9.982  0.5056  0.2302 -0.4609
   79CHL1    H9 8290   5.696   0.668   9.986  1.0048 -0.5236 -0.9178
   79CHL1   C10 8291   5.561   0.589  10.131 -0.6863 -0.8454 -1.0023
   79CHL1   C19 8292   5.444   0.486  10.127 -1.3005  0.2121  0.6180
   79CHL1  H19A 8293   5.494   0.392  10.156 -2.0526  0.7190  3.9235
   79CHL1  H19B 8294   5.372   0.487  10.212 -1.0794 -1.8324  0.8634
   79CHL1  H19C 8295   5.399   0.467  10.027  0.0850  1.6061 -0.3149
   79CHL1    C1 8296   5.681   0.552  10.227 -0.0998 -0.0592 -0.4608
   79CHL1   H1A 8297   5.719   0.450  10.203  0.7147  0.2899 -0.6827
   79CHL1   H1B 8298   5.753   0.634  10.207 -2.4174  1.7930 -1.7422
   79CHL1    C2 8299   5.651   0.552  10.377 -0.3726 -0.3841  0.0199
   79CHL1   H2A 8300   5.748   0.543  10.429  0.0442 -1.6081 -0.9421
   79CHL1   H2B 8301   5.581   0.472  10.409 -0.6960 -0.7239 -1.4806
   79CHL1   C20 8302   5.667   0.570   9.420  0.5555  0.1477 -0.6902
   79CHL1   H20 8303   5.570   0.518   9.403  2.1804 -2.3393 -3.1899
   79CHL1   C21 8304   5.777   0.464   9.437 -0.0900 -0.0002 -0.2427
   79CHL1  H21A 8305   5.761   0.392   9.354  1.4847  1.1625 -1.6359
   79CHL1  H21B 8306   5.760   0.405   9.529 -3.0765 -1.2481 -1.4833
   79CHL1  H21C 8307   5.877   0.512   9.432  0.7135 -1.3266  1.9129
   79CHL1   C22 8308   5.702   0.654   9.304  0.1561  0.3248  0.7189
   79CHL1  H22A 8309   5.613   0.717   9.281 -1.1738 -1.0060  1.9682
   79CHL1  H22B 8310   5.781   0.729   9.326  0.6189  0.0786 -0.0529
   79CHL1   C23 8311   5.738   0.580   9.177  0.6583 -0.0285  0.8168
   79CHL1  H23A 8312   5.804   0.493   9.199 -0.6329 -1.2143  0.1526
   79CHL1  H23B 8313   5.643   0.549   9.129  1.2133  0.8855 -0.9821
   79CHL1   C24 8314   5.801   0.660   9.064 -0.6017  0.4586 -0.9958
   79CHL1  H24A 8315   5.763   0.765   9.064  1.9605  1.5124  1.2994
   79CHL1  H24B 8316   5.908   0.671   9.094 -0.9235  0.4353  0.2008
   79CHL1   C25 8317   5.795   0.600   8.924  0.6887  0.2639 -0.2020
   79CHL1   H25 8318   5.834   0.496   8.931 -0.2773 -0.0160  1.8500
   79CHL1   C26 8319   5.652   0.589   8.871 -0.4650 -0.6214 -0.5254
   79CHL1  H26A 8320   5.649   0.571   8.761  0.0003  1.3082 -0.8829
   79CHL1  H26B 8321   5.598   0.510   8.928 -0.9043  0.1207  0.0901
   79CHL1  H26C 8322   5.601   0.686   8.885 -1.3639 -1.2807  0.9607
   79CHL1   C27 8323   5.881   0.679   8.823 -0.3402  1.0856  0.0647
   79CHL1  H27A 8324   5.871   0.640   8.719 -0.9558 -0.1449  0.5639
   79CHL1  H27B 8325   5.833   0.779   8.829 -2.9091 -0.0255 -0.6115
   79CHL1  H27C 8326   5.984   0.679   8.865 -0.0500  1.1042 -0.6345
   80CHL1    C3 8327   6.627   1.521   6.938  0.8208 -0.6716  0.0091
   80CHL1    H3 8328   6.722   1.472   6.970  0.9222  0.4015  1.4232
   80CHL1    O3 8329   6.636   1.541   6.799  0.2348 -0.1115  0.3409
   80CHL1   H3' 8330   6.648   1.451   6.769 -0.6263 -0.6041  1.4332
   80CHL1    C4 8331   6.516   1.420   6.973  0.2913 -0.3179 -0.5147
   80CHL1   H4A 8332   6.423   1.464   6.931  0.6359  0.5822 -0.3633
   80CHL1   H4B 8333   6.532   1.329   6.912 -0.0430 -1.7120  1.4197
   80CHL1    C5 8334   6.495   1.400   7.121 -0.5338  0.3802  0.1802
   80CHL1    C6 8335   6.503   1.277   7.177  0.3366  0.4897 -0.0943
   80CHL1    H6 8336   6.532   1.191   7.114  0.1520 -0.2286  0.7756
   80CHL1    C7 8337   6.485   1.254   7.322 -0.5016 -0.6506  0.7084
   80CHL1   H7A 8338   6.425   1.162   7.337  0.2174 -0.7290  3.7478
   80CHL1   H7B 8339   6.584   1.230   7.366 -0.2103 -0.6401  0.0681
   80CHL1    C8 8340   6.439   1.374   7.412  0.0123  0.0390  0.5684
   80CHL1    H8 8341   6.328   1.371   7.408  0.0602 -1.3850 -0.4770
   80CHL1   C14 8342   6.481   1.360   7.559  0.6868 -0.5218  0.0619
   80CHL1   H14 8343   6.591   1.375   7.565  0.7550 -0.4263 -1.2608
   80CHL1   C15 8344   6.464   1.221   7.624  0.3908  0.4364 -0.3116
   80CHL1  H15A 8345   6.359   1.189   7.606  0.5326  0.2964 -0.9048
   80CHL1  H15B 8346   6.530   1.132   7.611 -0.3194 -0.9142  3.8376
   80CHL1   C16 8347   6.462   1.263   7.773 -0.5143  0.3084  0.7992
   80CHL1  H16A 8348   6.375   1.212   7.821 -0.0036 -0.9783  0.4101
   80CHL1  H16B 8349   6.551   1.228   7.830  0.8139  1.9004 -0.1983
   80CHL1   C17 8350   6.455   1.412   7.790 -0.8432 -1.3278 -0.4633
   80CHL1   H17 8351   6.558   1.447   7.812  0.0508 -3.3451 -1.1888
   80CHL1   C13 8352   6.414   1.467   7.653 -0.1378  0.0350  0.1143
   80CHL1   C18 8353   6.265   1.468   7.639  0.3823 -0.1627 -0.0904
   80CHL1  H18A 8354   6.209   1.543   7.700 -1.2207  0.6092 -2.3533
   80CHL1  H18B 8355   6.228   1.492   7.537  1.2292 -1.3250 -0.6846
   80CHL1  H18C 8356   6.229   1.365   7.661 -0.7018  0.2243  0.0448
   80CHL1   C12 8357   6.459   1.602   7.607 -0.4428  0.0206  0.8110
   80CHL1  H12A 8358   6.398   1.672   7.668 -1.8220 -0.1057 -0.3614
   80CHL1  H12B 8359   6.565   1.613   7.638 -0.1804 -2.0437  0.7440
   80CHL1   C11 8360   6.437   1.628   7.456  0.9622  0.5817 -0.1244
   80CHL1  H11A 8361   6.331   1.651   7.434  1.6629  1.4710 -2.9438
   80CHL1  H11B 8362   6.499   1.714   7.422  0.8246  1.1197  0.9344
   80CHL1    C9 8363   6.488   1.512   7.360  0.0390 -0.7875 -0.2443
   80CHL1    H9 8364   6.598   1.505   7.376  0.2174 -1.3469 -1.5790
   80CHL1   C10 8365   6.478   1.530   7.202  0.4532 -0.2545 -0.4388
   80CHL1   C19 8366   6.331   1.578   7.168  0.5477 -0.6617  0.6818
   80CHL1  H19A 8367   6.332   1.679   7.213 -0.6894 -0.7644  0.9754
   80CHL1  H19B 8368   6.309   1.599   7.061 -0.9226  0.8782  1.2405
   80CHL1  H19C 8369   6.255   1.521   7.226  1.0168  0.5155  2.5331
   80CHL1    C1 8370   6.575   1.645   7.158  0.5370  0.3269 -0.2581
   80CHL1   H1A 8371   6.555   1.745   7.202  1.3566  0.0936  0.6718
   80CHL1   H1B 8372   6.673   1.618   7.203  0.3232 -0.4247 -0.2371
   80CHL1    C2 8373   6.601   1.656   7.008 -0.4627  0.0893  0.8358
   80CHL1   H2A 8374   6.695   1.710   6.989  0.0086  0.2548  3.3021
   80CHL1   H2B 8375   6.520   1.711   6.956  0.3221  1.4428  1.0189
   80CHL1   C20 8376   6.373   1.458   7.917  0.6631 -0.0713  0.0568
   80CHL1   H20 8377   6.267   1.441   7.890  0.5986  0.3364  0.0517
   80CHL1   C21 8378   6.407   1.603   7.947  0.4064 -0.7154 -0.2854
   80CHL1  H21A 8379   6.363   1.668   7.868 -0.5500 -0.5548  0.3664
   80CHL1  H21B 8380   6.518   1.605   7.950  0.4059 -0.8176 -0.1558
   80CHL1  H21C 8381   6.370   1.641   8.045 -0.7635 -2.1737 -0.1350
   80CHL1   C22 8382   6.399   1.368   8.038  0.2194 -0.6571  0.4722
   80CHL1  H22A 8383   6.372   1.265   8.008 -0.7810 -0.0917 -0.6578
   80CHL1  H22B 8384   6.508   1.381   8.055 -0.4168  1.6349  3.9147
   80CHL1   C23 8385   6.331   1.405   8.169 -0.3537 -0.0644  0.4824
   80CHL1  H23A 8386   6.373   1.330   8.239  1.6298  0.9998  0.4994
   80CHL1  H23B 8387   6.380   1.499   8.203  2.2092 -0.7502 -1.0701
   80CHL1   C24 8388   6.178   1.409   8.164  0.3089 -0.2348  0.2667
   80CHL1  H24A 8389   6.161   1.497   8.098  1.2804  0.2632  0.6567
   80CHL1  H24B 8390   6.149   1.311   8.120  0.6820 -0.8991  1.4400
   80CHL1   C25 8391   6.108   1.432   8.302 -0.2371  0.1269  0.1775
   80CHL1   H25 8392   6.154   1.355   8.368  0.3493 -0.5663 -1.0180
   80CHL1   C26 8393   6.134   1.580   8.351  0.0843 -0.4937  0.4273
   80CHL1  H26A 8394   6.098   1.587   8.456  1.5445  0.2389  0.9008
   80CHL1  H26B 8395   6.244   1.589   8.353 -0.0228  1.4082 -0.4228
   80CHL1  H26C 8396   6.089   1.647   8.275 -1.2676 -0.3518  1.3145
   80CHL1   C27 8397   5.959   1.395   8.305  0.2301  0.5927 -0.3160
   80CHL1  H27A 8398   5.914   1.419   8.404  0.1451  1.4866 -0.5613
   80CHL1  H27B 8399   5.896   1.460   8.241 -0.3216  0.6865  0.3110
   80CHL1  H27C 8400   5.943   1.289   8.275 -1.3022  1.4603 -2.8768
   81CHL1    C3 8401   3.857   6.723   6.558  0.2101  0.0417  0.6540
   81CHL1    H3 8402   3.937   6.652   6.529  0.3072  0.9614 -1.4821
   81CHL1    O3 8403   3.784   6.754   6.442 -0.4018  0.1279  0.3526
   81CHL1   H3' 8404   3.691   6.760   6.466 -1.3346 -2.0659 -2.2699
   81CHL1    C4 8405   3.759   6.653   6.651  0.2753  0.0026 -0.0474
   81CHL1   H4A 8406   3.669   6.718   6.662  1.0897  1.1661 -0.0486
   81CHL1   H4B 8407   3.727   6.557   6.605 -1.9659  0.9147 -0.5362
   81CHL1    C5 8408   3.815   6.628   6.788 -0.2741  0.3074 -0.0030
   81CHL1    C6 8409   3.812   6.503   6.837 -0.4423  0.4292 -0.2985
   81CHL1    H6 8410   3.781   6.421   6.770 -2.4875  0.2007  0.8166
   81CHL1    C7 8411   3.844   6.468   6.981  0.2536 -0.2896 -0.3376
   81CHL1   H7A 8412   3.764   6.406   7.028 -1.3418  1.3519 -0.7404
   81CHL1   H7B 8413   3.942   6.416   6.990 -0.2454 -0.9035  2.1658
   81CHL1    C8 8414   3.859   6.596   7.067 -0.4857 -0.5555 -0.0672
   81CHL1    H8 8415   3.763   6.640   7.101 -0.3110 -1.2264  1.3428
   81CHL1   C14 8416   3.932   6.561   7.198  0.2758  0.4272  0.7260
   81CHL1   H14 8417   4.033   6.532   7.161 -0.2318 -0.5534  0.0462
   81CHL1   C15 8418   3.884   6.438   7.279  0.0789 -0.0945 -0.0015
   81CHL1  H15A 8419   3.774   6.440   7.295 -0.2801  0.6758 -2.2172
   81CHL1  H15B 8420   3.906   6.338   7.236 -1.4019 -0.8570  0.9030
   81CHL1   C16 8421   3.939   6.468   7.418  0.2546 -0.1551 -0.3281
   81CHL1  H16A 8422   3.849   6.473   7.483 -0.7011  0.6131 -1.6683
   81CHL1  H16B 8423   3.992   6.380   7.460 -3.3279 -1.6873  1.4551
   81CHL1   C17 8424   4.001   6.607   7.421 -0.7586  0.1164  0.0067
   81CHL1   H17 8425   4.111   6.601   7.409 -0.5554  2.9172 -0.3047
   81CHL1   C13 8426   3.943   6.675   7.293  0.0191 -0.5157 -0.4573
   81CHL1   C18 8427   3.813   6.743   7.322 -0.2114 -0.3409 -0.3157
   81CHL1  H18A 8428   3.784   6.819   7.246 -0.9936 -0.4215 -0.1056
   81CHL1  H18B 8429   3.721   6.680   7.318 -0.7987  0.5581 -2.7745
   81CHL1  H18C 8430   3.818   6.816   7.405 -4.1454  0.2118 -0.3996
   81CHL1   C12 8431   4.045   6.775   7.239 -0.1211  0.4694 -0.4898
   81CHL1  H12A 8432   4.060   6.863   7.305  2.4041  0.6722 -1.2473
   81CHL1  H12B 8433   4.134   6.717   7.209  0.0681  1.0132 -1.0160
   81CHL1   C11 8434   3.988   6.815   7.094 -0.2031  0.4832 -0.0589
   81CHL1  H11A 8435   3.909   6.892   7.109  1.1054  2.2435 -1.7389
   81CHL1  H11B 8436   4.073   6.860   7.039  0.7538 -0.2653  0.7642
   81CHL1    C9 8437   3.941   6.698   6.998  0.3695  0.0334  0.1293
   81CHL1    H9 8438   4.035   6.653   6.960 -0.1136  0.1657 -1.2861
   81CHL1   C10 8439   3.871   6.747   6.872 -0.0685 -0.3504  0.3872
   81CHL1   C19 8440   3.750   6.843   6.899 -0.2012 -0.0678 -0.6307
   81CHL1  H19A 8441   3.673   6.791   6.960 -0.4433  1.9784  0.9060
   81CHL1  H19B 8442   3.765   6.940   6.951  1.5516  1.3814 -3.5662
   81CHL1  H19C 8443   3.695   6.869   6.805  1.0264  0.6377 -1.1766
   81CHL1    C1 8444   3.968   6.824   6.772  0.0467 -0.4032  0.3429
   81CHL1   H1A 8445   3.988   6.922   6.821 -3.1534  0.0355  1.0412
   81CHL1   H1B 8446   4.064   6.770   6.771  0.2368 -0.0729  0.4610
   81CHL1    C2 8447   3.901   6.853   6.628 -0.0120  0.3192 -0.2672
   81CHL1   H2A 8448   3.977   6.901   6.562  0.4341  1.1453  0.8243
   81CHL1   H2B 8449   3.809   6.915   6.625 -0.3362 -0.1091 -3.4190
   81CHL1   C20 8450   3.993   6.686   7.555  0.1386 -0.2128 -0.2209
   81CHL1   H20 8451   3.889   6.719   7.578  0.6855  2.2164 -0.9815
   81CHL1   C21 8452   4.082   6.809   7.553  0.1395 -0.2331 -0.9847
   81CHL1  H21A 8453   4.049   6.894   7.490  0.8653  3.1593  2.8011
   81CHL1  H21B 8454   4.187   6.780   7.530  0.2931 -0.8961  0.4405
   81CHL1  H21C 8455   4.079   6.847   7.657 -2.1066  1.2051 -1.5064
   81CHL1   C22 8456   4.028   6.579   7.666 -0.5597 -0.3559  0.1304
   81CHL1  H22A 8457   3.971   6.484   7.658 -2.9742  1.1480 -2.8316
   81CHL1  H22B 8458   4.137   6.560   7.653 -0.4469  0.2998  0.0638
   81CHL1   C23 8459   3.998   6.636   7.810 -0.4503  0.4110  0.2099
   81CHL1  H23A 8460   4.061   6.727   7.819  0.8218 -0.3843 -0.4962
   81CHL1  H23B 8461   3.889   6.658   7.812 -0.6391 -0.4921  1.6278
   81CHL1   C24 8462   4.038   6.532   7.916  0.8846  0.1405  0.2976
   81CHL1  H24A 8463   3.995   6.432   7.899 -1.4280  1.2197 -0.6271
   81CHL1  H24B 8464   4.149   6.522   7.910  1.0922  1.9938  0.3883
   81CHL1   C25 8465   4.003   6.578   8.057 -0.0037 -0.6466  0.3251
   81CHL1   H25 8466   4.007   6.689   8.064  1.5205 -0.6332 -0.4064
   81CHL1   C26 8467   3.864   6.543   8.108 -0.7824  0.0731 -0.5162
   81CHL1  H26A 8468   3.782   6.582   8.044 -0.5146  0.9495 -0.3383
   81CHL1  H26B 8469   3.860   6.433   8.125 -2.8726  0.1945  0.0453
   81CHL1  H26C 8470   3.849   6.583   8.211  1.5597 -0.3062  0.0339
   81CHL1   C27 8471   4.105   6.518   8.152  0.7101 -0.5303  0.0192
   81CHL1  H27A 8472   4.069   6.526   8.257 -0.2709 -0.0413 -0.3331
   81CHL1  H27B 8473   4.097   6.410   8.127  1.2763 -0.3853 -0.8304
   81CHL1  H27C 8474   4.207   6.556   8.133  0.3547  0.3230 -0.2320
   82CHL1    C3 8475   4.851   0.222   6.801 -0.2917 -0.6280  0.0419
   82CHL1    H3 8476   4.763   0.288   6.784 -1.0540 -1.8174 -0.7444
   82CHL1    O3 8477   4.893   0.175   6.671 -0.2570 -0.1941  0.2773
   82CHL1   H3' 8478   4.975   0.129   6.692 -0.9077 -0.9941  1.1327
   82CHL1    C4 8479   4.959   0.308   6.864 -0.4115  0.1943 -0.4274
   82CHL1   H4A 8480   5.057   0.256   6.860 -0.2791  0.5289 -2.2041
   82CHL1   H4B 8481   4.960   0.400   6.801  0.8485  2.1393  2.2419
   82CHL1    C5 8482   4.934   0.349   7.006 -0.2065 -0.4117  0.2352
   82CHL1    C6 8483   4.935   0.481   7.045  0.1797 -0.4123  0.2332
   82CHL1    H6 8484   4.954   0.555   6.966  0.6402  0.7460  1.3972
   82CHL1    C7 8485   4.902   0.528   7.181 -0.1425  0.0390  0.2473
   82CHL1   H7A 8486   4.970   0.615   7.196 -0.5476  0.9687 -2.5746
   82CHL1   H7B 8487   4.795   0.551   7.203  0.1466 -0.3819  2.2155
   82CHL1    C8 8488   4.936   0.406   7.275  0.3183  0.0543  0.0249
   82CHL1    H8 8489   5.046   0.390   7.283  0.3114  0.5979  1.4482
   82CHL1   C14 8490   4.900   0.449   7.417 -0.0388  0.5475 -0.4576
   82CHL1   H14 8491   4.792   0.476   7.415  0.1474  1.3714  0.1043
   82CHL1   C15 8492   4.965   0.570   7.480 -0.9857  0.2073 -0.0824
   82CHL1  H15A 8493   5.074   0.567   7.459 -1.0048 -0.6326 -0.0704
   82CHL1  H15B 8494   4.918   0.659   7.432  1.1505  2.0783  1.1290
   82CHL1   C16 8495   4.930   0.560   7.627 -0.1975  0.1348 -0.3851
   82CHL1  H16A 8496   5.018   0.576   7.693 -0.8048  2.6298 -0.0952
   82CHL1  H16B 8497   4.862   0.645   7.650 -1.1906 -1.1423  1.7329
   82CHL1   C17 8498   4.861   0.421   7.656  0.0789  0.1357 -0.0454
   82CHL1   H17 8499   4.752   0.441   7.647 -0.0264 -0.2948  0.2388
   82CHL1   C13 8500   4.913   0.338   7.530  0.6097 -0.9818  0.0824
   82CHL1   C18 8501   5.057   0.292   7.547 -0.4720 -0.0560 -0.1117
   82CHL1  H18A 8502   5.046   0.205   7.615  0.5716 -0.6843 -0.7317
   82CHL1  H18B 8503   5.109   0.257   7.455 -0.0388 -0.1137  0.1495
   82CHL1  H18C 8504   5.121   0.367   7.599 -1.3099  0.1576  0.6315
   82CHL1   C12 8505   4.822   0.223   7.494 -0.2129  0.0130  0.7914
   82CHL1  H12A 8506   4.832   0.132   7.557  2.4826 -0.0200  0.4219
   82CHL1  H12B 8507   4.722   0.273   7.491 -0.3329 -0.2274 -1.9338
   82CHL1   C11 8508   4.850   0.175   7.350 -0.0482  0.3091 -0.2425
   82CHL1  H11A 8509   4.947   0.121   7.356 -0.8352 -1.1247 -0.1063
   82CHL1  H11B 8510   4.778   0.094   7.327  1.7063 -0.9670 -1.5202
   82CHL1    C9 8511   4.852   0.278   7.240  0.2337  0.1065  0.2985
   82CHL1    H9 8512   4.747   0.313   7.230  0.5331  1.2336  0.9347
   82CHL1   C10 8513   4.896   0.230   7.099  0.1064 -0.7232  0.8072
   82CHL1   C19 8514   5.018   0.146   7.121 -0.0413 -0.3926  0.5433
   82CHL1  H19A 8515   5.062   0.113   7.024  2.4435  0.5612  1.2442
   82CHL1  H19B 8516   5.099   0.207   7.167 -0.0629  1.4417 -1.6593
   82CHL1  H19C 8517   5.010   0.055   7.183  0.0161 -0.9552 -0.2501
   82CHL1    C1 8518   4.783   0.137   7.029  0.3664  0.1995 -0.2003
   82CHL1   H1A 8519   4.763   0.047   7.090 -1.1668 -0.3487 -1.4567
   82CHL1   H1B 8520   4.685   0.188   7.022  0.5451  0.2761 -3.3604
   82CHL1    C2 8521   4.819   0.102   6.883  0.1658  0.9349  0.5750
   82CHL1   H2A 8522   4.739   0.047   6.828  0.8486 -1.6775  2.0373
   82CHL1   H2B 8523   4.901   0.027   6.889 -0.5298  0.2663  2.3098
   82CHL1   C20 8524   4.879   0.371   7.798 -0.3942  0.7259  0.1021
   82CHL1   H20 8525   4.983   0.336   7.814 -1.1017 -0.3052  2.9594
   82CHL1   C21 8526   4.803   0.237   7.822 -0.5018 -0.5284  0.6744
   82CHL1  H21A 8527   4.698   0.266   7.797  0.2032  1.4042 -0.1986
   82CHL1  H21B 8528   4.806   0.187   7.921  0.2565 -3.5097 -0.7302
   82CHL1  H21C 8529   4.842   0.159   7.753 -2.2873 -0.4633 -0.4987
   82CHL1   C22 8530   4.838   0.471   7.904  1.4942 -0.1164 -0.0724
   82CHL1  H22A 8531   4.883   0.438   8.000 -0.7713 -0.5079  0.9216
   82CHL1  H22B 8532   4.895   0.564   7.882 -0.2477  1.1808  0.6427
   82CHL1   C23 8533   4.685   0.494   7.924 -0.1851  0.5866 -1.1596
   82CHL1  H23A 8534   4.634   0.544   7.839  0.4138 -0.6612 -2.2737
   82CHL1  H23B 8535   4.629   0.400   7.941  1.5133 -0.1337  0.8857
   82CHL1   C24 8536   4.662   0.566   8.054  0.2706  0.2536  0.2505
   82CHL1  H24A 8537   4.696   0.502   8.138  1.9257  1.0624  0.2313
   82CHL1  H24B 8538   4.723   0.658   8.068  0.4867 -0.1850  2.6282
   82CHL1   C25 8539   4.522   0.621   8.084  0.0345  0.1312  0.0342
   82CHL1   H25 8540   4.492   0.682   7.997 -0.2468 -1.1617 -0.7983
   82CHL1   C26 8541   4.421   0.510   8.096 -0.0818 -0.4163  0.1435
   82CHL1  H26A 8542   4.431   0.456   8.193  1.0678  0.4919  0.5525
   82CHL1  H26B 8543   4.321   0.556   8.087 -0.2899 -1.0770 -1.1697
   82CHL1  H26C 8544   4.430   0.440   8.010  2.0849  2.0145 -1.7592
   82CHL1   C27 8545   4.521   0.699   8.213 -0.4205  0.1125 -0.4414
   82CHL1  H27A 8546   4.456   0.784   8.183 -0.5598 -0.2398 -1.1529
   82CHL1  H27B 8547   4.470   0.643   8.294  0.3082 -0.6834 -0.5171
   82CHL1  H27C 8548   4.617   0.748   8.238 -0.6767  0.3341  0.1331
   83CHL1    C3 8549   1.216   1.908   6.782  0.0690  0.4772  0.5890
   83CHL1    H3 8550   1.223   1.798   6.769 -1.5908  0.4179 -0.0441
   83CHL1    O3 8551   1.262   1.962   6.657  0.6411  0.2059  0.2129
   83CHL1   H3' 8552   1.211   1.922   6.587  0.2609  3.1687 -1.3703
   83CHL1    C4 8553   1.071   1.968   6.809 -0.5424  0.0037  0.0821
   83CHL1   H4A 8554   1.072   2.079   6.807  0.3912  0.0111  0.3817
   83CHL1   H4B 8555   1.002   1.927   6.733  0.2809  1.1230 -1.3117
   83CHL1    C5 8556   1.018   1.940   6.943 -0.5546  0.3510 -0.6123
   83CHL1    C6 8557   0.898   1.885   6.963 -0.4464 -0.9427  0.1962
   83CHL1    H6 8558   0.838   1.875   6.871 -0.3429  1.1271 -0.1262
   83CHL1    C7 8559   0.838   1.860   7.098 -0.2592 -0.3416 -0.7610
   83CHL1   H7A 8560   0.741   1.914   7.097 -0.1326 -0.0919 -0.0882
   83CHL1   H7B 8561   0.820   1.751   7.110 -0.9132 -0.3828 -1.9896
   83CHL1    C8 8562   0.922   1.914   7.223 -0.1155 -0.0022  0.2168
   83CHL1    H8 8563   0.891   2.020   7.230 -0.4301 -0.1137  0.5223
   83CHL1   C14 8564   0.884   1.838   7.346 -0.4426 -0.2657 -0.1672
   83CHL1   H14 8565   0.929   1.738   7.326 -0.4084 -0.3848  0.5000
   83CHL1   C15 8566   0.732   1.814   7.384 -0.1530 -0.5456 -0.3552
   83CHL1  H15A 8567   0.674   1.906   7.361 -0.7597 -1.3990 -2.5679
   83CHL1  H15B 8568   0.688   1.735   7.320  0.4574 -1.9375  0.8993
   83CHL1   C16 8569   0.743   1.782   7.534 -0.5809  0.1188  0.3127
   83CHL1  H16A 8570   0.680   1.849   7.596  1.8763  1.9796  0.9684
   83CHL1  H16B 8571   0.725   1.674   7.555 -0.9752 -0.1364 -1.1861
   83CHL1   C17 8572   0.893   1.807   7.584  0.5052  0.9156  0.3252
   83CHL1   H17 8573   0.947   1.710   7.589  0.2234  0.6904 -0.7798
   83CHL1   C13 8574   0.949   1.895   7.474 -0.4755 -0.2245  0.0937
   83CHL1   C18 8575   0.905   2.045   7.488 -0.1898 -0.1976 -0.2056
   83CHL1  H18A 8576   0.794   2.048   7.485 -0.2067 -1.1496 -3.0428
   83CHL1  H18B 8577   0.920   2.097   7.585 -2.0647  0.5926 -0.3075
   83CHL1  H18C 8578   0.943   2.108   7.405 -1.2697 -1.0705 -1.3915
   83CHL1   C12 8579   1.096   1.880   7.453 -0.0453  0.2550 -0.4110
   83CHL1  H12A 8580   1.156   1.919   7.538  0.5475 -0.9638 -0.2540
   83CHL1  H12B 8581   1.122   1.774   7.434 -0.7536 -0.0977  0.5674
   83CHL1   C11 8582   1.147   1.950   7.327  0.4177  0.3589 -0.3424
   83CHL1  H11A 8583   1.148   2.061   7.331 -0.2626  0.3508  0.4391
   83CHL1  H11B 8584   1.249   1.918   7.299 -0.3687  0.7938 -4.3468
   83CHL1    C9 8585   1.069   1.911   7.197  0.1653  0.4061  0.4637
   83CHL1    H9 8586   1.097   1.804   7.193 -1.2640 -0.0762  2.1259
   83CHL1   C10 8587   1.113   1.974   7.060 -0.2399 -0.4397 -0.2045
   83CHL1   C19 8588   1.117   2.131   7.079 -0.1243 -0.3914 -1.1745
   83CHL1  H19A 8589   1.203   2.157   7.145  0.7209 -2.4632 -1.3536
   83CHL1  H19B 8590   1.131   2.179   6.980 -2.1083  1.0912 -0.7796
   83CHL1  H19C 8591   1.021   2.172   7.116  0.4444  0.3114 -0.4484
   83CHL1    C1 8592   1.258   1.917   7.029 -0.7714 -0.7703 -0.2596
   83CHL1   H1A 8593   1.322   1.960   7.109 -3.7193  1.2614  1.2058
   83CHL1   H1B 8594   1.261   1.806   7.029  0.4438 -0.7630  0.9053
   83CHL1    C2 8595   1.312   1.962   6.890  0.4918  0.0913 -0.3785
   83CHL1   H2A 8596   1.411   1.912   6.886  0.4399 -0.2641  1.7542
   83CHL1   H2B 8597   1.323   2.073   6.890 -1.2707  0.2942 -0.9024
   83CHL1   C20 8598   0.903   1.860   7.734  0.1831  0.3895 -0.1095
   83CHL1   H20 8599   0.857   1.961   7.741 -0.2678  0.1214  1.0475
   83CHL1   C21 8600   1.048   1.869   7.778 -1.2540  0.7861 -0.2243
   83CHL1  H21A 8601   1.069   1.886   7.886 -0.6079 -0.9021 -0.0531
   83CHL1  H21B 8602   1.101   1.954   7.729  3.4178 -0.9555  1.1815
   83CHL1  H21C 8603   1.098   1.773   7.750 -0.0141  1.3937 -0.1871
   83CHL1   C22 8604   0.811   1.772   7.825  0.0292 -0.5795  0.0137
   83CHL1  H22A 8605   0.706   1.787   7.791  0.3437  0.6675 -0.4792
   83CHL1  H22B 8606   0.833   1.667   7.797 -4.1951 -0.9160 -2.8884
   83CHL1   C23 8607   0.819   1.798   7.975 -0.0125  0.4891 -0.4565
   83CHL1  H23A 8608   0.919   1.791   8.021 -0.4927 -1.5608  0.4049
   83CHL1  H23B 8609   0.790   1.901   8.006 -1.6783 -0.7461  2.5379
   83CHL1   C24 8610   0.719   1.708   8.061  0.1943  0.2866  0.2197
   83CHL1  H24A 8611   0.617   1.746   8.041 -0.5048 -2.0821 -1.0345
   83CHL1  H24B 8612   0.739   1.605   8.023  1.3008  0.5630  0.0076
   83CHL1   C25 8613   0.744   1.715   8.211  0.2379  0.2883  0.7591
   83CHL1   H25 8614   0.848   1.676   8.224  0.0830 -0.7205 -0.8504
   83CHL1   C26 8615   0.758   1.857   8.268 -0.1240 -0.5206  0.3200
   83CHL1  H26A 8616   0.842   1.913   8.222 -1.2371  2.3410  1.5853
   83CHL1  H26B 8617   0.665   1.904   8.230  0.7184  1.2153  0.3317
   83CHL1  H26C 8618   0.768   1.859   8.379  0.3219 -0.5547  0.2818
   83CHL1   C27 8619   0.645   1.634   8.292  0.4161 -0.1166  0.3265
   83CHL1  H27A 8620   0.654   1.616   8.402 -1.6806 -0.2482  0.5110
   83CHL1  H27B 8621   0.544   1.674   8.270  0.6511  1.9893  2.6241
   83CHL1  H27C 8622   0.647   1.531   8.249 -0.7129 -0.4742  1.0924
   84CHL1    C3 8623   4.648   3.578   6.489 -0.6168 -0.0463 -0.0075
   84CHL1    H3 8624   4.752   3.593   6.454  0.6421 -2.6935  2.2546
   84CHL1    O3 8625   4.571   3.547   6.377 -0.2411 -0.0159 -0.5304
   84CHL1   H3' 8626   4.528   3.464   6.398  0.6362 -0.1787  0.8042
   84CHL1    C4 8627   4.628   3.463   6.589 -0.3493  0.2169  0.1710
   84CHL1   H4A 8628   4.520   3.439   6.594 -0.3480  0.2776  0.5573
   84CHL1   H4B 8629   4.675   3.377   6.538  0.5881  0.8931 -0.1303
   84CHL1    C5 8630   4.667   3.475   6.731 -0.0749 -0.1815  0.3968
   84CHL1    C6 8631   4.734   3.382   6.797  0.1004  0.4469  0.1521
   84CHL1    H6 8632   4.774   3.291   6.749 -0.1722 -0.4513  1.5617
   84CHL1    C7 8633   4.777   3.394   6.940 -0.0496 -1.0069  0.0281
   84CHL1   H7A 8634   4.774   3.293   6.985  1.3633 -0.7773  0.6785
   84CHL1   H7B 8635   4.884   3.423   6.945 -0.3135 -0.2082  2.5498
   84CHL1    C8 8636   4.708   3.518   7.008  0.1037  0.7732 -0.4713
   84CHL1    H8 8637   4.607   3.483   7.037  1.2817 -3.0000 -0.3298
   84CHL1   C14 8638   4.793   3.544   7.133 -0.4220 -0.4175  0.1747
   84CHL1   H14 8639   4.889   3.577   7.088  0.1279 -0.4245  1.3189
   84CHL1   C15 8640   4.821   3.421   7.233  0.1071  0.0032  0.1225
   84CHL1  H15A 8641   4.722   3.374   7.250  0.3108 -0.1192  0.9724
   84CHL1  H15B 8642   4.888   3.344   7.189  0.5318 -0.2991  1.2732
   84CHL1   C16 8643   4.879   3.503   7.347 -0.4090  0.2184 -0.5341
   84CHL1  H16A 8644   4.835   3.448   7.433 -2.6065  1.1794 -0.9729
   84CHL1  H16B 8645   4.989   3.498   7.358 -0.5553 -0.7934  0.6145
   84CHL1   C17 8646   4.830   3.647   7.335  0.7098  0.4781 -0.1960
   84CHL1   H17 8647   4.918   3.704   7.297 -0.0181  1.1824 -0.8462
   84CHL1   C13 8648   4.728   3.655   7.216 -0.6829 -0.6657 -0.1828
   84CHL1   C18 8649   4.595   3.608   7.269 -0.1499 -0.2646 -0.0817
   84CHL1  H18A 8650   4.563   3.687   7.340  3.1942 -0.2877  1.6434
   84CHL1  H18B 8651   4.520   3.589   7.189  0.4483  0.3257 -0.7895
   84CHL1  H18C 8652   4.581   3.518   7.332 -2.8089  0.0521 -0.0845
   84CHL1   C12 8653   4.738   3.779   7.124 -0.5666  0.4438  0.0829
   84CHL1  H12A 8654   4.688   3.860   7.182  0.3745  0.0787  1.4537
   84CHL1  H12B 8655   4.844   3.812   7.111 -1.3615  3.7183  0.8543
   84CHL1   C11 8656   4.667   3.760   6.991  0.6858  0.3833  1.1070
   84CHL1  H11A 8657   4.560   3.760   7.022  0.3375  2.4360  0.0763
   84CHL1  H11B 8658   4.691   3.854   6.937  0.5303 -0.2907 -0.1762
   84CHL1    C9 8659   4.705   3.632   6.922 -1.1053 -0.1413  0.4488
   84CHL1    H9 8660   4.811   3.644   6.889 -0.3664 -1.4696  2.2145
   84CHL1   C10 8661   4.632   3.606   6.789 -1.0318  0.6328 -0.3688
   84CHL1   C19 8662   4.479   3.609   6.817  0.2758 -0.0865 -0.0235
   84CHL1  H19A 8663   4.448   3.517   6.872 -0.1404  0.9550  1.5276
   84CHL1  H19B 8664   4.446   3.697   6.875 -0.0100  0.3952 -0.8920
   84CHL1  H19C 8665   4.430   3.608   6.717  1.9267 -1.0628 -0.8783
   84CHL1    C1 8666   4.665   3.729   6.696 -0.0350 -0.8692  0.3274
   84CHL1   H1A 8667   4.621   3.820   6.742  2.1772  1.6665 -2.1597
   84CHL1   H1B 8668   4.771   3.762   6.702 -0.5619  0.6254  2.3882
   84CHL1    C2 8669   4.609   3.705   6.552  0.2935 -0.6203 -0.1580
   84CHL1   H2A 8670   4.647   3.789   6.491  1.6166 -0.9483  0.1953
   84CHL1   H2B 8671   4.498   3.710   6.562  0.1327 -2.9070 -0.2764
   84CHL1   C20 8672   4.792   3.715   7.468 -0.1500 -0.0025  0.4228
   84CHL1   H20 8673   4.695   3.677   7.505 -1.0245  2.0740  0.4031
   84CHL1   C21 8674   4.776   3.870   7.450 -0.1585 -0.0478  0.1220
   84CHL1  H21A 8675   4.760   3.917   7.550  3.2412 -2.1237  1.8443
   84CHL1  H21B 8676   4.682   3.895   7.398  0.0062 -0.7658 -0.5361
   84CHL1  H21C 8677   4.861   3.916   7.395 -0.6303  0.0293 -0.5510
   84CHL1   C22 8678   4.907   3.690   7.577 -0.2888 -0.7448  0.4931
   84CHL1  H22A 8679   4.955   3.590   7.575  1.5022  0.0619  0.8755
   84CHL1  H22B 8680   4.990   3.759   7.550 -0.8191 -0.7201 -1.1771
   84CHL1   C23 8681   4.845   3.718   7.717  0.5903  0.1227  0.3865
   84CHL1  H23A 8682   4.763   3.793   7.712  0.3589 -0.1073  0.6706
   84CHL1  H23B 8683   4.788   3.624   7.732  0.0058 -0.2459 -3.1405
   84CHL1   C24 8684   4.955   3.748   7.818  1.1040  0.3626  0.7734
   84CHL1  H24A 8685   5.015   3.655   7.829  0.8209  0.2918  1.9060
   84CHL1  H24B 8686   5.016   3.824   7.765 -2.3457  2.2938 -0.7343
   84CHL1   C25 8687   4.906   3.789   7.960 -0.2988 -0.0130 -0.0781
   84CHL1   H25 8688   4.823   3.717   7.978  0.8823 -1.6754 -1.0539
   84CHL1   C26 8689   5.019   3.767   8.054  0.3341 -0.5165 -1.1405
   84CHL1  H26A 8690   5.106   3.834   8.036  1.1104 -1.2475 -0.1883
   84CHL1  H26B 8691   4.990   3.773   8.161  1.4993 -0.7348 -0.7984
   84CHL1  H26C 8692   5.058   3.664   8.038  0.4716 -0.5664 -0.5174
   84CHL1   C27 8693   4.844   3.930   7.969  0.2077  0.2933  0.0643
   84CHL1  H27A 8694   4.771   3.945   7.886  1.0013  0.8032 -0.5562
   84CHL1  H27B 8695   4.796   3.931   8.069  3.4504  1.2594  1.7529
   84CHL1  H27C 8696   4.921   4.009   7.956  1.7890 -1.2649 -0.2669
   85CHL1    C3 8697   2.583   1.496  10.133  0.7101 -0.3635 -0.4413
   85CHL1    H3 8698   2.486   1.543  10.106 -0.2880 -1.7529  0.5965
   85CHL1    O3 8699   2.601   1.491  10.272 -0.4028 -0.0560 -0.2281
   85CHL1   H3' 8700   2.688   1.456  10.291  0.7130  2.5164 -0.3016
   85CHL1    C4 8701   2.583   1.352  10.084 -0.0812  0.7006  0.1585
   85CHL1   H4A 8702   2.679   1.314  10.123 -1.6743 -2.6008  1.1886
   85CHL1   H4B 8703   2.507   1.298  10.144 -0.9058  3.3481  1.6436
   85CHL1    C5 8704   2.588   1.333   9.932 -0.5379 -0.2381  0.8302
   85CHL1    C6 8705   2.508   1.249   9.866  0.5797  0.1432  1.1003
   85CHL1    H6 8706   2.438   1.182   9.918  1.1645 -0.6246  0.9081
   85CHL1    C7 8707   2.524   1.226   9.718  0.8273 -0.1392  0.5252
   85CHL1   H7A 8708   2.509   1.120   9.687  0.2339  0.0223  0.2445
   85CHL1   H7B 8709   2.440   1.274   9.663  0.7008 -0.0978  0.7536
   85CHL1    C8 8710   2.645   1.287   9.647  0.2377  0.5662  0.0301
   85CHL1    H8 8711   2.734   1.220   9.657  0.7231  1.2381  0.2588
   85CHL1   C14 8712   2.628   1.316   9.494 -0.6357 -0.0495  1.1051
   85CHL1   H14 8713   2.543   1.387   9.503 -0.9996 -0.4898  1.1444
   85CHL1   C15 8714   2.575   1.207   9.411  0.1037  0.2888  0.0401
   85CHL1  H15A 8715   2.612   1.103   9.423 -1.7223 -0.3448  0.6434
   85CHL1  H15B 8716   2.465   1.201   9.428  0.1972  0.5053  0.7581
   85CHL1   C16 8717   2.601   1.249   9.271 -0.3855  0.0311  0.7842
   85CHL1  H16A 8718   2.664   1.173   9.220  2.1118  2.5771 -0.1998
   85CHL1  H16B 8719   2.512   1.281   9.213 -0.1318 -0.8298 -0.1182
   85CHL1   C17 8720   2.693   1.381   9.278  0.6871  0.5210 -0.6513
   85CHL1   H17 8721   2.631   1.473   9.271 -1.5373 -1.0438 -5.0413
   85CHL1   C13 8722   2.743   1.382   9.424  0.2259 -1.3436  0.1513
   85CHL1   C18 8723   2.865   1.288   9.426 -0.0066  0.0977  0.2690
   85CHL1  H18A 8724   2.883   1.247   9.528 -1.0511 -0.6015  0.1879
   85CHL1  H18B 8725   2.856   1.205   9.353  1.9009  1.7271 -1.9966
   85CHL1  H18C 8726   2.953   1.348   9.394 -1.4854  2.7871  0.9894
   85CHL1   C12 8727   2.780   1.514   9.491 -0.3782 -0.6208 -0.1744
   85CHL1  H12A 8728   2.868   1.576   9.464  0.4731 -1.2273  1.0920
   85CHL1  H12B 8729   2.689   1.574   9.472 -0.6209 -0.9652 -0.1125
   85CHL1   C11 8730   2.797   1.494   9.646  0.3139 -0.3597  0.2490
   85CHL1  H11A 8731   2.891   1.436   9.664  0.6428  0.3683  0.9365
   85CHL1  H11B 8732   2.817   1.598   9.680 -1.0932 -0.4755  1.5330
   85CHL1    C9 8733   2.685   1.422   9.717  0.5875 -0.1742 -0.7333
   85CHL1    H9 8734   2.592   1.481   9.698  0.3084 -0.2614  0.2957
   85CHL1   C10 8735   2.695   1.423   9.867 -0.8137  0.4814  0.6522
   85CHL1   C19 8736   2.838   1.366   9.898  0.5233  0.5862 -0.3481
   85CHL1  H19A 8737   2.919   1.442   9.895  0.4420  0.6529 -0.8942
   85CHL1  H19B 8738   2.836   1.329  10.003  0.0044 -0.3043 -0.6593
   85CHL1  H19C 8739   2.872   1.279   9.839  3.0766  0.5932  0.9693
   85CHL1    C1 8740   2.679   1.570   9.921 -0.8701 -0.2402  0.1509
   85CHL1   H1A 8741   2.761   1.630   9.876  1.0709 -0.0769  3.5709
   85CHL1   H1B 8742   2.579   1.603   9.886 -0.7405  0.5867  0.5300
   85CHL1    C2 8743   2.698   1.577  10.072 -0.6679 -0.2820  0.0005
   85CHL1   H2A 8744   2.677   1.682  10.100 -0.4963 -0.5878  1.3580
   85CHL1   H2B 8745   2.795   1.542  10.113 -0.3532 -2.2451 -2.2348
   85CHL1   C20 8746   2.789   1.393   9.157 -0.0621 -0.1344  0.2947
   85CHL1   H20 8747   2.858   1.306   9.162 -1.0269 -0.8685  1.1345
   85CHL1   C21 8748   2.887   1.508   9.180 -0.8177 -0.4668  0.5049
   85CHL1  H21A 8749   2.836   1.595   9.227  0.4742 -0.5789  2.1873
   85CHL1  H21B 8750   2.931   1.546   9.085  1.1380 -1.6112  0.9020
   85CHL1  H21C 8751   2.970   1.501   9.253  1.8500  3.1974 -1.8260
   85CHL1   C22 8752   2.721   1.408   9.019  0.3500  0.0395  0.6664
   85CHL1  H22A 8753   2.631   1.344   9.018  0.6247 -0.4111  1.9976
   85CHL1  H22B 8754   2.682   1.511   9.004 -0.3441 -0.5695 -2.3980
   85CHL1   C23 8755   2.815   1.361   8.908  0.1508  0.0587  0.4841
   85CHL1  H23A 8756   2.915   1.405   8.924  0.1111  0.3249  0.0112
   85CHL1  H23B 8757   2.816   1.250   8.910  1.3263  0.0622  1.2802
   85CHL1   C24 8758   2.775   1.409   8.767  0.2058 -0.6502 -0.2823
   85CHL1  H24A 8759   2.666   1.393   8.752 -0.4602  1.4980  1.6357
   85CHL1  H24B 8760   2.791   1.519   8.775 -0.7553 -0.5592  0.6611
   85CHL1   C25 8761   2.857   1.358   8.658  0.3148  0.5845  0.3475
   85CHL1   H25 8762   2.843   1.249   8.645  0.8117  0.5311  0.2150
   85CHL1   C26 8763   2.814   1.424   8.524  0.2866  0.2868 -0.0229
   85CHL1  H26A 8764   2.888   1.402   8.443  0.0361 -2.0467  0.3023
   85CHL1  H26B 8765   2.712   1.394   8.493 -0.1167  1.4464  0.1585
   85CHL1  H26C 8766   2.821   1.534   8.540  2.6752 -0.1356  2.5578
   85CHL1   C27 8767   3.007   1.387   8.670 -0.2484 -0.7633 -0.0406
   85CHL1  H27A 8768   3.063   1.350   8.581 -0.1945 -1.8106  0.4155
   85CHL1  H27B 8769   3.026   1.496   8.684  2.1598 -1.2185  0.7933
   85CHL1  H27C 8770   3.060   1.341   8.756  0.0082  1.0404  0.8219
   86CHL1    C3 8771   4.911   6.591   7.021  0.3930  0.1371 -0.7513
   86CHL1    H3 8772   4.932   6.697   7.047  2.3780 -0.5969  0.9117
   86CHL1    O3 8773   4.960   6.549   6.893  0.0926 -0.0517  0.1013
   86CHL1   H3' 8774   4.911   6.471   6.866 -0.1623  0.0267  0.3329
   86CHL1    C4 8775   4.984   6.498   7.128 -0.1040 -0.8794 -0.1405
   86CHL1   H4A 8776   4.976   6.388   7.117 -1.1830 -0.8464  0.1867
   86CHL1   H4B 8777   5.092   6.518   7.112  0.1800 -1.4578  1.0022
   86CHL1    C5 8778   4.940   6.522   7.264  0.4303 -0.0463 -0.1623
   86CHL1    C6 8779   5.021   6.567   7.357 -0.1266 -0.1927 -0.1948
   86CHL1    H6 8780   5.126   6.591   7.335  0.0586  1.5727  2.1428
   86CHL1    C7 8781   4.977   6.592   7.500 -0.3873 -0.8395 -0.1403
   86CHL1   H7A 8782   5.055   6.557   7.570 -0.1992 -1.7081 -0.7660
   86CHL1   H7B 8783   4.963   6.701   7.511  0.5087 -0.7600  0.2450
   86CHL1    C8 8784   4.846   6.526   7.538 -0.0839 -0.5433 -0.1897
   86CHL1    H8 8785   4.862   6.417   7.550 -0.8241 -0.3864  2.9507
   86CHL1   C14 8786   4.803   6.591   7.674  0.3823  0.1730  0.1222
   86CHL1   H14 8787   4.793   6.697   7.641 -2.0141 -0.3991 -1.2161
   86CHL1   C15 8788   4.887   6.582   7.813  0.2637 -0.1012  0.0497
   86CHL1  H15A 8789   4.967   6.505   7.811  0.9215  0.5728 -1.2184
   86CHL1  H15B 8790   4.954   6.670   7.818  1.6627 -1.1501  0.5775
   86CHL1   C16 8791   4.782   6.594   7.922 -0.3396 -0.2270  0.3281
   86CHL1  H16A 8792   4.783   6.500   7.981 -0.8177  0.6303  1.7583
   86CHL1  H16B 8793   4.809   6.662   8.006 -1.2908 -0.7698  1.1025
   86CHL1   C17 8794   4.648   6.632   7.848  0.3565  0.0634  0.8892
   86CHL1   H17 8795   4.653   6.741   7.827  0.4567 -0.2110 -0.6673
   86CHL1   C13 8796   4.657   6.551   7.717 -0.5395 -0.0739  0.1621
   86CHL1   C18 8797   4.666   6.398   7.755 -0.0776  0.1095  0.0494
   86CHL1  H18A 8798   4.740   6.371   7.834  3.0245  0.1996 -2.6235
   86CHL1  H18B 8799   4.564   6.370   7.791  0.7576 -1.3788  1.4023
   86CHL1  H18C 8800   4.688   6.340   7.663 -0.9733 -1.2235  0.6453
   86CHL1   C12 8801   4.560   6.580   7.600 -0.2986  0.0218  0.2171
   86CHL1  H12A 8802   4.461   6.540   7.631 -0.5527  1.1798  0.9725
   86CHL1  H12B 8803   4.554   6.688   7.578  1.1601  0.3951  1.4878
   86CHL1   C11 8804   4.602   6.524   7.467 -0.4044  0.4950 -0.4578
   86CHL1  H11A 8805   4.591   6.413   7.478 -0.6122  0.6101  0.6633
   86CHL1  H11B 8806   4.534   6.561   7.388 -0.5179  0.1885 -0.5078
   86CHL1    C9 8807   4.747   6.558   7.433 -0.0766  0.2655 -0.1151
   86CHL1    H9 8808   4.736   6.668   7.426  0.2244  0.3854  1.1651
   86CHL1   C10 8809   4.788   6.505   7.288  0.1968  0.2986 -0.5645
   86CHL1   C19 8810   4.760   6.351   7.287 -0.0916 -0.3628 -0.1979
   86CHL1  H19A 8811   4.805   6.293   7.371 -2.4938 -2.0568  0.0418
   86CHL1  H19B 8812   4.651   6.329   7.282  0.0746 -0.8410 -2.9016
   86CHL1  H19C 8813   4.795   6.302   7.193  1.8673 -2.6274  1.5569
   86CHL1    C1 8814   4.705   6.579   7.177 -0.0704  0.0604  0.6554
   86CHL1   H1A 8815   4.595   6.563   7.174 -0.2063  1.0427 -0.0603
   86CHL1   H1B 8816   4.705   6.688   7.199  0.4967  0.0982  0.4928
   86CHL1    C2 8817   4.762   6.560   7.034  0.2863 -0.1000  0.2507
   86CHL1   H2A 8818   4.702   6.616   6.959  0.9425 -0.2801 -0.4247
   86CHL1   H2B 8819   4.746   6.454   7.008  0.4291  0.3446 -1.8521
   86CHL1   C20 8820   4.520   6.611   7.931  0.2112  0.1140  0.4051
   86CHL1   H20 8821   4.499   6.502   7.929  0.5332  0.0596 -1.4123
   86CHL1   C21 8822   4.409   6.694   7.861  0.2625  0.1041  0.1212
   86CHL1  H21A 8823   4.334   6.725   7.937 -0.0530  0.0038 -0.1483
   86CHL1  H21B 8824   4.354   6.622   7.797  1.1292 -0.0808 -0.4241
   86CHL1  H21C 8825   4.454   6.782   7.810  0.2127 -0.9352 -1.7908
   86CHL1   C22 8826   4.542   6.656   8.077  0.0019  0.2321  0.0444
   86CHL1  H22A 8827   4.445   6.646   8.130 -1.6518  1.3757 -2.6054
   86CHL1  H22B 8828   4.603   6.573   8.119 -2.3524 -2.6508 -1.8635
   86CHL1   C23 8829   4.580   6.807   8.112  1.2099  0.4451  0.4511
   86CHL1  H23A 8830   4.690   6.819   8.098  1.8762 -3.9512  0.5988
   86CHL1  H23B 8831   4.538   6.880   8.039 -1.8473  1.0680  2.6446
   86CHL1   C24 8832   4.528   6.857   8.253 -0.3566  0.6174  0.0506
   86CHL1  H24A 8833   4.418   6.845   8.268 -0.4525  1.2155 -0.1360
   86CHL1  H24B 8834   4.569   6.794   8.334 -0.8345 -0.1947 -0.3258
   86CHL1   C25 8835   4.564   7.010   8.274  0.0284 -0.5918 -0.5766
   86CHL1   H25 8836   4.508   7.065   8.196  0.6944  1.3467  0.2636
   86CHL1   C26 8837   4.526   7.068   8.411 -0.2820  0.1154  0.4116
   86CHL1  H26A 8838   4.526   6.983   8.483 -0.4970 -0.0985  0.1611
   86CHL1  H26B 8839   4.589   7.149   8.453  1.2190  0.2867 -1.9795
   86CHL1  H26C 8840   4.424   7.111   8.412  0.3622  1.7930  2.7955
   86CHL1   C27 8841   4.714   7.045   8.248  0.6906  0.4392 -0.4240
   86CHL1  H27A 8842   4.774   7.000   8.330 -3.4676 -0.5190  2.4126
   86CHL1  H27B 8843   4.750   7.022   8.145  0.8242  0.4546 -0.3803
   86CHL1  H27C 8844   4.718   7.153   8.275  0.8417  0.1948  0.5682
   87CHL1    C3 8845   3.621   4.955   6.457  0.0959  0.6912 -0.4405
   87CHL1    H3 8846   3.510   4.962   6.459 -0.1248 -1.6476 -1.4819
   87CHL1    O3 8847   3.651   4.969   6.320  0.1107 -0.2336 -0.2064
   87CHL1   H3' 8848   3.591   5.037   6.290 -0.0301 -0.0593  0.4406
   87CHL1    C4 8849   3.681   5.065   6.550  0.2131 -0.0365  0.8562
   87CHL1   H4A 8850   3.792   5.063   6.541  0.0307 -0.9518 -2.9847
   87CHL1   H4B 8851   3.649   5.164   6.512  2.2911  0.2949 -0.1324
   87CHL1    C5 8852   3.640   5.038   6.698  0.0105  0.6236 -0.0414
   87CHL1    C6 8853   3.577   5.134   6.766 -0.0427 -0.4494  0.5492
   87CHL1    H6 8854   3.570   5.231   6.715  0.3020 -1.1867 -0.9774
   87CHL1    C7 8855   3.534   5.125   6.901 -0.4182 -0.3569 -1.1585
   87CHL1   H7A 8856   3.557   5.214   6.964  0.0523  0.2483 -2.1481
   87CHL1   H7B 8857   3.426   5.100   6.903 -0.6878  0.7382  0.7518
   87CHL1    C8 8858   3.608   5.007   6.980 -0.6514 -0.6447 -0.1355
   87CHL1    H8 8859   3.711   5.040   7.005 -2.0188  1.5901  3.1636
   87CHL1   C14 8860   3.537   4.979   7.114 -0.1942 -0.1155  0.1846
   87CHL1   H14 8861   3.431   4.959   7.087 -0.4648 -0.1532  1.2268
   87CHL1   C15 8862   3.522   5.094   7.219 -0.0305 -0.4862  0.4455
   87CHL1  H15A 8863   3.600   5.172   7.208 -1.3923  0.6406 -1.9602
   87CHL1  H15B 8864   3.432   5.156   7.198  0.1143 -0.7830 -1.1191
   87CHL1   C16 8865   3.524   5.024   7.355  0.1399  0.3737 -0.6213
   87CHL1  H16A 8866   3.608   5.047   7.423 -1.2173 -0.2047  1.3351
   87CHL1  H16B 8867   3.423   5.044   7.396 -0.1897 -1.7862 -0.2450
   87CHL1   C17 8868   3.525   4.871   7.331  0.1567  0.5871  0.2419
   87CHL1   H17 8869   3.417   4.855   7.311  0.2661 -2.8049  1.7193
   87CHL1   C13 8870   3.590   4.857   7.191 -0.2581 -0.3946  0.8131
   87CHL1   C18 8871   3.741   4.862   7.212 -0.1252 -0.3000  0.4446
   87CHL1  H18A 8872   3.773   4.951   7.270 -1.4882  1.1353 -0.9072
   87CHL1  H18B 8873   3.772   4.777   7.276 -0.7328 -0.4203  0.5886
   87CHL1  H18C 8874   3.789   4.875   7.113 -0.6861  3.2325  0.5079
   87CHL1   C12 8875   3.565   4.725   7.100  0.2265  0.3731 -0.3947
   87CHL1  H12A 8876   3.611   4.641   7.156  1.0419  0.4990 -0.8645
   87CHL1  H12B 8877   3.458   4.697   7.087 -0.3623  2.3478 -0.1521
   87CHL1   C11 8878   3.626   4.749   6.962 -0.1604  1.3826 -0.5757
   87CHL1  H11A 8879   3.736   4.741   6.976 -0.4480 -0.8297  0.9895
   87CHL1  H11B 8880   3.591   4.665   6.899  2.4313 -1.4415  1.4411
   87CHL1    C9 8881   3.606   4.884   6.894  1.0064  0.4121 -0.5966
   87CHL1    H9 8882   3.499   4.873   6.869  0.2556  0.3607  2.3412
   87CHL1   C10 8883   3.675   4.906   6.757 -0.5551 -0.0397 -0.5681
   87CHL1   C19 8884   3.826   4.896   6.788 -0.4328  0.1419  0.2434
   87CHL1  H19A 8885   3.859   4.941   6.883 -0.4896 -2.2463  1.4832
   87CHL1  H19B 8886   3.856   4.790   6.803  0.1359  0.4047  0.9948
   87CHL1  H19C 8887   3.888   4.931   6.703 -1.7638  2.0488 -0.0175
   87CHL1    C1 8888   3.630   4.793   6.652 -0.3825  0.1124 -0.2837
   87CHL1   H1A 8889   3.662   4.693   6.687  0.3826  1.2392  2.4951
   87CHL1   H1B 8890   3.520   4.785   6.662 -0.1337 -0.1003  3.6934
   87CHL1    C2 8891   3.666   4.818   6.502  0.4127 -0.1899  0.3927
   87CHL1   H2A 8892   3.632   4.728   6.446  0.2915 -0.0710  0.2747
   87CHL1   H2B 8893   3.777   4.821   6.490  0.5064 -2.1597  0.3571
   87CHL1   C20 8894   3.542   4.774   7.447 -0.9242  0.3904 -0.5653
   87CHL1   H20 8895   3.573   4.676   7.405 -1.4747 -0.8195  1.7176
   87CHL1   C21 8896   3.406   4.761   7.519 -0.2202 -0.5085 -0.4405
   87CHL1  H21A 8897   3.332   4.712   7.452  0.7745  0.8237 -2.6129
   87CHL1  H21B 8898   3.378   4.864   7.552  1.7734  0.0886 -0.4830
   87CHL1  H21C 8899   3.427   4.704   7.612  0.0749  2.9696  1.8486
   87CHL1   C22 8900   3.657   4.822   7.545  0.3152 -0.4441  0.5110
   87CHL1  H22A 8901   3.740   4.857   7.481  1.4762 -1.2587  1.5344
   87CHL1  H22B 8902   3.614   4.903   7.608  1.1020 -0.1338  0.6539
   87CHL1   C23 8903   3.713   4.711   7.635  0.8182  0.6400 -0.6015
   87CHL1  H23A 8904   3.623   4.664   7.680  0.8456 -0.0066 -1.2033
   87CHL1  H23B 8905   3.767   4.643   7.567  1.6146  0.1086  0.5231
   87CHL1   C24 8906   3.810   4.771   7.735 -0.0652  0.2945  0.1226
   87CHL1  H24A 8907   3.889   4.803   7.664 -0.3626 -1.8709 -1.2775
   87CHL1  H24B 8908   3.770   4.861   7.787  1.1026 -0.6658  2.8812
   87CHL1   C25 8909   3.866   4.675   7.836  0.6350  0.0735 -0.2268
   87CHL1   H25 8910   3.957   4.724   7.876  0.8632 -1.2355  0.9574
   87CHL1   C26 8911   3.753   4.657   7.951  0.1183  0.0725  0.3448
   87CHL1  H26A 8912   3.747   4.743   8.021 -0.8468  0.9885 -0.7948
   87CHL1  H26B 8913   3.651   4.654   7.907  1.3901  0.8096 -2.9586
   87CHL1  H26C 8914   3.761   4.564   8.010  0.8477 -0.4863 -0.5930
   87CHL1   C27 8915   3.915   4.538   7.785  0.6956  0.4444  0.6932
   87CHL1  H27A 8916   3.954   4.478   7.870  0.2872 -2.7916 -1.2240
   87CHL1  H27B 8917   3.838   4.477   7.733 -0.0405  1.3829  0.6555
   87CHL1  H27C 8918   4.001   4.551   7.716  0.3672 -0.5061  0.0894
   88CHL1    C3 8919   3.217   3.384   6.876  0.0649  0.1651  0.1665
   88CHL1    H3 8920   3.287   3.299   6.863  1.1066  0.4722  3.0105
   88CHL1    O3 8921   3.171   3.425   6.749  0.5040 -0.4557  0.3242
   88CHL1   H3' 8922   3.223   3.503   6.727 -0.4310 -0.6623 -3.2256
   88CHL1    C4 8923   3.091   3.329   6.947 -0.5682 -0.0642  0.0424
   88CHL1   H4A 8924   3.021   3.415   6.938  0.7077  0.9240 -0.7125
   88CHL1   H4B 8925   3.060   3.247   6.878  2.6022 -1.9664  0.6350
   88CHL1    C5 8926   3.122   3.291   7.093  0.5847 -0.4898  0.3590
   88CHL1    C6 8927   3.085   3.176   7.146 -0.3817  0.5677 -0.0424
   88CHL1    H6 8928   3.030   3.096   7.095 -0.0336  0.2219  0.1227
   88CHL1    C7 8929   3.098   3.135   7.291  0.2840  0.1863  0.1458
   88CHL1   H7A 8930   3.008   3.087   7.334  0.0573  0.8962  0.4733
   88CHL1   H7B 8931   3.184   3.065   7.300  1.9178  1.9397 -0.8794
   88CHL1    C8 8932   3.134   3.256   7.369 -0.4024  0.5803 -0.3611
   88CHL1    H8 8933   3.037   3.300   7.400 -0.6036  0.7108 -1.1648
   88CHL1   C14 8934   3.188   3.216   7.514  0.6147  0.4091 -0.5850
   88CHL1   H14 8935   3.292   3.177   7.501 -0.2042 -1.5909 -1.5310
   88CHL1   C15 8936   3.103   3.105   7.599 -0.1256  0.2212 -0.0619
   88CHL1  H15A 8937   2.994   3.099   7.580 -0.1397 -2.1310  0.4795
   88CHL1  H15B 8938   3.150   3.010   7.565  2.1454  0.4364  2.1265
   88CHL1   C16 8939   3.125   3.143   7.747  0.7244  0.4271 -0.8571
   88CHL1  H16A 8940   3.024   3.172   7.782 -0.6587 -0.2515 -3.8989
   88CHL1  H16B 8941   3.156   3.055   7.807 -0.4114 -0.2445 -1.2155
   88CHL1   C17 8942   3.225   3.263   7.753 -0.8071 -0.6627  0.1683
   88CHL1   H17 8943   3.324   3.213   7.747  0.1272  0.3723  4.3305
   88CHL1   C13 8944   3.203   3.333   7.614 -0.8090 -0.5556 -0.4705
   88CHL1   C18 8945   3.071   3.412   7.634 -0.0724  0.4470 -0.5841
   88CHL1  H18A 8946   3.067   3.471   7.728 -0.0314 -0.7093  0.1619
   88CHL1  H18B 8947   3.049   3.475   7.545  2.1792  3.3644  0.7542
   88CHL1  H18C 8948   2.994   3.333   7.646  2.2882 -1.5741  3.2289
   88CHL1   C12 8949   3.315   3.425   7.556  0.1294 -0.5443 -0.0522
   88CHL1  H12A 8950   3.334   3.519   7.611  0.6516  0.8390 -2.4869
   88CHL1  H12B 8951   3.411   3.375   7.532  0.9397  1.3116 -0.8953
   88CHL1   C11 8952   3.265   3.472   7.419 -0.8623 -0.5550  0.6692
   88CHL1  H11A 8953   3.182   3.544   7.433  1.8757  3.3443 -1.1101
   88CHL1  H11B 8954   3.347   3.539   7.386 -1.7499 -1.0307 -2.9953
   88CHL1    C9 8955   3.235   3.358   7.313  1.0948  0.2798 -0.2908
   88CHL1    H9 8956   3.328   3.300   7.294 -0.6130 -2.5118 -0.7324
   88CHL1   C10 8957   3.183   3.410   7.172 -0.4784 -0.3116 -0.1253
   88CHL1   C19 8958   3.082   3.516   7.192  0.9157 -1.4766  0.4007
   88CHL1  H19A 8959   3.032   3.554   7.100 -0.0450 -0.2776  1.3811
   88CHL1  H19B 8960   3.009   3.487   7.270 -0.4487  0.3157 -0.1414
   88CHL1  H19C 8961   3.134   3.608   7.224  0.2433 -2.0027  3.2265
   88CHL1    C1 8962   3.311   3.452   7.094 -0.7988 -0.0390  0.0673
   88CHL1   H1A 8963   3.362   3.534   7.149  1.8057 -1.2103 -0.4499
   88CHL1   H1B 8964   3.388   3.371   7.094  1.0390  1.5964 -1.8340
   88CHL1    C2 8965   3.272   3.498   6.955  0.5907 -0.7900  0.2918
   88CHL1   H2A 8966   3.358   3.538   6.898  1.1531 -2.1733  0.1307
   88CHL1   H2B 8967   3.199   3.581   6.959  1.7422  0.2249  0.8694
   88CHL1   C20 8968   3.235   3.339   7.888  0.5579  0.1702  0.6819
   88CHL1   H20 8969   3.140   3.395   7.905  0.3036  0.8069 -2.3327
   88CHL1   C21 8970   3.340   3.446   7.875 -0.0913  0.7945  0.6139
   88CHL1  H21A 8971   3.426   3.418   7.809 -0.9495  0.8244 -0.5550
   88CHL1  H21B 8972   3.376   3.489   7.971  2.3171  1.6495 -0.5722
   88CHL1  H21C 8973   3.287   3.529   7.824 -1.8977 -0.0583  1.0441
   88CHL1   C22 8974   3.270   3.236   7.992  0.8143  0.0319  0.4607
   88CHL1  H22A 8975   3.200   3.150   7.983 -0.1941  0.7283  1.4631
   88CHL1  H22B 8976   3.370   3.195   7.963  1.2116  0.3261  1.3712
   88CHL1   C23 8977   3.280   3.291   8.140  0.1338  0.3846  0.9416
   88CHL1  H23A 8978   3.372   3.354   8.146  0.0062  1.1715 -2.6431
   88CHL1  H23B 8979   3.193   3.358   8.155 -1.0615 -1.2367  1.4170
   88CHL1   C24 8980   3.290   3.178   8.239 -0.2808  0.2625 -0.1884
   88CHL1  H24A 8981   3.318   3.225   8.336 -1.4361 -0.3433  0.4600
   88CHL1  H24B 8982   3.193   3.126   8.247 -0.2066 -0.5468 -3.3294
   88CHL1   C25 8983   3.411   3.083   8.202  0.2242  0.0308 -0.5946
   88CHL1   H25 8984   3.378   3.019   8.118 -1.2204 -1.8315  1.2817
   88CHL1   C26 8985   3.543   3.153   8.172 -0.3003 -0.2239 -0.3424
   88CHL1  H26A 8986   3.535   3.227   8.089 -3.7942  2.0066  1.7138
   88CHL1  H26B 8987   3.581   3.206   8.262  0.9963 -0.9933 -0.4154
   88CHL1  H26C 8988   3.611   3.071   8.141  1.0342  1.7286 -3.0358
   88CHL1   C27 8989   3.448   2.989   8.316  1.0077  0.0849 -0.5397
   88CHL1  H27A 8990   3.484   3.034   8.411  2.6402  1.4368 -1.7269
   88CHL1  H27B 8991   3.363   2.927   8.350  0.9343  0.3372 -0.2579
   88CHL1  H27C 8992   3.536   2.925   8.294 -0.0493 -1.6853  0.2602
   89CHL1    C3 8993   5.853   0.702   6.832 -0.0299  0.3109  0.5337
   89CHL1    H3 8994   5.765   0.638   6.857  0.5087  0.0654  1.9244
   89CHL1    O3 8995   5.863   0.745   6.694 -0.6116 -0.0496 -0.4055
   89CHL1   H3' 8996   5.921   0.821   6.698 -1.4274  0.6144 -1.0172
   89CHL1    C4 8997   5.863   0.821   6.923  0.3479  0.7369 -0.0958
   89CHL1   H4A 8998   5.953   0.878   6.891  1.5260 -1.1574 -0.3008
   89CHL1   H4B 8999   5.777   0.890   6.907  1.1287  1.9918  0.9573
   89CHL1    C5 9000   5.872   0.779   7.068 -0.0389  0.3614 -0.0043
   89CHL1    C6 9001   5.771   0.798   7.152 -0.2054 -0.5369 -0.2102
   89CHL1    H6 9002   5.682   0.853   7.120 -0.5346 -1.1932 -0.4287
   89CHL1    C7 9003   5.758   0.748   7.297 -0.0997 -0.3050 -0.0666
   89CHL1   H7A 9004   5.710   0.824   7.363 -0.2401 -1.4101  1.1276
   89CHL1   H7B 9005   5.694   0.658   7.304 -0.4562  0.0951  3.1156
   89CHL1    C8 9006   5.898   0.710   7.351  0.4519  0.5057  0.0824
   89CHL1    H8 9007   5.961   0.801   7.357  0.8673  0.3491 -1.5483
   89CHL1   C14 9008   5.877   0.643   7.485  0.8663  0.1367 -1.1901
   89CHL1   H14 9009   5.825   0.545   7.472  0.0645  0.3714  0.0722
   89CHL1   C15 9010   5.794   0.715   7.587 -0.1146 -0.4910  0.1606
   89CHL1  H15A 9011   5.821   0.823   7.576 -1.4754 -0.3278 -2.5638
   89CHL1  H15B 9012   5.685   0.697   7.577 -0.1417  0.0390 -0.6583
   89CHL1   C16 9013   5.839   0.654   7.725  0.0733 -0.3165  0.1595
   89CHL1  H16A 9014   5.869   0.747   7.778 -2.3749  2.5974 -3.1350
   89CHL1  H16B 9015   5.759   0.598   7.777  0.4222  2.4745  4.1263
   89CHL1   C17 9016   5.952   0.554   7.691 -0.3350 -0.0716  0.3990
   89CHL1   H17 9017   5.900   0.456   7.685 -1.7460  0.6854 -0.1040
   89CHL1   C13 9018   6.005   0.597   7.550 -1.1571  0.1638 -0.0643
   89CHL1   C18 9019   6.109   0.716   7.564  0.4191 -0.6327  0.4332
   89CHL1  H18A 9020   6.196   0.668   7.613  2.4413  1.2513 -1.0831
   89CHL1  H18B 9021   6.141   0.757   7.466 -0.5436  2.1660  1.1757
   89CHL1  H18C 9022   6.058   0.794   7.625  2.3713  0.5588  0.6206
   89CHL1   C12 9023   6.060   0.482   7.451  0.5287  0.4745 -0.5020
   89CHL1  H12A 9024   6.157   0.446   7.492 -0.3379  0.7806  1.9915
   89CHL1  H12B 9025   5.991   0.396   7.446  0.6132  0.4605 -1.5908
   89CHL1   C11 9026   6.085   0.543   7.311  0.5837 -0.0874  0.3496
   89CHL1  H11A 9027   6.168   0.614   7.331 -0.6202  0.7815  2.7561
   89CHL1  H11B 9028   6.121   0.460   7.246 -1.4287 -2.3754  1.9752
   89CHL1    C9 9029   5.967   0.622   7.244  0.1957 -0.2395 -0.7463
   89CHL1    H9 9030   5.891   0.545   7.220  0.0792  0.1053 -1.5137
   89CHL1   C10 9031   5.989   0.686   7.108  0.0266 -0.2983  0.3602
   89CHL1   C19 9032   6.119   0.772   7.101 -0.1026 -0.1250 -0.6092
   89CHL1  H19A 9033   6.118   0.860   7.168 -1.4354 -0.5421 -0.0501
   89CHL1  H19B 9034   6.207   0.709   7.128 -0.6012 -1.3512 -1.7639
   89CHL1  H19C 9035   6.140   0.816   7.002 -0.1581 -0.8629 -0.9571
   89CHL1    C1 9036   6.000   0.574   7.005  0.7816 -0.2096  0.2703
   89CHL1   H1A 9037   6.090   0.510   7.017  1.1896 -0.1687 -2.1033
   89CHL1   H1B 9038   5.916   0.504   7.027  0.2404 -0.3869 -2.1199
   89CHL1    C2 9039   5.980   0.614   6.859 -0.8749 -0.6097 -0.0496
   89CHL1   H2A 9040   5.977   0.518   6.804  2.0972  0.1837 -1.8428
   89CHL1   H2B 9041   6.062   0.681   6.825 -2.1304  0.1470 -1.7518
   89CHL1   C20 9042   6.048   0.544   7.816 -0.3760  0.0391 -0.2569
   89CHL1   H20 9043   6.097   0.644   7.817 -0.3333  0.0506 -1.9193
   89CHL1   C21 9044   6.156   0.431   7.790 -0.1328  0.0453 -0.7747
   89CHL1  H21A 9045   6.093   0.340   7.787  1.7234 -1.3610  0.8499
   89CHL1  H21B 9046   6.222   0.428   7.879  0.0837  0.7107 -0.9075
   89CHL1  H21C 9047   6.224   0.433   7.702  1.8519 -1.0801  0.6696
   89CHL1   C22 9048   5.983   0.510   7.953  0.3639  0.6991 -0.3569
   89CHL1  H22A 9049   5.924   0.594   7.996 -1.6035 -0.6637 -0.2385
   89CHL1  H22B 9050   5.915   0.423   7.935 -1.5738  1.9752  0.4349
   89CHL1   C23 9051   6.076   0.470   8.071  0.1180  0.0268 -0.6668
   89CHL1  H23A 9052   6.113   0.368   8.047  2.0611 -0.2431  2.7680
   89CHL1  H23B 9053   6.163   0.539   8.066  1.4463 -1.6369 -2.5642
   89CHL1   C24 9054   6.004   0.471   8.211 -0.1712 -0.4807 -0.0130
   89CHL1  H24A 9055   5.958   0.571   8.227  1.0018  0.3616 -1.5411
   89CHL1  H24B 9056   5.916   0.404   8.212  0.5569 -1.4672  0.0313
   89CHL1   C25 9057   6.082   0.441   8.336 -0.6858  0.5219 -0.3238
   89CHL1   H25 9058   6.139   0.531   8.366 -2.7396  2.0567 -0.8356
   89CHL1   C26 9059   5.996   0.414   8.467 -0.0499 -0.5388 -0.0441
   89CHL1  H26A 9060   5.931   0.327   8.445 -2.2261  0.7923  0.7573
   89CHL1  H26B 9061   6.058   0.399   8.558  0.5413  2.3448  0.1352
   89CHL1  H26C 9062   5.924   0.498   8.483  0.1997 -0.1212 -1.0208
   89CHL1   C27 9063   6.180   0.329   8.297  0.6489  0.2023 -0.0438
   89CHL1  H27A 9064   6.258   0.358   8.224 -0.4073 -2.2222 -2.3082
   89CHL1  H27B 9065   6.226   0.306   8.396  0.2844  1.8431  0.5285
   89CHL1  H27C 9066   6.122   0.238   8.267  0.5963  0.0109  0.6218
   90CHL1    C3 9067   4.898   1.390   6.866 -0.1231 -0.0484  0.0635
   90CHL1    H3 9068   4.814   1.318   6.868  1.5199 -2.0909 -0.1534
   90CHL1    O3 9069   4.936   1.432   6.735  0.0453  0.4675 -0.8089
   90CHL1   H3' 9070   5.024   1.470   6.745  0.3532  0.0229 -1.6686
   90CHL1    C4 9071   4.864   1.516   6.941 -0.2624 -0.5803  0.6296
   90CHL1   H4A 9072   4.957   1.577   6.932 -1.4219  1.0956 -0.8440
   90CHL1   H4B 9073   4.784   1.577   6.894  0.9403  0.1038 -0.6157
   90CHL1    C5 9074   4.831   1.487   7.084 -0.5114  0.2032 -0.2591
   90CHL1    C6 9075   4.712   1.523   7.137 -0.4011 -0.2746  0.0850
   90CHL1    H6 9076   4.640   1.588   7.086  0.6605  2.2820  1.6367
   90CHL1    C7 9077   4.678   1.506   7.281 -0.0782  0.1652 -0.2342
   90CHL1   H7A 9078   4.628   1.594   7.326  0.4029 -0.0716  0.7940
   90CHL1   H7B 9079   4.603   1.424   7.293  0.8530 -0.4253  1.9444
   90CHL1    C8 9080   4.804   1.474   7.368 -0.3465  0.0126  0.1818
   90CHL1    H8 9081   4.865   1.567   7.372  0.2722 -0.4311  1.4230
   90CHL1   C14 9082   4.766   1.439   7.506 -0.2585 -0.3655 -0.1718
   90CHL1   H14 9083   4.722   1.337   7.508  0.5643 -0.7558  2.6629
   90CHL1   C15 9084   4.663   1.543   7.566  0.1821  0.7186  0.5575
   90CHL1  H15A 9085   4.703   1.646   7.552 -0.0074  0.6100 -0.9556
   90CHL1  H15B 9086   4.562   1.543   7.521  0.0379  0.7263  0.8814
   90CHL1   C16 9087   4.676   1.504   7.719 -0.7136 -0.8527  0.0987
   90CHL1  H16A 9088   4.694   1.596   7.779  1.8183 -1.4360  0.3353
   90CHL1  H16B 9089   4.582   1.458   7.757 -1.5341 -0.0029 -0.8782
   90CHL1   C17 9090   4.787   1.398   7.738  0.0063 -0.0656 -1.3175
   90CHL1   H17 9091   4.734   1.301   7.732  1.8312 -1.3085  0.8752
   90CHL1   C13 9092   4.880   1.413   7.609  0.9770 -0.0237  0.3766
   90CHL1   C18 9093   4.973   1.534   7.643 -0.2980 -0.7037 -0.2441
   90CHL1  H18A 9094   5.022   1.581   7.556  0.7539 -0.5400  0.4149
   90CHL1  H18B 9095   4.916   1.617   7.691  0.4781  0.0406 -0.6034
   90CHL1  H18C 9096   5.062   1.497   7.698  1.0686  1.6164 -0.8078
   90CHL1   C12 9097   4.952   1.293   7.548 -0.0828 -0.6523  0.2547
   90CHL1  H12A 9098   5.039   1.267   7.613 -1.2822  1.5569  2.9694
   90CHL1  H12B 9099   4.883   1.206   7.542 -0.4251 -0.2626 -2.3277
   90CHL1   C11 9100   4.998   1.322   7.408 -0.6811 -0.2846 -0.1415
   90CHL1  H11A 9101   5.073   1.403   7.414 -1.0409 -0.0772  2.4203
   90CHL1  H11B 9102   5.041   1.226   7.371 -1.8886 -0.5263 -0.9771
   90CHL1    C9 9103   4.890   1.362   7.304  0.2789 -0.0835  0.4797
   90CHL1    H9 9104   4.832   1.269   7.284  0.3906  0.4500 -2.7578
   90CHL1   C10 9105   4.939   1.414   7.170  0.0416 -0.5350  0.2441
   90CHL1   C19 9106   5.059   1.503   7.190 -0.3392 -0.2737  0.0655
   90CHL1  H19A 9107   5.102   1.535   7.093  0.3634 -2.8714 -0.5544
   90CHL1  H19B 9108   5.038   1.599   7.243  0.1015 -0.0162 -0.2210
   90CHL1  H19C 9109   5.145   1.453   7.241 -0.6381 -0.8811 -0.0226
   90CHL1    C1 9110   4.995   1.289   7.084  0.0071 -0.5874 -0.0637
   90CHL1   H1A 9111   5.088   1.252   7.133 -0.5779 -2.4165 -0.2992
   90CHL1   H1B 9112   4.915   1.214   7.100  0.0733 -0.5841  0.3018
   90CHL1    C2 9113   5.016   1.313   6.937  0.5178 -0.0816  0.0768
   90CHL1   H2A 9114   5.032   1.220   6.879 -3.6392 -0.0142 -1.4755
   90CHL1   H2B 9115   5.101   1.383   6.927  0.1512  0.2647 -0.7129
   90CHL1   C20 9116   4.848   1.391   7.879 -0.5515 -0.0938 -0.0456
   90CHL1   H20 9117   4.890   1.493   7.892  1.3216 -0.6962 -1.0325
   90CHL1   C21 9118   4.967   1.291   7.874  0.4943  0.9918  0.1029
   90CHL1  H21A 9119   4.993   1.261   7.978 -2.3634 -0.0778  0.5743
   90CHL1  H21B 9120   5.054   1.327   7.814  1.5634 -0.9299  0.4295
   90CHL1  H21C 9121   4.923   1.203   7.823  1.0466  0.7796 -0.0147
   90CHL1   C22 9122   4.741   1.349   7.988 -0.3976 -0.3293  0.2081
   90CHL1  H22A 9123   4.643   1.391   7.957  0.2443  1.5745  0.6110
   90CHL1  H22B 9124   4.738   1.238   7.987  0.1249 -0.3493  0.3760
   90CHL1   C23 9125   4.768   1.396   8.131 -0.4187  1.1332  0.5072
   90CHL1  H23A 9126   4.861   1.342   8.158 -0.5508 -0.0622 -1.2658
   90CHL1  H23B 9127   4.785   1.506   8.132  0.3994  1.0139  0.9270
   90CHL1   C24 9128   4.672   1.361   8.246  0.0486 -0.4496  0.1398
   90CHL1  H24A 9129   4.576   1.416   8.237 -0.1937 -1.1319 -1.8682
   90CHL1  H24B 9130   4.650   1.253   8.251  1.3797 -0.7511  0.0139
   90CHL1   C25 9131   4.732   1.396   8.386  0.3209  0.3071  0.1089
   90CHL1   H25 9132   4.832   1.350   8.391  0.1799 -0.3070 -1.8725
   90CHL1   C26 9133   4.735   1.548   8.399 -0.7577  0.0969 -0.0275
   90CHL1  H26A 9134   4.776   1.600   8.310 -1.5424  0.1630 -0.3626
   90CHL1  H26B 9135   4.630   1.584   8.410 -1.6283 -2.4038  0.4417
   90CHL1  H26C 9136   4.793   1.593   8.483  2.1316  0.2472 -1.9906
   90CHL1   C27 9137   4.654   1.350   8.507  0.1762 -0.1742  0.3304
   90CHL1  H27A 9138   4.548   1.380   8.491  0.3948 -0.5164 -2.0425
   90CHL1  H27B 9139   4.647   1.240   8.515 -1.3921 -0.0433  1.1497
   90CHL1  H27C 9140   4.679   1.395   8.606 -0.3880  0.6388  0.1134
   91CHL1    C3 9141   6.751   3.373   6.554  0.0718  0.3496  0.7160
   91CHL1    H3 9142   6.675   3.445   6.589 -0.1420  1.4740 -1.7987
   91CHL1    O3 9143   6.773   3.387   6.415 -0.2031 -0.3606  1.0688
   91CHL1   H3' 9144   6.828   3.313   6.386  1.8606  1.5550 -0.1952
   91CHL1    C4 9145   6.879   3.424   6.617 -0.3089 -0.4593  0.0570
   91CHL1   H4A 9146   6.956   3.366   6.562 -2.1408 -1.8365 -1.2030
   91CHL1   H4B 9147   6.898   3.528   6.582 -0.2535 -0.1938  0.8593
   91CHL1    C5 9148   6.888   3.401   6.767 -0.4012  0.3673  0.0381
   91CHL1    C6 9149   6.921   3.493   6.858 -0.0514 -0.5760 -0.3006
   91CHL1    H6 9150   6.960   3.590   6.824 -0.0259 -0.0837  1.0936
   91CHL1    C7 9151   6.931   3.465   7.010 -0.4239  0.0643  0.8530
   91CHL1   H7A 9152   7.027   3.512   7.041  0.5196 -1.2492  0.0056
   91CHL1   H7B 9153   6.839   3.501   7.063 -0.2718  2.7883 -0.5619
   91CHL1    C8 9154   6.949   3.317   7.043 -0.4296  0.5533  0.1445
   91CHL1    H8 9155   7.051   3.282   7.017 -0.5318 -1.8727  2.6005
   91CHL1   C14 9156   6.919   3.298   7.187 -1.0301 -0.1409  0.4593
   91CHL1   H14 9157   6.811   3.320   7.203 -1.0651 -0.0162  0.0749
   91CHL1   C15 9158   6.995   3.390   7.290  0.3061  0.1586 -0.5651
   91CHL1  H15A 9159   7.103   3.396   7.264  0.5584 -0.9920  0.1537
   91CHL1  H15B 9160   6.952   3.492   7.279  1.2049  0.4379 -1.7230
   91CHL1   C16 9161   6.968   3.324   7.425 -0.3395  0.0349 -0.2151
   91CHL1  H16A 9162   7.064   3.330   7.481 -1.2695  0.7850  1.3733
   91CHL1  H16B 9163   6.903   3.392   7.483  0.0738 -0.2595  0.6211
   91CHL1   C17 9164   6.915   3.182   7.400 -0.5276  0.0771 -0.2680
   91CHL1   H17 9165   6.807   3.199   7.421  0.0901  3.7220  0.5557
   91CHL1   C13 9166   6.939   3.156   7.248 -0.8320 -0.3063  0.4297
   91CHL1   C18 9167   7.086   3.111   7.226 -0.5650  0.1403  0.7676
   91CHL1  H18A 9168   7.116   3.111   7.119 -1.3216  0.3992  0.5497
   91CHL1  H18B 9169   7.155   3.178   7.282 -0.1872 -0.3628  0.9183
   91CHL1  H18C 9170   7.093   3.006   7.261  0.8119 -0.2307 -0.5173
   91CHL1   C12 9171   6.843   3.065   7.175 -0.2731  0.3289  0.4368
   91CHL1  H12A 9172   6.847   2.960   7.209 -0.3960 -0.1954 -1.0974
   91CHL1  H12B 9173   6.737   3.087   7.199 -0.7964 -0.3087 -1.1407
   91CHL1   C11 9174   6.861   3.073   7.017  0.1694  0.5631  0.5365
   91CHL1  H11A 9175   6.956   3.023   6.990 -0.2530 -1.2779  2.1629
   91CHL1  H11B 9176   6.774   3.016   6.977  0.0733  0.9588  0.1837
   91CHL1    C9 9177   6.858   3.225   6.960  0.1254 -0.5176  0.7917
   91CHL1    H9 9178   6.756   3.259   6.987  0.0350 -0.0458 -0.0849
   91CHL1   C10 9179   6.858   3.250   6.803 -0.1753  0.0410 -0.4691
   91CHL1   C19 9180   6.976   3.166   6.750 -0.3157 -0.1390 -0.6345
   91CHL1  H19A 9181   6.972   3.165   6.639  0.2633 -1.0112 -0.6618
   91CHL1  H19B 9182   7.072   3.208   6.785  1.2334 -3.2826 -0.7173
   91CHL1  H19C 9183   6.968   3.062   6.789  1.4158  0.4538  1.4826
   91CHL1    C1 9184   6.726   3.200   6.741 -0.1888 -0.1808  1.0501
   91CHL1   H1A 9185   6.696   3.096   6.763  0.1668 -0.6013 -0.4023
   91CHL1   H1B 9186   6.649   3.267   6.787  0.2371  2.2252 -1.4710
   91CHL1    C2 9187   6.716   3.222   6.591 -0.5089 -0.2980 -0.1637
   91CHL1   H2A 9188   6.612   3.210   6.553 -0.1991  0.2407 -1.2462
   91CHL1   H2B 9189   6.783   3.163   6.525  1.0351  0.8100  0.3268
   91CHL1   C20 9190   6.955   3.073   7.510  0.0823 -0.7702  0.4596
   91CHL1   H20 9191   7.059   3.042   7.485  0.0749  0.8115 -1.9058
   91CHL1   C21 9192   6.847   2.960   7.513 -0.6001  0.2131  0.7177
   91CHL1  H21A 9193   6.827   2.907   7.417 -0.0446 -1.0175  1.2633
   91CHL1  H21B 9194   6.754   3.015   7.538 -0.6195  1.5717 -1.9586
   91CHL1  H21C 9195   6.878   2.877   7.579  1.6758 -0.3691 -0.9725
   91CHL1   C22 9196   6.970   3.132   7.650  0.2819 -0.7666  0.0428
   91CHL1  H22A 9197   7.046   3.213   7.645  1.5372 -1.8534  0.7047
   91CHL1  H22B 9198   6.878   3.185   7.680  1.2586  0.9380  0.1495
   91CHL1   C23 9199   7.019   3.032   7.754  0.2323  0.1206 -0.1764
   91CHL1  H23A 9200   6.955   2.942   7.768 -2.0728  1.8521  1.1056
   91CHL1  H23B 9201   7.118   2.998   7.716 -0.1721  0.7230 -1.8318
   91CHL1   C24 9202   7.033   3.089   7.898  0.2222  0.3946  0.7399
   91CHL1  H24A 9203   7.105   3.173   7.900 -1.5374  2.0576 -0.8184
   91CHL1  H24B 9204   6.947   3.151   7.931 -0.3622 -1.7197  3.5237
   91CHL1   C25 9205   7.072   2.998   8.019  0.4556 -0.2274  0.2141
   91CHL1   H25 9206   7.175   2.956   8.012  0.1031 -0.9345 -0.9825
   91CHL1   C26 9207   7.078   3.091   8.143  0.7019  0.5066  0.2127
   91CHL1  H26A 9208   7.118   3.020   8.219  0.7338 -1.6929 -1.7507
   91CHL1  H26B 9209   7.157   3.167   8.126  1.4864 -0.3473 -0.0278
   91CHL1  H26C 9210   6.975   3.130   8.159 -0.8005 -1.0323 -4.3255
   91CHL1   C27 9211   6.958   2.896   8.039  0.3695  0.1526  0.2683
   91CHL1  H27A 9212   6.962   2.830   7.950 -0.5876 -0.7346  0.8568
   91CHL1  H27B 9213   6.976   2.842   8.135  0.4784  1.3889  0.9662
   91CHL1  H27C 9214   6.853   2.930   8.050 -0.4133 -1.7232 -1.0495
   92CHL1    C3 9215   3.731   3.226   6.847 -0.4018  0.4077  0.0529
   92CHL1    H3 9216   3.775   3.127   6.874 -1.5089 -0.6506 -1.8122
   92CHL1    O3 9217   3.715   3.227   6.708 -0.7250 -0.5583 -0.2659
   92CHL1   H3' 9218   3.678   3.141   6.692  1.5684 -1.4999 -0.9370
   92CHL1    C4 9219   3.600   3.241   6.922  0.7613  0.2921 -0.1236
   92CHL1   H4A 9220   3.554   3.336   6.888 -0.0744 -0.4166 -1.0406
   92CHL1   H4B 9221   3.535   3.155   6.894  0.4638  0.2658  0.6017
   92CHL1    C5 9222   3.615   3.233   7.073  0.3398 -0.9294 -0.3681
   92CHL1    C6 9223   3.541   3.142   7.133 -0.6294 -0.4689  0.2533
   92CHL1    H6 9224   3.464   3.086   7.078  0.1426 -1.7969  0.4832
   92CHL1    C7 9225   3.547   3.126   7.285 -0.1247 -0.2372  0.2355
   92CHL1   H7A 9226   3.442   3.122   7.322 -0.4623  2.1686 -0.3315
   92CHL1   H7B 9227   3.585   3.022   7.290 -1.3060 -0.7829 -1.2468
   92CHL1    C8 9228   3.636   3.226   7.361  0.1267  0.0365  0.5197
   92CHL1    H8 9229   3.577   3.316   7.388  0.3070  0.0186  0.9930
   92CHL1   C14 9230   3.702   3.159   7.481 -0.4319 -0.7780  0.1317
   92CHL1   H14 9231   3.765   3.078   7.438 -0.6152 -1.2683  0.7750
   92CHL1   C15 9232   3.605   3.084   7.578 -0.4870 -0.3816  0.7230
   92CHL1  H15A 9233   3.521   3.155   7.599 -0.0766 -0.6668  3.7521
   92CHL1  H15B 9234   3.566   2.985   7.545 -1.9185  0.3244  0.1840
   92CHL1   C16 9235   3.687   3.073   7.710 -0.0910  0.9420 -0.2023
   92CHL1  H16A 9236   3.631   3.121   7.793 -0.3180 -0.4639  0.4843
   92CHL1  H16B 9237   3.693   2.964   7.727 -0.2150  1.2873  2.4807
   92CHL1   C17 9238   3.831   3.136   7.679  1.1323 -0.2161 -0.1623
   92CHL1   H17 9239   3.893   3.054   7.639 -0.6775 -1.4929 -0.4547
   92CHL1   C13 9240   3.796   3.239   7.575 -0.2848 -0.6242  0.2890
   92CHL1   C18 9241   3.713   3.358   7.631  0.1457 -0.3782  0.2915
   92CHL1  H18A 9242   3.650   3.406   7.553 -0.3063 -0.2388  0.7331
   92CHL1  H18B 9243   3.648   3.335   7.719 -0.3796  0.9675  0.2750
   92CHL1  H18C 9244   3.770   3.445   7.668 -2.6650  0.9065  1.9474
   92CHL1   C12 9245   3.909   3.283   7.479 -0.0280 -0.1231  0.2641
   92CHL1  H12A 9246   3.983   3.356   7.518  4.1775 -2.3081 -2.7941
   92CHL1  H12B 9247   3.964   3.189   7.461  1.8670  1.0054 -0.1090
   92CHL1   C11 9248   3.867   3.353   7.344  0.1397 -0.3681  0.3102
   92CHL1  H11A 9249   3.824   3.456   7.351  1.0975  0.0313  0.5388
   92CHL1  H11B 9250   3.959   3.355   7.281  0.5205 -0.6163  0.8558
   92CHL1    C9 9251   3.757   3.271   7.276 -0.8603 -0.1275  0.2154
   92CHL1    H9 9252   3.811   3.176   7.255 -1.1853  0.2572 -2.7372
   92CHL1   C10 9253   3.722   3.321   7.137  0.6983  0.1561 -0.3355
   92CHL1   C19 9254   3.656   3.459   7.155  0.2789 -0.1488 -0.0937
   92CHL1  H19A 9255   3.595   3.480   7.064 -0.2300 -0.3674  0.1907
   92CHL1  H19B 9256   3.588   3.470   7.242 -0.5360  1.2536 -0.8797
   92CHL1  H19C 9257   3.738   3.531   7.174  1.2508 -1.1729 -0.2982
   92CHL1    C1 9258   3.845   3.326   7.043  0.3989  0.2920 -0.2813
   92CHL1   H1A 9259   3.901   3.418   7.069  0.0731 -0.0553  1.8469
   92CHL1   H1B 9260   3.900   3.233   7.069 -1.4948 -0.4621  1.3636
   92CHL1    C2 9261   3.817   3.341   6.902  0.2253 -0.2071  0.1025
   92CHL1   H2A 9262   3.908   3.343   6.838  0.1873 -0.9013  0.0186
   92CHL1   H2B 9263   3.758   3.433   6.884  0.7023  0.2791  0.9918
   92CHL1   C20 9264   3.894   3.181   7.808  0.4867  0.7451  0.0624
   92CHL1   H20 9265   3.851   3.273   7.853 -1.2623 -0.4632  0.9928
   92CHL1   C21 9266   4.035   3.198   7.772  0.3557 -1.1007  0.0201
   92CHL1  H21A 9267   4.100   3.234   7.855 -0.4869  0.4327  0.0691
   92CHL1  H21B 9268   4.044   3.277   7.695 -1.0818  1.2387  2.0954
   92CHL1  H21C 9269   4.080   3.101   7.744 -1.3064 -1.9057  0.0085
   92CHL1   C22 9270   3.874   3.075   7.925 -0.4162 -0.0780  0.1704
   92CHL1  H22A 9271   3.767   3.061   7.949  0.3445 -2.3993  2.6031
   92CHL1  H22B 9272   3.903   2.973   7.891 -2.2196 -0.6336  0.2426
   92CHL1   C23 9273   3.951   3.116   8.058  0.0431 -0.2729 -0.1457
   92CHL1  H23A 9274   3.930   3.030   8.126 -0.7890  1.1170  1.4423
   92CHL1  H23B 9275   4.059   3.103   8.033 -0.0464 -1.5721  0.0723
   92CHL1   C24 9276   3.914   3.254   8.120  0.5699 -0.1240  0.1045
   92CHL1  H24A 9277   3.913   3.332   8.041 -0.1198  0.2105  0.4355
   92CHL1  H24B 9278   3.811   3.243   8.160  0.8347  1.3304  1.2849
   92CHL1   C25 9279   4.009   3.312   8.220 -0.3144 -0.1788 -0.1705
   92CHL1   H25 9280   3.972   3.413   8.244 -0.0538  0.3668 -1.8996
   92CHL1   C26 9281   4.028   3.231   8.340  0.1841  0.3725  0.1264
   92CHL1  H26A 9282   3.930   3.221   8.391 -0.0765  1.3165 -0.1740
   92CHL1  H26B 9283   4.069   3.129   8.321 -1.3782 -0.6042  1.7130
   92CHL1  H26C 9284   4.105   3.281   8.402 -0.6096  0.0545  1.4026
   92CHL1   C27 9285   4.152   3.328   8.164  0.3576  0.1582  0.7174
   92CHL1  H27A 9286   4.197   3.415   8.217 -0.5826  0.7601  0.5321
   92CHL1  H27B 9287   4.218   3.239   8.177 -0.1543 -1.1523 -3.7974
   92CHL1  H27C 9288   4.152   3.361   8.058 -2.0885  1.2772  0.9944
   93CHL1    C3 9289   2.047   1.320   6.903 -0.1353 -0.2290  0.4802
   93CHL1    H3 9290   2.123   1.241   6.923  1.2105  0.9551  0.1665
   93CHL1    O3 9291   2.048   1.337   6.764 -0.1725 -0.3177 -0.3571
   93CHL1   H3' 9292   2.070   1.425   6.732  1.1440 -0.0588  1.1465
   93CHL1    C4 9293   1.916   1.266   6.951 -0.2915 -0.8609  0.7726
   93CHL1   H4A 9294   1.837   1.335   6.914  0.5299 -0.4433 -0.2771
   93CHL1   H4B 9295   1.905   1.167   6.903 -0.2670 -0.2655 -0.5006
   93CHL1    C5 9296   1.913   1.251   7.097  0.5539 -0.6193 -0.7768
   93CHL1    C6 9297   1.894   1.133   7.159 -0.1721 -0.2243 -0.0177
   93CHL1    H6 9298   1.863   1.041   7.106  0.0532 -0.6590  0.5994
   93CHL1    C7 9299   1.892   1.113   7.308 -0.6389 -0.4969 -0.8699
   93CHL1   H7A 9300   1.799   1.063   7.341 -0.5560 -0.6269 -0.8317
   93CHL1   H7B 9301   1.966   1.036   7.338  0.8756  1.7480  1.6281
   93CHL1    C8 9302   1.898   1.244   7.396 -0.2607 -0.1005  0.8736
   93CHL1    H8 9303   1.793   1.278   7.411 -0.0464  1.0231 -0.0425
   93CHL1   C14 9304   1.958   1.211   7.530  0.2432 -0.3398  0.2295
   93CHL1   H14 9305   2.065   1.189   7.512  0.1957  0.4817 -1.2284
   93CHL1   C15 9306   1.904   1.106   7.621  0.1292 -0.6696 -0.6265
   93CHL1  H15A 9307   1.794   1.113   7.607 -0.1407  0.6504  1.7010
   93CHL1  H15B 9308   1.939   1.005   7.591  0.2451  0.1501 -3.6484
   93CHL1   C16 9309   1.939   1.143   7.765  0.8321  0.2059  0.9252
   93CHL1  H16A 9310   1.835   1.159   7.803 -1.7885 -1.1821 -4.6118
   93CHL1  H16B 9311   1.985   1.062   7.825  1.2528 -1.7033 -1.8036
   93CHL1   C17 9312   2.008   1.277   7.757 -0.1060 -0.3737 -0.3733
   93CHL1   H17 9313   2.115   1.255   7.735 -0.8242 -1.9023 -2.6233
   93CHL1   C13 9314   1.961   1.337   7.619 -0.2168 -0.8505  0.4522
   93CHL1   C18 9315   1.810   1.395   7.637  0.3490  0.8194  0.2293
   93CHL1  H18A 9316   1.777   1.437   7.540  1.1802 -0.0143 -0.4347
   93CHL1  H18B 9317   1.744   1.307   7.650  1.6795 -0.1768  0.4465
   93CHL1  H18C 9318   1.796   1.466   7.721 -2.3055  3.1260 -1.9594
   93CHL1   C12 9319   2.051   1.441   7.548 -0.5500  0.3623  0.0892
   93CHL1  H12A 9320   2.030   1.532   7.609 -0.0993 -0.5172  1.6211
   93CHL1  H12B 9321   2.158   1.414   7.555  0.1583  3.1761  1.7205
   93CHL1   C11 9322   2.002   1.477   7.413 -0.0501 -0.6441  0.0605
   93CHL1  H11A 9323   1.908   1.536   7.415  0.2580  0.0851 -2.6309
   93CHL1  H11B 9324   2.069   1.554   7.370 -2.6089  1.3432 -0.5852
   93CHL1    C9 9325   1.981   1.349   7.325 -0.4321 -0.5286  0.6575
   93CHL1    H9 9326   2.078   1.296   7.317  0.8257  1.6600  0.5124
   93CHL1   C10 9327   1.948   1.380   7.177 -0.6806 -0.0758 -0.2509
   93CHL1   C19 9328   1.824   1.467   7.162  0.1129  0.0031 -0.1846
   93CHL1  H19A 9329   1.735   1.425   7.215  1.6877 -1.0665  1.8105
   93CHL1  H19B 9330   1.843   1.563   7.214  0.1946  0.0640 -0.3275
   93CHL1  H19C 9331   1.805   1.482   7.054  2.2171  0.9918 -0.4710
   93CHL1    C1 9332   2.076   1.439   7.107 -0.1566 -0.2312 -0.1438
   93CHL1   H1A 9333   2.103   1.535   7.156  2.3445 -0.5419 -0.7641
   93CHL1   H1B 9334   2.159   1.368   7.130  0.1563 -0.1457 -0.9654
   93CHL1    C2 9335   2.073   1.454   6.952 -1.0690 -0.1860 -1.4330
   93CHL1   H2A 9336   2.174   1.487   6.921  0.5165 -2.7078  0.6949
   93CHL1   H2B 9337   1.991   1.527   6.932 -2.4974 -0.8593  1.4199
   93CHL1   C20 9338   2.013   1.365   7.888 -0.0001  0.4670 -0.3885
   93CHL1   H20 9339   1.914   1.414   7.891 -0.1922  0.2314 -1.8514
   93CHL1   C21 9340   2.124   1.473   7.880  0.3832  0.3365 -0.3913
   93CHL1  H21A 9341   2.227   1.431   7.879  0.7172  1.0634 -2.3218
   93CHL1  H21B 9342   2.119   1.552   7.957 -3.6974  0.6970 -0.8112
   93CHL1  H21C 9343   2.116   1.517   7.778  0.6031  0.6540 -0.2750
   93CHL1   C22 9344   2.044   1.278   8.011  0.4346  0.1799 -0.3547
   93CHL1  H22A 9345   1.969   1.200   8.034 -0.2279  1.1717  1.0199
   93CHL1  H22B 9346   2.140   1.228   7.985  0.9040  1.4489 -1.1447
   93CHL1   C23 9347   2.065   1.349   8.145 -0.3998  0.3166 -0.5904
   93CHL1  H23A 9348   2.095   1.456   8.141 -0.1258  0.2001 -2.1968
   93CHL1  H23B 9349   1.959   1.356   8.179 -0.3915  0.9843 -0.6942
   93CHL1   C24 9350   2.145   1.261   8.242  0.1586 -0.6443 -0.5047
   93CHL1  H24A 9351   2.077   1.179   8.273 -0.1111 -2.3090 -4.7707
   93CHL1  H24B 9352   2.229   1.212   8.189  0.2327 -0.4801 -0.5414
   93CHL1   C25 9353   2.206   1.342   8.357  0.1602 -0.2129 -0.2436
   93CHL1   H25 9354   2.278   1.414   8.314 -0.6449 -0.1701 -1.5891
   93CHL1   C26 9355   2.099   1.437   8.425 -0.8477 -0.1690  0.4906
   93CHL1  H26A 9356   2.074   1.521   8.357 -0.2837 -0.4783 -0.0953
   93CHL1  H26B 9357   2.007   1.381   8.454  0.5983 -1.9577  1.8002
   93CHL1  H26C 9358   2.142   1.491   8.513  1.4284 -0.1852 -0.5483
   93CHL1   C27 9359   2.286   1.262   8.463 -0.1196 -0.4978 -0.2652
   93CHL1  H27A 9360   2.216   1.212   8.533  0.2186  1.1642  1.3194
   93CHL1  H27B 9361   2.364   1.191   8.427  1.3981  0.6697  0.5622
   93CHL1  H27C 9362   2.331   1.335   8.533 -0.3243 -0.2832 -0.3585
   94CHL1    C3 9363   4.645   4.987   6.510  0.0629 -0.5393  1.0650
   94CHL1    H3 9364   4.666   5.088   6.551 -0.0231  0.2046 -0.6095
   94CHL1    O3 9365   4.606   5.000   6.368 -0.4727  0.4725  0.0914
   94CHL1   H3' 9366   4.514   4.975   6.365 -0.4917  0.6501 -2.2850
   94CHL1    C4 9367   4.752   4.883   6.530 -0.9778  0.2139  0.4666
   94CHL1   H4A 9368   4.711   4.794   6.478  0.7159 -0.4539  0.2193
   94CHL1   H4B 9369   4.839   4.913   6.468 -0.1565 -1.7213  0.6088
   94CHL1    C5 9370   4.781   4.855   6.676 -0.4804 -1.0980  0.5772
   94CHL1    C6 9371   4.902   4.874   6.726 -0.3495 -0.0794 -0.2009
   94CHL1    H6 9372   4.985   4.908   6.662  0.3079 -2.8962 -0.9977
   94CHL1    C7 9373   4.939   4.855   6.873  0.0303  0.4237  0.0496
   94CHL1   H7A 9374   5.030   4.794   6.886  1.1649  1.3411 -2.7288
   94CHL1   H7B 9375   4.975   4.947   6.925  1.4937 -0.7080  1.1101
   94CHL1    C8 9376   4.827   4.789   6.951 -1.0480 -0.0928  0.0826
   94CHL1    H8 9377   4.837   4.679   6.941  2.1505  0.2819 -2.7539
   94CHL1   C14 9378   4.847   4.820   7.100 -0.0819  0.3360 -0.4680
   94CHL1   H14 9379   4.815   4.927   7.102  0.3255  0.5830 -3.1153
   94CHL1   C15 9380   4.992   4.817   7.155  0.0336 -0.0307  0.0579
   94CHL1  H15A 9381   5.045   4.728   7.115  0.3680 -0.3570  1.1658
   94CHL1  H15B 9382   5.047   4.910   7.131 -0.1157 -0.1288 -0.6734
   94CHL1   C16 9383   4.965   4.796   7.304  0.6287 -0.4361 -0.7294
   94CHL1  H16A 9384   5.004   4.693   7.319  2.0792  0.1695 -0.2085
   94CHL1  H16B 9385   5.013   4.864   7.378 -0.5669 -0.6447  0.2763
   94CHL1   C17 9386   4.810   4.806   7.334  0.6437 -0.2302 -0.4333
   94CHL1   H17 9387   4.786   4.914   7.336  1.4591 -0.0375  1.9509
   94CHL1   C13 9388   4.758   4.755   7.198  0.3336  0.2827 -1.5782
   94CHL1   C18 9389   4.797   4.603   7.190 -0.4572 -0.1472  0.7288
   94CHL1  H18A 9390   4.743   4.560   7.103  0.0828 -1.3581  0.9753
   94CHL1  H18B 9391   4.900   4.571   7.165 -0.5386  0.3478 -0.2815
   94CHL1  H18C 9392   4.777   4.552   7.287  2.1345  0.8244  1.8508
   94CHL1   C12 9393   4.613   4.784   7.158 -0.0516 -0.2633  0.0713
   94CHL1  H12A 9394   4.541   4.717   7.211  0.6974 -0.1688  1.2497
   94CHL1  H12B 9395   4.586   4.891   7.167 -1.6759 -0.4897 -1.4956
   94CHL1   C11 9396   4.590   4.745   7.006 -0.7184  0.0513 -0.1964
   94CHL1  H11A 9397   4.614   4.637   6.992  1.8526  0.6627 -1.1960
   94CHL1  H11B 9398   4.487   4.765   6.971 -0.0029 -0.6004 -2.8637
   94CHL1    C9 9399   4.683   4.823   6.910 -0.2931  0.5896  0.1013
   94CHL1    H9 9400   4.670   4.930   6.938 -0.3046  0.4856  0.4994
   94CHL1   C10 9401   4.655   4.816   6.758  0.9697 -0.2459  0.1555
   94CHL1   C19 9402   4.606   4.669   6.725 -0.1507 -0.4472  0.4696
   94CHL1  H19A 9403   4.505   4.642   6.764  0.2194  1.5977  3.0879
   94CHL1  H19B 9404   4.607   4.644   6.617 -0.6228  2.4204 -0.2880
   94CHL1  H19C 9405   4.683   4.603   6.769  2.0222  1.1237 -0.8119
   94CHL1    C1 9406   4.543   4.923   6.730  0.4465 -0.5137 -0.6832
   94CHL1   H1A 9407   4.450   4.900   6.786  0.4669  3.2082  1.1907
   94CHL1   H1B 9408   4.573   5.021   6.772 -2.2014 -0.6977  1.9877
   94CHL1    C2 9409   4.517   4.940   6.580 -0.2902  0.6288 -0.4509
   94CHL1   H2A 9410   4.431   5.008   6.563  0.0667  1.6540  1.4923
   94CHL1   H2B 9411   4.476   4.843   6.544 -1.7651  0.4081  1.6061
   94CHL1   C20 9412   4.754   4.748   7.473  0.7383  0.0683  0.4956
   94CHL1   H20 9413   4.787   4.642   7.481 -1.9508 -0.7445  2.2403
   94CHL1   C21 9414   4.601   4.753   7.489 -0.5378  0.6907  0.3087
   94CHL1  H21A 9415   4.561   4.722   7.588 -1.4810  0.6176 -0.0825
   94CHL1  H21B 9416   4.540   4.689   7.421  0.4390 -1.3778  1.2674
   94CHL1  H21C 9417   4.575   4.860   7.497  1.2574  1.3225 -1.5297
   94CHL1   C22 9418   4.826   4.808   7.596  0.3711  0.2111  0.6734
   94CHL1  H22A 9419   4.937   4.811   7.583  0.8652  1.8472  4.1422
   94CHL1  H22B 9420   4.799   4.914   7.578  2.6399  1.0641  1.8997
   94CHL1   C23 9421   4.789   4.753   7.728 -0.4794 -0.2809 -0.2973
   94CHL1  H23A 9422   4.690   4.792   7.761 -0.1878 -0.7763  1.2788
   94CHL1  H23B 9423   4.787   4.643   7.717 -0.0438 -0.2225 -1.0051
   94CHL1   C24 9424   4.884   4.793   7.839 -0.5458  0.0380 -0.8611
   94CHL1  H24A 9425   4.987   4.768   7.807 -0.5578 -2.0546  0.5612
   94CHL1  H24B 9426   4.869   4.901   7.858  2.1324  0.4000 -0.3707
   94CHL1   C25 9427   4.874   4.708   7.967 -0.5698  0.3948  0.6854
   94CHL1   H25 9428   4.858   4.603   7.936 -1.4576  0.6209  0.3410
   94CHL1   C26 9429   5.015   4.707   8.030 -0.2047 -0.0152 -0.4025
   94CHL1  H26A 9430   5.013   4.640   8.118  1.0865 -1.0183 -1.1184
   94CHL1  H26B 9431   5.095   4.660   7.969  0.2390  1.1759 -0.7665
   94CHL1  H26C 9432   5.053   4.810   8.050 -1.2235  0.8222 -2.4741
   94CHL1   C27 9433   4.765   4.757   8.065  0.4444  0.5608 -0.2002
   94CHL1  H27A 9434   4.668   4.734   8.016  1.6698  0.5608 -2.8095
   94CHL1  H27B 9435   4.771   4.711   8.166 -0.4256  0.5083 -0.1636
   94CHL1  H27C 9436   4.774   4.866   8.084  0.3657  0.2793  1.6528
   95CHL1    C3 9437   4.572   3.999   6.300  0.4276  0.0146  0.0254
   95CHL1    H3 9438   4.593   3.892   6.322 -1.8761 -0.7897 -1.3486
   95CHL1    O3 9439   4.570   4.020   6.157 -0.5152  0.3522 -0.3399
   95CHL1   H3' 9440   4.502   3.965   6.118  0.9373 -0.8089 -1.3795
   95CHL1    C4 9441   4.431   4.027   6.360  0.2846  0.7555 -0.3861
   95CHL1   H4A 9442   4.417   4.129   6.319  0.5355  0.7612 -0.4609
   95CHL1   H4B 9443   4.350   3.959   6.327  1.0353 -1.2182  1.5658
   95CHL1    C5 9444   4.438   4.037   6.511 -0.0416 -0.6681 -0.4330
   95CHL1    C6 9445   4.362   3.970   6.599  0.1672 -0.1011  0.4502
   95CHL1    H6 9446   4.287   3.911   6.545  0.8853 -0.5440 -0.0797
   95CHL1    C7 9447   4.346   4.004   6.748  0.6242  0.3032  0.4207
   95CHL1   H7A 9448   4.244   4.012   6.789  0.1569 -0.0751 -0.6339
   95CHL1   H7B 9449   4.392   3.913   6.792 -2.5736 -1.7494 -0.1693
   95CHL1    C8 9450   4.424   4.129   6.795 -0.4732  0.2658  0.8088
   95CHL1    H8 9451   4.363   4.219   6.774 -2.8250 -1.0805  1.5541
   95CHL1   C14 9452   4.451   4.124   6.947  0.0334 -0.7191  0.3802
   95CHL1   H14 9453   4.520   4.038   6.960 -1.3535 -2.2109 -1.5552
   95CHL1   C15 9454   4.323   4.089   7.025  0.2214 -0.2993  0.2809
   95CHL1  H15A 9455   4.232   4.149   7.004 -1.0842 -1.9955  0.8815
   95CHL1  H15B 9456   4.281   3.987   7.014  1.1798 -0.7647  0.8124
   95CHL1   C16 9457   4.367   4.124   7.168  0.3234 -0.4389  0.0835
   95CHL1  H16A 9458   4.292   4.194   7.210 -1.2168 -1.5466 -0.7103
   95CHL1  H16B 9459   4.389   4.040   7.238  1.2498  0.1336  0.5059
   95CHL1   C17 9460   4.514   4.183   7.148 -0.4341 -0.0055  0.2798
   95CHL1   H17 9461   4.584   4.097   7.154 -0.8902 -0.2933  2.3621
   95CHL1   C13 9462   4.514   4.248   7.007  0.4551  0.5869 -0.3010
   95CHL1   C18 9463   4.414   4.371   6.999  0.4677 -1.3153  0.4891
   95CHL1  H18A 9464   4.450   4.452   7.065 -0.3670 -1.1314  0.7306
   95CHL1  H18B 9465   4.392   4.408   6.897 -1.0884 -3.4105 -0.0179
   95CHL1  H18C 9466   4.316   4.337   7.040  1.1113 -0.9454  2.4411
   95CHL1   C12 9467   4.648   4.262   6.928 -0.0613 -0.8083 -0.3046
   95CHL1  H12A 9468   4.689   4.359   6.964  1.0363 -1.5999  0.6698
   95CHL1  H12B 9469   4.715   4.181   6.965 -0.9643 -1.5967 -0.3514
   95CHL1   C11 9470   4.628   4.258   6.780 -0.1471  0.4079  0.4283
   95CHL1  H11A 9471   4.561   4.345   6.768 -0.6173  0.3900  2.4795
   95CHL1  H11B 9472   4.722   4.288   6.730 -1.1380  3.3429  0.1555
   95CHL1    C9 9473   4.556   4.135   6.716  0.4033 -0.2916 -0.5725
   95CHL1    H9 9474   4.622   4.048   6.738  0.9443 -1.3195 -5.2000
   95CHL1   C10 9475   4.544   4.140   6.563  0.1979  0.9933  0.1928
   95CHL1   C19 9476   4.520   4.282   6.522  0.4058  0.2427 -0.3650
   95CHL1  H19A 9477   4.499   4.298   6.414 -1.8681  0.9970  0.1248
   95CHL1  H19B 9478   4.424   4.310   6.572  1.0305  2.1473 -0.1517
   95CHL1  H19C 9479   4.584   4.362   6.565 -0.9206  0.5635  1.1104
   95CHL1    C1 9480   4.680   4.100   6.506 -0.2671 -0.4044 -0.7216
   95CHL1   H1A 9481   4.750   4.179   6.540 -1.7192 -0.6170  3.1576
   95CHL1   H1B 9482   4.706   4.000   6.548 -1.5886 -0.2382  0.5688
   95CHL1    C2 9483   4.683   4.090   6.346  0.1698 -0.3050 -0.7585
   95CHL1   H2A 9484   4.780   4.047   6.314  2.2377  1.2391  2.9224
   95CHL1   H2B 9485   4.664   4.190   6.300  0.7024  0.9060  1.5364
   95CHL1   C20 9486   4.549   4.280   7.262 -1.1093  0.4901  0.6656
   95CHL1   H20 9487   4.529   4.382   7.224  0.2399  0.1583 -1.1376
   95CHL1   C21 9488   4.706   4.260   7.277  0.0538  0.4536  0.5064
   95CHL1  H21A 9489   4.735   4.343   7.345 -0.4096  1.2389 -0.2367
   95CHL1  H21B 9490   4.754   4.304   7.187 -1.4029 -0.1191 -0.5824
   95CHL1  H21C 9491   4.735   4.155   7.301 -2.1466 -1.0161 -2.6199
   95CHL1   C22 9492   4.487   4.251   7.392 -0.7854 -0.1637  0.4228
   95CHL1  H22A 9493   4.377   4.269   7.396 -0.7693  0.3102 -1.0014
   95CHL1  H22B 9494   4.506   4.142   7.409  0.1041 -0.4408 -2.0374
   95CHL1   C23 9495   4.543   4.325   7.513  0.1699 -0.3580 -0.2453
   95CHL1  H23A 9496   4.646   4.295   7.544 -0.5147 -1.7602  0.7485
   95CHL1  H23B 9497   4.551   4.434   7.495  2.8393 -0.2081  1.3122
   95CHL1   C24 9498   4.454   4.307   7.632  0.0591 -0.0934  0.0482
   95CHL1  H24A 9499   4.365   4.370   7.614  0.7374  0.1034 -3.3451
   95CHL1  H24B 9500   4.423   4.200   7.637  0.8842 -0.3022  1.2777
   95CHL1   C25 9501   4.517   4.329   7.767 -0.5703  0.2785 -0.4244
   95CHL1   H25 9502   4.584   4.417   7.758 -0.0097 -0.2509 -1.6396
   95CHL1   C26 9503   4.411   4.331   7.877 -0.7292 -0.0220 -0.4852
   95CHL1  H26A 9504   4.348   4.422   7.865 -1.3972 -0.2170  1.2681
   95CHL1  H26B 9505   4.336   4.249   7.878  0.2907 -0.9717  0.0621
   95CHL1  H26C 9506   4.458   4.350   7.976  1.1954 -0.6334 -1.2319
   95CHL1   C27 9507   4.618   4.221   7.810 -0.1103  0.2671 -0.1120
   95CHL1  H27A 9508   4.567   4.125   7.831 -2.2719  1.2306 -0.7130
   95CHL1  H27B 9509   4.689   4.197   7.728  0.1500  0.5131  0.0400
   95CHL1  H27C 9510   4.670   4.245   7.905 -1.8813  1.2242  0.6621
   96CHL1    C3 9511   2.113   3.276   6.898 -0.1358 -0.4168 -0.2281
   96CHL1    H3 9512   2.108   3.190   6.968 -0.3570  0.9666  1.5452
   96CHL1    O3 9513   2.092   3.238   6.764  0.5615  0.3956 -0.0463
   96CHL1   H3' 9514   1.998   3.233   6.749 -0.0515 -1.1980  3.4146
   96CHL1    C4 9515   2.012   3.384   6.936 -0.2957 -0.4126  0.7143
   96CHL1   H4A 9516   2.030   3.474   6.874  0.6767 -1.0766 -0.0110
   96CHL1   H4B 9517   1.910   3.353   6.907  0.5173 -0.1074 -2.8567
   96CHL1    C5 9518   2.031   3.409   7.083  0.7945 -0.2359  0.1450
   96CHL1    C6 9519   1.935   3.377   7.172 -0.4870  0.3386 -0.3489
   96CHL1    H6 9520   1.839   3.332   7.141 -0.1618 -0.2320 -0.5369
   96CHL1    C7 9521   1.939   3.398   7.327 -0.0805 -0.2096  1.0844
   96CHL1   H7A 9522   1.857   3.464   7.363 -0.5122 -0.2655  0.2134
   96CHL1   H7B 9523   1.926   3.301   7.380 -0.8166 -0.4970  0.3972
   96CHL1    C8 9524   2.073   3.468   7.367  0.0200 -0.3170 -0.2922
   96CHL1    H8 9525   2.060   3.579   7.371  0.1453 -0.3310  3.0462
   96CHL1   C14 9526   2.105   3.419   7.509 -0.5209 -0.3620  1.1174
   96CHL1   H14 9527   2.103   3.308   7.514 -0.5064 -0.4349 -0.2025
   96CHL1   C15 9528   1.993   3.447   7.605 -0.5193 -0.3297 -0.2315
   96CHL1  H15A 9529   1.968   3.554   7.590 -0.1233 -0.1058  0.6365
   96CHL1  H15B 9530   1.900   3.386   7.600 -0.7838 -0.0203  0.7933
   96CHL1   C16 9531   2.058   3.422   7.743 -0.2127  0.4513  0.0572
   96CHL1  H16A 9532   2.029   3.513   7.800  1.1962  0.5937  0.5970
   96CHL1  H16B 9533   2.028   3.323   7.785  1.4198  0.8634  2.4688
   96CHL1   C17 9534   2.211   3.410   7.713  0.0180  0.2841 -0.2917
   96CHL1   H17 9535   2.229   3.304   7.686 -0.4504 -0.1949  1.1839
   96CHL1   C13 9536   2.227   3.479   7.572  0.1569  0.1712 -0.0209
   96CHL1   C18 9537   2.221   3.630   7.599  0.7573 -0.3436 -0.1477
   96CHL1  H18A 9538   2.183   3.676   7.505 -3.7564  0.9049  2.0027
   96CHL1  H18B 9539   2.148   3.658   7.678 -0.0473 -2.5371 -0.0308
   96CHL1  H18C 9540   2.322   3.669   7.622  1.0061 -1.5392  0.8860
   96CHL1   C12 9541   2.346   3.443   7.482 -0.1577 -0.1666 -0.2699
   96CHL1  H12A 9542   2.428   3.500   7.530  0.4143 -0.1740 -1.2356
   96CHL1  H12B 9543   2.356   3.333   7.496  0.4698 -0.1705 -0.7465
   96CHL1   C11 9544   2.323   3.491   7.336 -0.6180 -0.3989  0.7669
   96CHL1  H11A 9545   2.316   3.602   7.341  2.1478 -0.2173  3.5467
   96CHL1  H11B 9546   2.417   3.468   7.283 -0.6516  0.7708  0.1650
   96CHL1    C9 9547   2.193   3.428   7.276  0.4491 -0.6449 -0.6848
   96CHL1    H9 9548   2.196   3.319   7.301 -0.2160 -0.0893  2.2178
   96CHL1   C10 9549   2.174   3.449   7.125  0.2148  0.0971 -0.0954
   96CHL1   C19 9550   2.174   3.595   7.086 -0.7101 -0.0510 -0.5713
   96CHL1  H19A 9551   2.088   3.654   7.123  0.4802  2.2982 -1.3245
   96CHL1  H19B 9552   2.254   3.656   7.134 -1.0356 -0.9249  1.1618
   96CHL1  H19C 9553   2.201   3.612   6.979  3.5475  0.4212  0.4047
   96CHL1    C1 9554   2.289   3.388   7.042 -0.2814 -0.1161  0.2337
   96CHL1   H1A 9555   2.378   3.453   7.040 -0.1842 -0.2282  0.7709
   96CHL1   H1B 9556   2.320   3.297   7.099 -0.1227 -0.4571 -0.3852
   96CHL1    C2 9557   2.248   3.340   6.904 -0.3770 -0.6909 -0.1037
   96CHL1   H2A 9558   2.325   3.271   6.862 -1.4334 -1.1631 -1.3167
   96CHL1   H2B 9559   2.245   3.432   6.842 -0.4642  1.5421  2.9599
   96CHL1   C20 9560   2.307   3.444   7.833 -0.4674 -0.7599  0.2687
   96CHL1   H20 9561   2.293   3.554   7.837  1.1885 -0.4677 -0.7905
   96CHL1   C21 9562   2.452   3.401   7.788 -0.1725 -0.3180 -0.2746
   96CHL1  H21A 9563   2.511   3.399   7.882 -1.0421  1.5685  0.3833
   96CHL1  H21B 9564   2.492   3.470   7.711  0.8446  0.2975  0.7775
   96CHL1  H21C 9565   2.438   3.296   7.757 -0.3258  0.0278 -1.4263
   96CHL1   C22 9566   2.276   3.390   7.971  0.6998 -0.3834 -0.0877
   96CHL1  H22A 9567   2.334   3.441   8.051  0.9820 -0.6782 -0.0988
   96CHL1  H22B 9568   2.167   3.408   7.982  0.5589 -0.0636 -1.7549
   96CHL1   C23 9569   2.298   3.240   7.996  0.5095 -0.1972 -0.3020
   96CHL1  H23A 9570   2.243   3.195   7.910 -0.1335  1.8275 -1.0020
   96CHL1  H23B 9571   2.405   3.212   7.995  0.6846  0.1511  2.3067
   96CHL1   C24 9572   2.246   3.193   8.134  0.4627  0.2847  0.1668
   96CHL1  H24A 9573   2.154   3.253   8.151 -1.0660 -2.1478  1.0116
   96CHL1  H24B 9574   2.231   3.083   8.129 -0.4378  0.4420 -0.9288
   96CHL1   C25 9575   2.335   3.230   8.248  0.3235  0.1612 -0.0865
   96CHL1   H25 9576   2.367   3.336   8.231 -0.1436  0.7675  2.3925
   96CHL1   C26 9577   2.254   3.230   8.383 -0.0351  0.1965  0.5662
   96CHL1  H26A 9578   2.323   3.247   8.468  1.5148 -0.2845 -0.5622
   96CHL1  H26B 9579   2.185   3.317   8.378  0.1364  0.2802 -0.9596
   96CHL1  H26C 9580   2.202   3.134   8.403 -0.8460  0.4832 -0.0778
   96CHL1   C27 9581   2.453   3.132   8.258 -0.0143  0.4532  0.5713
   96CHL1  H27A 9582   2.477   3.104   8.153  0.5090  1.2314  0.4704
   96CHL1  H27B 9583   2.543   3.160   8.315 -0.0318 -1.2146  1.4818
   96CHL1  H27C 9584   2.406   3.041   8.301  1.1418  0.8221  2.7601
   97OSM      N 9585   2.085   4.820  10.826 -0.2525  0.0339  0.2170
   97OSM    C15 9586   2.219   4.770  10.800 -0.5078 -0.3002 -0.4305
   97OSM   H15A 9587   2.235   4.778  10.693 -2.4319 -0.9489 -0.8101
   97OSM   H15B 9588   2.233   4.664  10.812 -0.4702 -0.2043  0.4328
   97OSM   H15C 9589   2.300   4.814  10.857 -1.3645 -1.0441  1.4377
   97OSM    C14 9590   2.065   4.806  10.976 -0.0987 -0.0849  0.1448
   97OSM   H14A 9591   2.082   4.708  11.018  0.9455  0.5249  1.2025
   97OSM   H14B 9592   1.962   4.826  11.004  0.1511 -1.8931  2.6988
   97OSM   H14C 9593   2.134   4.873  11.024  0.2454 -1.0649  1.0865
   97OSM    C13 9594   2.090   4.962  10.793  0.7294 -0.5545  0.1621
   97OSM   H13A 9595   2.109   4.981  10.688  0.3825 -2.1005 -0.2044
   97OSM   H13B 9596   2.164   5.015  10.851  0.5516 -1.8810  1.6954
   97OSM   H13C 9597   1.999   5.016  10.817  1.4459  0.0380  1.6369
   97OSM    C12 9598   1.981   4.747  10.747  0.6124  0.2628 -0.3641
   97OSM   H12A 9599   1.999   4.758  10.641 -3.4591 -0.4784 -1.2886
   97OSM   H12B 9600   1.884   4.791  10.765 -0.4794 -0.8362 -3.0134
   97OSM    C11 9601   1.963   4.596  10.758 -0.1928 -0.5830 -0.0276
   97OSM   H11A 9602   1.867   4.563  10.713 -0.3716  2.3959 -2.1645
   97OSM   H11B 9603   1.951   4.559  10.862 -3.9454 -0.1141 -0.1844
   97OSM      P 9604   2.060   4.422  10.573  0.2804  0.2006  0.2417
   97OSM    O13 9605   2.177   4.332  10.592  0.3966  0.0495  0.0298
   97OSM    O14 9606   1.929   4.366  10.571  0.3101  0.2431 -0.3125
   97OSM    O11 9607   2.078   4.517  10.454  0.2855 -0.0331  0.4162
   97OSM    O12 9608   2.067   4.526  10.697 -0.3009  1.1769 -0.1555
   97OSM    C1S 9609   2.111   4.474  10.323  0.1634  0.7216  0.4279
   97OSM    H1S 9610   2.186   4.391  10.326  0.0002  0.5437 -0.3193
   97OSM    H1T 9611   2.168   4.548  10.263  0.2719 -1.0843 -1.8707
   97OSM     NF 9612   2.013   4.408  10.097  0.2057  0.4685  0.7200
   97OSM    HNF 9613   2.015   4.485  10.033 -0.0939  0.7613  1.0562
   97OSM    C2S 9614   1.986   4.449  10.235  0.4365  0.4818 -0.4862
   97OSM    H2S 9615   1.924   4.372  10.285  2.6098  0.5049  2.5361
   97OSM    C3S 9616   1.909   4.590  10.238 -0.4953  0.1276  0.3959
   97OSM    H3S 9617   1.984   4.658  10.192  0.0755  1.5283  3.2033
   97OSM     O3 9618   1.876   4.651  10.363  0.0939 -0.0132 -0.2127
   97OSM    HO3 9619   1.930   4.604  10.427  0.2004 -0.6466 -0.7613
   97OSM    C4S 9620   1.786   4.580  10.157  0.9092  0.1039  0.1896
   97OSM    H4S 9621   1.712   4.529  10.221  1.2965  1.2113  1.5569
   97OSM    C5S 9622   1.767   4.631  10.034 -0.1639 -0.0511  0.9846
   97OSM    H5S 9623   1.842   4.697   9.989 -3.3117  1.6985 -2.1681
   97OSM    C6S 9624   1.639   4.606   9.957 -0.5971  0.1663 -0.4419
   97OSM    H6S 9625   1.583   4.698   9.930 -0.3108 -0.0484 -1.8970
   97OSM    H6T 9626   1.572   4.538  10.014  0.0199  1.0161  1.3528
   97OSM    C7S 9627   1.669   4.524   9.824 -0.5051 -0.8157 -0.5463
   97OSM    H7S 9628   1.720   4.430   9.852  1.7177  0.5062  0.1008
   97OSM    H7T 9629   1.739   4.590   9.768 -0.1516 -2.1179 -1.6917
   97OSM    C8S 9630   1.543   4.498   9.744  0.0067  0.5746 -0.2753
   97OSM    H8S 9631   1.484   4.592   9.748 -0.3439  0.3636 -0.4144
   97OSM    H8T 9632   1.479   4.420   9.790  0.6546  2.0547  3.4844
   97OSM    C9S 9633   1.588   4.455   9.601  0.5307 -0.4343 -0.6351
   97OSM    H9S 9634   1.648   4.361   9.602 -1.5226 -1.7913 -0.0119
   97OSM    H9T 9635   1.643   4.538   9.552 -0.1012  0.1508 -0.3639
   97OSM   C10S 9636   1.467   4.413   9.517  0.3414  0.1796 -0.4218
   97OSM   H10S 9637   1.404   4.502   9.493  0.0762 -0.4383 -2.2007
   97OSM   H10T 9638   1.395   4.349   9.573 -0.0268  2.1941  1.5403
   97OSM   C11S 9639   1.510   4.341   9.388 -0.5645  0.2819  0.5452
   97OSM   H11S 9640   1.429   4.269   9.366  0.1877 -0.5705  0.5102
   97OSM   H11T 9641   1.601   4.280   9.406  0.2252  1.6083  1.1975
   97OSM   C12S 9642   1.531   4.437   9.268 -0.7813  0.7490  0.2939
   97OSM   H12S 9643   1.601   4.518   9.297 -0.7172  1.7117 -2.2399
   97OSM   H12T 9644   1.436   4.489   9.241 -0.5171  0.5809 -1.0648
   97OSM   C13S 9645   1.599   4.364   9.150  0.1628  0.2197 -0.1417
   97OSM   H13S 9646   1.551   4.264   9.153  0.2678  0.1747  0.0595
   97OSM   H13T 9647   1.708   4.351   9.167  0.3510  1.7551 -0.0250
   97OSM   C14S 9648   1.567   4.429   9.020  0.6437  0.4933 -0.0046
   97OSM   H14S 9649   1.620   4.527   9.023  1.4600  0.0418  2.0748
   97OSM   H14T 9650   1.456   4.436   9.010  0.7359 -0.1282 -1.7852
   97OSM   C15S 9651   1.614   4.340   8.900 -0.0780 -0.3787 -0.9787
   97OSM   H15S 9652   1.614   4.402   8.808  0.9874  2.9277  1.0794
   97OSM   H15T 9653   1.536   4.263   8.882 -0.7119 -0.2168  0.8644
   97OSM   C16S 9654   1.749   4.271   8.911 -0.1686 -0.9616 -0.0480
   97OSM   H16S 9655   1.749   4.182   8.978  0.5628 -1.0079 -0.1069
   97OSM   H16T 9656   1.831   4.334   8.953 -1.1373 -0.1077  0.6390
   97OSM   C17S 9657   1.809   4.209   8.776 -0.1207 -0.1780 -0.1375
   97OSM   H17S 9658   1.915   4.178   8.786 -0.3915 -0.8289  0.9838
   97OSM   H17T 9659   1.805   4.286   8.696  1.5826 -0.9574 -1.0366
   97OSM   C18S 9660   1.727   4.084   8.724  0.1584 -0.2869 -0.1611
   97OSM   H18S 9661   1.720   4.019   8.813  1.0943 -2.1812 -1.4137
   97OSM   H18T 9662   1.766   4.034   8.633  0.1523  1.7689 -1.3718
   97OSM   H18U 9663   1.626   4.123   8.697  0.4965  0.9985  0.3620
   97OSM    C1F 9664   2.067   4.294  10.072  0.3461  0.2726  0.3483
   97OSM     OF 9665   2.085   4.203  10.153  0.0296  0.3433  0.0061
   97OSM    C2F 9666   2.126   4.271   9.931 -0.5506 -0.2169 -0.0007
   97OSM    H2F 9667   2.218   4.208   9.933  0.2358  0.8724 -0.5779
   97OSM    H2G 9668   2.163   4.373   9.907 -0.2704  0.0718  1.5313
   97OSM    C3F 9669   2.037   4.202   9.819 -0.6547 -0.3875  0.1178
   97OSM    H3F 9670   1.941   4.257   9.818 -0.3818  0.3830  3.3801
   97OSM    H3G 9671   2.027   4.097   9.854 -0.0286 -1.0623 -1.6092
   97OSM    C4F 9672   2.093   4.198   9.682 -0.4525 -0.1605 -0.0115
   97OSM    H4F 9673   2.138   4.295   9.654  0.5154 -0.5354  0.1885
   97OSM    H4G 9674   2.005   4.170   9.621 -0.5473  1.1729 -0.5121
   97OSM    C5F 9675   2.216   4.101   9.667 -0.5120  0.3275 -0.3886
   97OSM    H5F 9676   2.183   4.001   9.703  0.4952  0.4997  1.1245
   97OSM    H5G 9677   2.290   4.152   9.734  0.8242  0.0527 -1.5957
   97OSM    C6F 9678   2.254   4.085   9.520 -0.3159  0.2131  0.0728
   97OSM    H6F 9679   2.169   4.051   9.458 -0.8169  0.4939  0.5932
   97OSM    H6G 9680   2.339   4.014   9.515  0.1968  0.9162 -1.7951
   97OSM    C7F 9681   2.311   4.209   9.457 -0.2378  0.3681  0.2625
   97OSM    H7F 9682   2.399   4.245   9.515 -1.2084  4.3077 -0.4681
   97OSM    H7G 9683   2.240   4.294   9.448  0.6235  0.9985 -0.8084
   97OSM    C8F 9684   2.377   4.172   9.319 -0.2246 -0.0424 -0.3554
   97OSM    H8F 9685   2.291   4.140   9.257 -1.7927  1.1167  1.1270
   97OSM    H8G 9686   2.438   4.080   9.330 -0.8371 -0.5166 -0.8928
   97OSM    C9F 9687   2.455   4.283   9.259  0.1054 -0.5780 -0.4252
   97OSM    H9F 9688   2.510   4.336   9.338 -3.5237  1.8130  0.7201
   97OSM   C10F 9689   2.459   4.328   9.132  0.2227  0.1655  1.0117
   97OSM   H10F 9690   2.515   4.419   9.105 -0.0190  0.3145  1.0148
   97OSM   C11F 9691   2.378   4.269   9.015  0.1055  0.6571  0.1111
   97OSM   H11F 9692   2.291   4.210   9.050 -0.4941  0.6946 -1.2298
   97OSM   H11G 9693   2.453   4.211   8.956 -2.3693 -2.2453 -0.4570
   97OSM   C12F 9694   2.323   4.390   8.935 -0.0713 -0.3154 -0.1745
   97OSM   H12F 9695   2.407   4.455   8.902 -0.0225 -0.1899  0.1881
   97OSM   H12G 9696   2.269   4.455   9.008  0.1755  1.7373 -1.7313
   97OSM   C13F 9697   2.215   4.360   8.828  1.9278  0.3038  0.0229
   97OSM   H13F 9698   2.169   4.461   8.820  2.3180  0.4938  0.1803
   97OSM   H13G 9699   2.132   4.301   8.872  1.3466 -0.4819 -2.0308
   97OSM   C14F 9700   2.268   4.305   8.691  0.7550 -0.7117 -0.7623
   97OSM   H14F 9701   2.304   4.202   8.712 -0.7484 -0.7746  1.9576
   97OSM   H14G 9702   2.353   4.364   8.649  0.5329 -2.1870 -3.5336
   97OSM   C15F 9703   2.159   4.308   8.584  0.4114  0.1495 -0.4212
   97OSM   H15F 9704   2.114   4.405   8.552  0.0185  1.0553  2.5872
   97OSM   H15G 9705   2.072   4.249   8.618 -0.5789  3.0664  2.5652
   97OSM   C16F 9706   2.196   4.246   8.450  0.5689  0.1486  0.6697
   97OSM   H16F 9707   2.103   4.204   8.407  0.5623  0.9066 -0.0757
   97OSM   H16G 9708   2.269   4.163   8.469 -2.1330 -2.0384  2.2812
   97OSM   C17F 9709   2.251   4.337   8.351  0.3401 -0.2171  0.1813
   97OSM   H17F 9710   2.357   4.362   8.375  0.0391 -0.2686  1.6566
   97OSM   H17G 9711   2.181   4.422   8.338  1.3613  0.4125 -1.6217
   97OSM   C18F 9712   2.253   4.264   8.215 -0.6162  1.0342  0.2263
   97OSM   H18F 9713   2.150   4.227   8.192  0.2793 -0.6973 -1.2499
   97OSM   H18G 9714   2.321   4.176   8.224 -0.0957  1.3558 -0.4795
   97OSM   H18H 9715   2.280   4.325   8.127 -1.2192 -0.2976 -0.9379
   98OSM      N 9716   2.761   5.032  10.343  0.2378 -0.0397  0.2022
   98OSM    C15 9717   2.752   4.886  10.375  0.3130  0.1530  0.1474
   98OSM   H15A 9718   2.672   4.873  10.446 -0.4944 -0.4360 -0.8372
   98OSM   H15B 9719   2.845   4.846  10.413  0.0616  0.7824  1.4732
   98OSM   H15C 9720   2.729   4.837  10.282  1.0686  2.1865 -1.1723
   98OSM    C14 9721   2.776   5.093  10.485  0.1668 -0.7125 -1.1625
   98OSM   H14A 9722   2.687   5.096  10.546  0.4770  4.3242 -0.5256
   98OSM   H14B 9723   2.814   5.195  10.481  2.3536 -1.1982  2.4344
   98OSM   H14C 9724   2.853   5.047  10.545 -2.2148 -1.6549  1.4306
   98OSM    C13 9725   2.877   5.048  10.259 -0.8547  0.3640 -0.5943
   98OSM   H13A 9726   2.857   4.992  10.169  1.0117 -1.7657  0.2373
   98OSM   H13B 9727   2.965   4.999  10.299  0.1855  0.8956 -2.1522
   98OSM   H13C 9728   2.896   5.148  10.223  0.9360 -0.1365 -1.1187
   98OSM    C12 9729   2.634   5.081  10.280 -0.3086 -0.2833 -0.5767
   98OSM   H12A 9730   2.661   5.184  10.265  2.0478 -0.8595 -0.8056
   98OSM   H12B 9731   2.555   5.078  10.353  0.6477 -1.6927  0.4462
   98OSM    C11 9732   2.589   5.020  10.141 -0.0598 -0.2133 -0.0770
   98OSM   H11A 9733   2.664   5.044  10.062  0.5659 -2.2785 -0.1922
   98OSM   H11B 9734   2.498   5.076  10.111 -1.2263 -1.1186  1.5951
   98OSM      P 9735   2.417   4.827  10.189  0.2639 -0.1133  0.0728
   98OSM    O13 9736   2.440   4.703  10.260  0.5494  0.0689 -0.5696
   98OSM    O14 9737   2.347   4.932  10.265 -0.7417 -0.2956 -0.1370
   98OSM    O11 9738   2.334   4.802  10.057 -0.1131  0.0930  0.0357
   98OSM    O12 9739   2.556   4.885  10.139 -0.0380  0.1185 -0.1791
   98OSM    C1S 9740   2.266   4.915   9.983  0.6652  0.3249  0.4774
   98OSM    H1S 9741   2.335   5.001   9.972 -1.7300  2.1317 -1.8889
   98OSM    H1T 9742   2.168   4.948  10.024  0.1892  0.6873 -0.9000
   98OSM     NF 9743   2.195   4.995   9.759 -0.0757  0.0529  0.5618
   98OSM    HNF 9744   2.102   5.010   9.729  0.2642  0.5324 -0.2890
   98OSM    C2S 9745   2.227   4.876   9.835  0.0394  0.5063 -0.2045
   98OSM    H2S 9746   2.306   4.816   9.785 -2.0777 -0.9303 -2.0155
   98OSM    C3S 9747   2.116   4.769   9.838  0.7695 -0.6472 -0.5297
   98OSM    H3S 9748   2.021   4.827   9.847  0.9745 -0.1419 -1.5061
   98OSM     O3 9749   2.109   4.668   9.944  0.9080  0.1606 -0.3479
   98OSM    HO3 9750   2.157   4.714  10.013  0.1806 -0.0635  0.3249
   98OSM    C4S 9751   2.087   4.699   9.703 -0.0618 -0.1187  0.0271
   98OSM    H4S 9752   2.161   4.620   9.687 -0.3065 -0.6102  1.2201
   98OSM    C5S 9753   1.976   4.724   9.632 -0.7319 -0.1084  0.0534
   98OSM    H5S 9754   1.912   4.809   9.661 -0.6097 -0.1270  0.3742
   98OSM    C6S 9755   1.937   4.646   9.504  0.2333 -0.0014 -0.6244
   98OSM    H6S 9756   1.929   4.708   9.412 -1.3576 -1.7815 -1.7614
   98OSM    H6T 9757   1.832   4.614   9.525  0.3410  1.2644  2.3834
   98OSM    C7S 9758   2.027   4.526   9.465 -0.6543 -0.2502  0.1002
   98OSM    H7S 9759   2.058   4.470   9.555 -0.0507  0.3605  0.2760
   98OSM    H7T 9760   2.113   4.573   9.413 -2.1900  1.4236 -1.0633
   98OSM    C8S 9761   1.959   4.445   9.364  0.4702 -0.5103  0.0566
   98OSM    H8S 9762   1.864   4.403   9.404 -0.1506  0.9371  0.1686
   98OSM    H8T 9763   2.035   4.366   9.348  0.5829 -0.2036 -0.9932
   98OSM    C9S 9764   1.925   4.525   9.236  0.9223 -0.2640  0.0456
   98OSM    H9S 9765   1.839   4.596   9.245  1.8971  1.2615 -1.8076
   98OSM    H9T 9766   1.901   4.448   9.159  2.2513  0.3625 -1.0499
   98OSM   C10S 9767   2.036   4.610   9.172  0.3780 -0.2409  0.0594
   98OSM   H10S 9768   2.120   4.546   9.137 -0.4995 -1.5383  0.2816
   98OSM   H10T 9769   2.076   4.688   9.240 -0.6393  0.3458  0.0182
   98OSM   C11S 9770   1.999   4.699   9.047  1.4374 -1.0060  0.0601
   98OSM   H11S 9771   2.096   4.740   9.012  0.9504 -0.9143 -1.2238
   98OSM   H11T 9772   1.922   4.777   9.070  2.2288 -0.5174  1.1486
   98OSM   C12S 9773   1.942   4.621   8.931  1.2120 -0.3612 -0.1398
   98OSM   H12S 9774   1.834   4.596   8.940  0.7202  1.0189 -1.8069
   98OSM   H12T 9775   1.982   4.518   8.942  1.3523 -0.1259  2.0082
   98OSM   C13S 9776   1.958   4.675   8.789  0.3327  0.2577 -0.3495
   98OSM   H13S 9777   2.058   4.646   8.752  1.0782  1.4397  0.6228
   98OSM   H13T 9778   1.950   4.786   8.782  0.0777  0.4721  2.2468
   98OSM   C14S 9779   1.858   4.607   8.684 -0.5974  0.0589 -0.1153
   98OSM   H14S 9780   1.768   4.608   8.748  1.7961 -1.6424  3.6311
   98OSM   H14T 9781   1.887   4.508   8.641 -0.6002  0.2228 -0.4991
   98OSM   C15S 9782   1.845   4.709   8.565 -0.5399  0.3167  0.2891
   98OSM   H15S 9783   1.848   4.812   8.604  0.2079 -0.0753  1.3122
   98OSM   H15T 9784   1.753   4.694   8.504  0.7308 -3.6497 -0.9998
   98OSM   C16S 9785   1.966   4.687   8.465 -0.7858  0.2051  0.2425
   98OSM   H16S 9786   2.056   4.639   8.508 -0.4678  0.9505  0.4074
   98OSM   H16T 9787   1.992   4.788   8.429 -1.1703 -0.0503 -0.7825
   98OSM   C17S 9788   1.935   4.602   8.340 -0.3161 -0.2340  0.4127
   98OSM   H17S 9789   1.912   4.502   8.383  1.9406  0.5687  3.8630
   98OSM   H17T 9790   2.028   4.591   8.281 -1.5368 -0.9153 -1.5074
   98OSM   C18S 9791   1.829   4.655   8.244 -0.3528  0.6706 -0.0815
   98OSM   H18S 9792   1.799   4.588   8.160 -2.1660  3.2729 -1.6640
   98OSM   H18T 9793   1.868   4.744   8.191  0.2725  1.2847  1.3543
   98OSM   H18U 9794   1.738   4.694   8.295  1.0905  3.1985  0.7400
   98OSM    C1F 9795   2.292   5.073   9.716 -0.7324  0.7300 -0.3092
   98OSM     OF 9796   2.412   5.042   9.734  0.1246 -0.5670 -0.5388
   98OSM    C2F 9797   2.253   5.195   9.639 -0.1986  0.5298  0.4026
   98OSM    H2F 9798   2.275   5.283   9.703 -2.4433  1.1540  0.3906
   98OSM    H2G 9799   2.145   5.204   9.616 -0.1208  1.5310  0.4196
   98OSM    C3F 9800   2.327   5.206   9.500 -0.3276 -0.5372  0.5650
   98OSM    H3F 9801   2.435   5.184   9.515 -0.3735 -0.8154  0.4921
   98OSM    H3G 9802   2.328   5.309   9.458 -0.4780 -0.5728  0.4765
   98OSM    C4F 9803   2.263   5.119   9.386  0.3232  0.4422 -0.2665
   98OSM    H4F 9804   2.234   5.016   9.418 -3.2335  1.4988  0.3396
   98OSM    H4G 9805   2.341   5.089   9.313 -0.0066 -0.3362 -0.3185
   98OSM    C5F 9806   2.151   5.186   9.312  0.7739 -0.3346 -0.4328
   98OSM    H5F 9807   2.172   5.291   9.280  1.2920 -0.7312 -1.4446
   98OSM    H5G 9808   2.062   5.192   9.379 -0.9604  0.1196 -2.6595
   98OSM    C6F 9809   2.115   5.114   9.179 -0.9518  0.4352  0.4472
   98OSM    H6F 9810   2.074   5.016   9.208  0.2107  0.1473  1.2044
   98OSM    H6G 9811   2.210   5.096   9.123 -0.3199  1.0609  1.2757
   98OSM    C7F 9812   2.018   5.193   9.090 -0.1224 -0.4200  0.0217
   98OSM    H7F 9813   2.082   5.259   9.029 -1.7368  0.1914 -1.0722
   98OSM    H7G 9814   1.966   5.269   9.153  1.7506  0.2436  0.8513
   98OSM    C8F 9815   1.909   5.110   9.013  0.0650 -0.6784 -0.1019
   98OSM    H8F 9816   1.836   5.188   8.983 -0.0279 -0.2426  1.2294
   98OSM    H8G 9817   1.852   5.048   9.086  0.8364  1.1899  2.1945
   98OSM    C9F 9818   1.981   5.029   8.904  0.4355  0.2104  0.0067
   98OSM    H9F 9819   2.049   4.949   8.936  0.7733 -0.5868 -2.4948
   98OSM   C10F 9820   1.953   5.064   8.780 -0.3715  0.5790 -0.1256
   98OSM   H10F 9821   2.007   5.013   8.699 -0.0201 -0.7624  0.9164
   98OSM   C11F 9822   1.856   5.161   8.720 -0.0814  0.1515 -0.1052
   98OSM   H11F 9823   1.760   5.156   8.777  1.0122  0.9030  1.9153
   98OSM   H11G 9824   1.837   5.133   8.614  0.6346  0.6400 -0.3676
   98OSM   C12F 9825   1.901   5.300   8.689  0.6476  0.1576  0.4108
   98OSM   H12F 9826   1.965   5.349   8.765 -0.0161 -0.6224  1.4876
   98OSM   H12G 9827   1.819   5.368   8.658 -0.1774 -0.4373  1.2370
   98OSM   C13F 9828   1.991   5.297   8.564  0.1072  0.8714 -0.9195
   98OSM   H13F 9829   1.945   5.226   8.492  1.7691 -1.2987  0.0323
   98OSM   H13G 9830   2.086   5.254   8.602 -1.4960 -0.5230  1.8878
   98OSM   C14F 9831   2.002   5.433   8.498 -0.0700 -0.3007 -0.4212
   98OSM   H14F 9832   2.054   5.491   8.578  0.7996 -3.3992  1.4337
   98OSM   H14G 9833   1.904   5.485   8.499  0.2082  0.3544 -2.5326
   98OSM   C15F 9834   2.082   5.444   8.360  0.7827  0.0803 -0.0402
   98OSM   H15F 9835   2.131   5.345   8.348 -0.1345 -0.4011  0.1272
   98OSM   H15G 9836   2.170   5.512   8.365  0.3445  0.6105  0.7366
   98OSM   C16F 9837   2.004   5.473   8.233  0.5485  0.4213  0.1614
   98OSM   H16F 9838   1.954   5.572   8.230 -1.0031 -0.3618 -0.6382
   98OSM   H16G 9839   1.930   5.390   8.225  2.3126 -1.0334 -3.1769
   98OSM   C17F 9840   2.087   5.471   8.112 -0.0004  0.0283  0.1334
   98OSM   H17F 9841   2.172   5.400   8.129  0.2926  0.5571  0.9040
   98OSM   H17G 9842   2.130   5.568   8.079  1.2496 -0.3393  0.6424
   98OSM   C18F 9843   2.019   5.411   7.989 -0.2064  0.7341 -0.0986
   98OSM   H18F 9844   1.922   5.456   7.959 -0.1390  0.4963 -0.6791
   98OSM   H18G 9845   1.988   5.308   8.019  1.5368  0.0324 -0.5829
   98OSM   H18H 9846   2.083   5.404   7.899 -0.0924 -0.4859  0.0588
   99OSM      N 9847   1.996   5.443  10.036  0.1225 -0.0930  0.1639
   99OSM    C15 9848   1.940   5.550   9.949 -0.7421 -0.8740  0.6145
   99OSM   H15A 9849   2.005   5.636   9.940 -2.6192  0.4441 -1.6597
   99OSM   H15B 9850   1.842   5.583   9.983 -1.3521 -0.5765 -1.2977
   99OSM   H15C 9851   1.939   5.507   9.851  3.8160  0.0791 -0.0493
   99OSM    C14 9852   2.030   5.500  10.170 -0.2474 -0.0222  0.6490
   99OSM   H14A 9853   2.092   5.588  10.156 -1.0527  0.7270  1.6410
   99OSM   H14B 9854   2.089   5.423  10.216 -0.1117 -0.8618 -0.8566
   99OSM   H14C 9855   1.946   5.536  10.227  0.0722  0.7258  0.6666
   99OSM    C13 9856   1.891   5.339  10.068 -0.6167  0.8505 -0.5489
   99OSM   H13A 9857   1.863   5.282   9.980 -2.3539 -0.7007  0.9222
   99OSM   H13B 9858   1.801   5.390  10.101 -0.6094  0.6188 -0.1727
   99OSM   H13C 9859   1.929   5.283  10.152  0.7397  1.5388 -0.6770
   99OSM    C12 9860   2.121   5.394   9.967 -0.5259  0.0939 -0.9583
   99OSM   H12A 9861   2.191   5.475   9.951 -0.0974 -0.1517 -0.3358
   99OSM   H12B 9862   2.093   5.346   9.874  0.1073 -0.4578 -0.8742
   99OSM    C11 9863   2.199   5.277  10.033 -0.5513 -0.5715  0.1884
   99OSM   H11A 9864   2.271   5.232   9.962 -0.4307 -0.9728  0.5612
   99OSM   H11B 9865   2.124   5.202  10.069  0.3433 -1.1305  0.9189
   99OSM      P 9866   2.400   5.420  10.107 -0.3813  0.2663 -0.4316
   99OSM    O13 9867   2.369   5.518  10.009  0.2843  0.3479 -0.2268
   99OSM    O14 9868   2.447   5.475  10.236 -0.7738  0.2353 -0.0900
   99OSM    O11 9869   2.505   5.312  10.057  0.0330 -0.3585  0.5696
   99OSM    O12 9870   2.271   5.334  10.137  0.1533 -0.3817 -0.0009
   99OSM    C1S 9871   2.545   5.306   9.917 -0.4156  0.2131 -0.9189
   99OSM    H1S 9872   2.471   5.343   9.843  1.7236  3.6747 -1.5656
   99OSM    H1T 9873   2.575   5.201   9.896  2.1778 -0.4484  4.4908
   99OSM     NF 9874   2.713   5.374   9.767  0.3414 -0.5150 -0.1051
   99OSM    HNF 9875   2.789   5.310   9.757  1.3800  0.0014  3.2454
   99OSM    C2S 9876   2.673   5.388   9.903  0.3995 -0.5279  0.6451
   99OSM    H2S 9877   2.659   5.498   9.917  0.8410 -0.4448  0.4473
   99OSM    C3S 9878   2.790   5.343  10.001  0.2144  0.3181 -0.4078
   99OSM    H3S 9879   2.791   5.232   9.999 -0.2269  0.3245 -1.4372
   99OSM     O3 9880   2.774   5.378  10.140  0.2182 -0.1642 -0.0272
   99OSM    HO3 9881   2.679   5.387  10.150  0.3116 -1.2089  3.0813
   99OSM    C4S 9882   2.925   5.378   9.953 -0.0870  0.0786 -0.0550
   99OSM    H4S 9883   2.945   5.484   9.970  1.1637 -0.3454  1.4069
   99OSM    C5S 9884   3.025   5.294   9.919 -0.1578 -0.5835 -0.8077
   99OSM    H5S 9885   3.014   5.186   9.931 -0.1518 -0.4380  0.6825
   99OSM    C6S 9886   3.163   5.350   9.886  0.0857 -0.2045  0.3662
   99OSM    H6S 9887   3.222   5.268   9.840 -0.4253 -0.2326 -0.2516
   99OSM    H6T 9888   3.227   5.366   9.975  1.8223 -3.5198 -0.1198
   99OSM    C7S 9889   3.160   5.468   9.795  0.5808 -0.2392 -0.2489
   99OSM    H7S 9890   3.262   5.512   9.787  0.2680  0.1878 -3.1389
   99OSM    H7T 9891   3.093   5.552   9.824  0.0700 -0.4384 -0.8173
   99OSM    C8S 9892   3.129   5.441   9.645 -0.6327 -0.1198  0.5326
   99OSM    H8S 9893   3.050   5.366   9.624 -0.8144  0.1547  0.2299
   99OSM    H8T 9894   3.226   5.408   9.601  0.8742  1.2420  2.6195
   99OSM    C9S 9895   3.090   5.566   9.563  0.2929 -0.6476 -0.4895
   99OSM    H9S 9896   3.152   5.656   9.583  2.2095 -1.6516 -1.6244
   99OSM    H9T 9897   2.994   5.603   9.604  1.5791  0.2561  1.9193
   99OSM   C10S 9898   3.093   5.532   9.420 -0.0097 -0.1424  0.6562
   99OSM   H10S 9899   3.036   5.437   9.410  1.5354 -1.0353 -0.0145
   99OSM   H10T 9900   3.194   5.513   9.378  0.6874 -0.0193  2.2319
   99OSM   C11S 9901   3.024   5.638   9.334  0.2201  0.1871 -0.4815
   99OSM   H11S 9902   3.086   5.731   9.333 -2.1759  1.8861 -0.0443
   99OSM   H11T 9903   2.934   5.669   9.392  0.5419  0.1406  0.0548
   99OSM   C12S 9904   2.972   5.616   9.195  0.2390  0.1196 -0.8741
   99OSM   H12S 9905   2.911   5.524   9.180  0.9531 -0.0583 -3.1880
   99OSM   H12T 9906   2.901   5.697   9.167  0.6675 -0.1086 -2.8189
   99OSM   C13S 9907   3.078   5.620   9.082  0.4674 -0.5056  0.4413
   99OSM   H13S 9908   3.133   5.523   9.087  0.3834 -0.4813  2.2182
   99OSM   H13T 9909   3.156   5.696   9.105 -1.4040  1.4052  0.7829
   99OSM   C14S 9910   3.019   5.630   8.937  0.1684 -0.0785 -0.3494
   99OSM   H14S 9911   2.989   5.737   8.924  0.4447  0.2608  1.5060
   99OSM   H14T 9912   2.921   5.578   8.934 -0.7350  1.5853 -1.6778
   99OSM   C15S 9913   3.109   5.591   8.819 -0.1292  0.1564 -0.0524
   99OSM   H15S 9914   3.169   5.500   8.839 -1.9902 -1.1444 -0.2032
   99OSM   H15T 9915   3.187   5.671   8.815 -0.7816  0.7711 -1.2292
   99OSM   C16S 9916   3.040   5.592   8.681 -0.1484  0.3065 -0.2947
   99OSM   H16S 9917   2.979   5.499   8.693  3.4669 -2.0437  1.8174
   99OSM   H16T 9918   3.119   5.564   8.608 -0.6286 -0.5298 -0.5129
   99OSM   C17S 9919   2.974   5.719   8.638 -0.7720 -0.0557 -0.2186
   99OSM   H17S 9920   3.040   5.804   8.664  0.7982 -1.0128 -0.8861
   99OSM   H17T 9921   2.888   5.734   8.707 -0.0130  1.2354  0.4588
   99OSM   C18S 9922   2.912   5.728   8.499 -0.1914  0.5836 -0.3392
   99OSM   H18S 9923   2.979   5.710   8.412 -0.6453  1.8244 -0.9576
   99OSM   H18T 9924   2.842   5.812   8.481 -1.1037 -0.2747 -0.8537
   99OSM   H18U 9925   2.847   5.638   8.505  1.5305 -0.6651  1.0542
   99OSM    C1F 9926   2.653   5.425   9.665  0.6691 -0.6000  0.3574
   99OSM     OF 9927   2.556   5.501   9.684  0.3369 -0.1678 -0.2252
   99OSM    C2F 9928   2.707   5.384   9.530 -0.1014 -0.5392 -0.8182
   99OSM    H2F 9929   2.649   5.296   9.497 -0.5210  0.3181 -2.4459
   99OSM    H2G 9930   2.809   5.352   9.561  0.0797  0.1200 -0.7110
   99OSM    C3F 9931   2.704   5.513   9.439 -0.1034  0.2565  0.0477
   99OSM    H3F 9932   2.750   5.603   9.484  1.7474 -1.0537  0.9716
   99OSM    H3G 9933   2.775   5.486   9.357  2.5853  0.3860  2.1755
   99OSM    C4F 9934   2.561   5.549   9.384 -0.1055 -1.1154 -0.2291
   99OSM    H4F 9935   2.572   5.652   9.342 -0.9629 -0.6047  0.7445
   99OSM    H4G 9936   2.490   5.558   9.469 -0.3412  3.7301 -0.6201
   99OSM    C5F 9937   2.492   5.469   9.269  0.5684  0.1034  0.0667
   99OSM    H5F 9938   2.390   5.508   9.253  0.4038  0.5720  1.9903
   99OSM    H5G 9939   2.487   5.360   9.290  0.6670  0.0535 -0.1653
   99OSM    C6F 9940   2.576   5.486   9.138 -0.4263  0.6206 -0.4138
   99OSM    H6F 9941   2.673   5.437   9.163 -0.4201 -0.0394 -1.6754
   99OSM    H6G 9942   2.593   5.593   9.112  2.9057  0.7963  1.7451
   99OSM    C7F 9943   2.520   5.412   9.026  0.4262  0.5131  0.0279
   99OSM    H7F 9944   2.454   5.330   9.061  2.0407  0.1863  2.6146
   99OSM    H7G 9945   2.605   5.363   8.973  0.4769 -0.2578  0.7965
   99OSM    C8F 9946   2.437   5.512   8.945 -0.4704  0.0634 -0.8702
   99OSM    H8F 9947   2.507   5.593   8.914  1.4787 -1.4845 -0.7220
   99OSM    H8G 9948   2.364   5.549   9.020 -0.8351 -0.7696 -0.8125
   99OSM    C9F 9949   2.369   5.458   8.828  0.6598 -0.0215 -0.9108
   99OSM    H9F 9950   2.328   5.356   8.838 -1.3181  0.8584  0.4827
   99OSM   C10F 9951   2.341   5.521   8.714  0.2678 -0.5405  0.8324
   99OSM   H10F 9952   2.296   5.469   8.629 -0.4568  0.7520  0.3928
   99OSM   C11F 9953   2.389   5.653   8.662  0.3139 -0.0796 -0.5539
   99OSM   H11F 9954   2.423   5.721   8.743 -1.0504 -2.4140  2.1154
   99OSM   H11G 9955   2.303   5.708   8.617 -1.4788  0.2901  2.9947
   99OSM   C12F 9956   2.504   5.627   8.564  0.4088  0.1460  0.3301
   99OSM   H12F 9957   2.480   5.531   8.514 -3.3441  0.9238  0.3563
   99OSM   H12G 9958   2.598   5.611   8.622  1.8284  1.2617 -1.5495
   99OSM   C13F 9959   2.526   5.733   8.455  0.5661 -1.1009  0.3532
   99OSM   H13F 9960   2.603   5.700   8.383  1.0516  0.9903 -0.1407
   99OSM   H13G 9961   2.565   5.827   8.499 -1.4060 -0.5937  1.1199
   99OSM   C14F 9962   2.395   5.774   8.381 -0.6904  0.5431 -0.4655
   99OSM   H14F 9963   2.340   5.822   8.464  0.0062 -0.5727  0.6704
   99OSM   H14G 9964   2.337   5.689   8.340 -0.4787  0.6992 -1.1042
   99OSM   C15F 9965   2.422   5.879   8.263 -0.3855  0.6164  0.5847
   99OSM   H15F 9966   2.494   5.841   8.188  1.8867 -0.4434  3.1174
   99OSM   H15G 9967   2.462   5.975   8.302  3.2054 -0.8951  1.0134
   99OSM   C16F 9968   2.288   5.896   8.175 -0.7183 -0.2527 -0.5246
   99OSM   H16F 9969   2.231   5.966   8.239 -2.7045 -0.4267 -1.9770
   99OSM   H16G 9970   2.236   5.797   8.172  0.7673 -1.0865  0.3677
   99OSM   C17F 9971   2.306   5.941   8.025  0.0431 -0.0405 -0.1390
   99OSM   H17F 9972   2.213   5.961   7.968  0.5225  0.2426 -0.8325
   99OSM   H17G 9973   2.364   5.863   7.970  0.1259  0.3997 -0.6770
   99OSM   C18F 9974   2.395   6.061   8.023 -0.0728  0.0641  0.5028
   99OSM   H18F 9975   2.337   6.148   8.062  2.1372  0.7098  2.5479
   99OSM   H18G 9976   2.412   6.100   7.920  1.0666 -2.0501 -0.1605
   99OSM   H18H 9977   2.495   6.063   8.071 -0.3802  1.9372  1.1595
  100OSM      N 9978   5.184   5.383  10.631  0.7184 -0.1799 -0.1154
  100OSM    C15 9979   5.053   5.469  10.620 -0.0053  0.7030 -0.1664
  100OSM   H15A 9980   5.041   5.534  10.705  1.7255  0.5594  0.2083
  100OSM   H15B 9981   4.969   5.400  10.618  0.3230  0.3112 -0.9315
  100OSM   H15C 9982   5.072   5.545  10.546 -0.1508  0.2550 -0.6725
  100OSM    C14 9983   5.195   5.307  10.758  1.1383  0.4356  0.3024
  100OSM   H14A 9984   5.199   5.373  10.844 -2.3804 -1.2803  2.0285
  100OSM   H14B 9985   5.296   5.270  10.759  0.6177 -1.0668  0.0761
  100OSM   H14C 9986   5.122   5.228  10.767  1.1117  0.3364 -0.7027
  100OSM    C13 9987   5.181   5.298  10.509 -0.5353  0.3181  0.5230
  100OSM   H13A 9988   5.269   5.236  10.503 -0.4527  0.4739  0.1104
  100OSM   H13B 9989   5.183   5.353  10.416  0.2796 -1.8985 -0.8303
  100OSM   H13C 9990   5.096   5.232  10.508 -0.5668  0.3634 -0.4343
  100OSM    C12 9991   5.298   5.483  10.629  0.3128  0.2870  0.0981
  100OSM   H12A 9992   5.312   5.533  10.724 -1.0854  3.7264 -1.3540
  100OSM   H12B 9993   5.275   5.564  10.561  0.0360  0.8288  0.8255
  100OSM    C11 9994   5.434   5.410  10.586 -0.1229 -0.5740 -0.9572
  100OSM   H11A 9995   5.426   5.383  10.478 -1.3108  0.7785 -1.2481
  100OSM   H11B 9996   5.451   5.309  10.628 -1.7450 -2.4991 -4.4236
  100OSM      P 9997   5.693   5.431  10.638 -0.4323  0.0108  0.1105
  100OSM    O13 9998   5.785   5.544  10.666  0.2350 -0.5564 -0.1437
  100OSM    O14 9999   5.700   5.316  10.732  0.4262  0.1688 -0.5029
  100OSM    O1110000   5.741   5.368  10.502 -0.1531 -0.0849  0.8623
  100OSM    O1210001   5.545   5.492  10.609  0.0131  0.4893  0.3252
  100OSM    C1S10002   5.708   5.422  10.371  0.4702  1.0069 -0.1908
  100OSM    H1S10003   5.758   5.518  10.345  0.1652  1.5917  1.2833
  100OSM    H1T10004   5.600   5.449  10.368  0.3117  0.3510 -0.4828
  100OSM     NF10005   5.745   5.375  10.141 -0.4280  0.1314  0.4983
  100OSM    HNF10006   5.670   5.360  10.076 -0.9813 -0.3279  1.2276
  100OSM    C2S10007   5.726   5.312  10.263  0.0647  0.1807 -0.0356
  100OSM    H2S10008   5.821   5.260  10.286  0.6918  2.0004  1.8618
  100OSM    C3S10009   5.607   5.213  10.277  0.4944 -0.5654  0.2375
  100OSM    H3S10010   5.518   5.279  10.266  1.3994  0.4200 -1.7666
  100OSM     O310011   5.597   5.147  10.401 -0.1909  0.4864  0.4896
  100OSM    HO310012   5.669   5.188  10.450 -0.5133  1.2427  0.3580
  100OSM    C4S10013   5.617   5.122  10.169  0.2231  0.0041  0.5858
  100OSM    H4S10014   5.574   5.157  10.074  0.5795 -2.3773 -0.5196
  100OSM    C5S10015   5.696   5.012  10.161 -0.2546  0.2756  0.3233
  100OSM    H5S10016   5.742   4.981  10.256 -1.4198  1.4576  1.3082
  100OSM    C6S10017   5.714   4.929  10.035  0.3801  0.1636  0.0225
  100OSM    H6S10018   5.691   4.820  10.043 -0.0215  0.2370 -0.1219
  100OSM    H6T10019   5.824   4.924  10.017  0.4200  2.8260 -0.7930
  100OSM    C7S10020   5.658   4.985   9.900 -0.4360 -0.1351 -0.2516
  100OSM    H7S10021   5.694   5.086   9.872 -0.0765 -0.2798 -0.3157
  100OSM    H7T10022   5.548   4.994   9.914 -1.0086 -0.6350 -3.5386
  100OSM    C8S10023   5.687   4.882   9.795 -0.4087 -0.0945  0.5663
  100OSM    H8S10024   5.660   4.785   9.842 -1.7021  0.2911  0.6670
  100OSM    H8T10025   5.796   4.884   9.774 -0.5766  0.7270 -0.2878
  100OSM    C9S10026   5.597   4.894   9.660  0.0952  0.4023 -0.1216
  100OSM    H9S10027   5.616   4.993   9.615 -0.6407  0.0111 -1.3644
  100OSM    H9T10028   5.489   4.880   9.678  0.4581  0.1164  2.1321
  100OSM   C10S10029   5.635   4.791   9.555  0.3415 -0.7762 -0.3805
  100OSM   H10S10030   5.669   4.697   9.604 -1.6861 -1.2201  0.2466
  100OSM   H10T10031   5.717   4.836   9.494 -0.7170 -0.2155 -1.4433
  100OSM   C11S10032   5.522   4.743   9.459 -0.7641 -0.3522 -0.2016
  100OSM   H11S10033   5.468   4.836   9.434  2.6203  2.4531  1.9468
  100OSM   H11T10034   5.459   4.674   9.519 -2.8058 -0.1239 -1.9753
  100OSM   C12S10035   5.578   4.665   9.340 -0.6663  0.4650  0.1289
  100OSM   H12S10036   5.501   4.598   9.298 -0.4818  1.0716 -1.2288
  100OSM   H12T10037   5.651   4.594   9.385 -0.0936  0.2341 -1.1204
  100OSM   C13S10038   5.652   4.753   9.239 -0.5949  0.5822 -1.1885
  100OSM   H13S10039   5.712   4.689   9.171 -0.5224  0.3415 -0.8957
  100OSM   H13T10040   5.728   4.823   9.279 -2.2260  1.6868  0.1109
  100OSM   C14S10041   5.561   4.835   9.149 -0.7897  0.4047 -1.1577
  100OSM   H14S10042   5.498   4.902   9.212  1.1866  1.7922 -0.5341
  100OSM   H14T10043   5.494   4.760   9.103 -2.4098  1.2502 -0.2811
  100OSM   C15S10044   5.633   4.911   9.044 -0.4728 -0.1317  0.2586
  100OSM   H15S10045   5.728   4.961   9.074  0.0154 -0.0556 -1.3055
  100OSM   H15T10046   5.561   4.993   9.022 -0.0297  0.0159 -0.7238
  100OSM   C16S10047   5.651   4.845   8.901  0.3197 -0.2554  0.5338
  100OSM   H16S10048   5.661   4.735   8.909 -0.6883 -0.5996 -2.0701
  100OSM   H16T10049   5.746   4.884   8.859 -0.0609  0.4635  0.3290
  100OSM   C17S10050   5.549   4.871   8.787 -0.5484  0.3468 -0.2357
  100OSM   H17S10051   5.525   4.979   8.776 -4.1712  0.1382  3.2536
  100OSM   H17T10052   5.456   4.820   8.821 -0.7933 -0.3355 -1.8415
  100OSM   C18S10053   5.589   4.801   8.655 -0.1601  0.2028 -0.1491
  100OSM   H18S10054   5.509   4.811   8.580 -1.1521 -2.2307  0.4728
  100OSM   H18T10055   5.609   4.693   8.671  1.0534  0.0597 -2.2758
  100OSM   H18U10056   5.679   4.848   8.610 -0.4565  1.9842  1.0223
  100OSM    C1F10057   5.855   5.446  10.115 -0.2028  0.0568 -0.0986
  100OSM     OF10058   5.948   5.452  10.195 -0.9306 -0.3022 -0.1558
  100OSM    C2F10059   5.863   5.503   9.978 -0.3756 -0.2438 -0.3535
  100OSM    H2F10060   5.847   5.613   9.984  0.9071 -0.0154 -0.7862
  100OSM    H2G10061   5.774   5.478   9.917 -1.1012 -0.0635  0.6212
  100OSM    C3F10062   6.003   5.485   9.911 -0.1498 -0.3017  0.3313
  100OSM    H3F10063   6.080   5.531   9.976 -0.7670  2.0351 -0.4769
  100OSM    H3G10064   6.002   5.562   9.831 -0.4303  1.1745  1.7093
  100OSM    C4F10065   6.042   5.347   9.857 -0.0964 -0.7170  0.3808
  100OSM    H4F10066   6.057   5.287   9.950 -1.6737 -0.2183  0.9815
  100OSM    H4G10067   6.141   5.365   9.810 -0.1958  0.0825  0.4757
  100OSM    C5F10068   5.947   5.274   9.772 -0.3482  0.0627 -0.1008
  100OSM    H5F10069   5.849   5.249   9.819 -0.1585  1.1899  0.9273
  100OSM    H5G10070   6.002   5.182   9.742 -0.5043  0.1689 -0.7186
  100OSM    C6F10071   5.927   5.346   9.638 -0.6669 -0.3227 -0.5703
  100OSM    H6F10072   6.026   5.387   9.608 -0.0805 -0.1631  1.4452
  100OSM    H6G10073   5.853   5.429   9.645 -0.9828 -0.5885 -0.7967
  100OSM    C7F10074   5.869   5.255   9.536 -0.2485 -0.5175  0.0324
  100OSM    H7F10075   5.782   5.206   9.584 -0.6441  0.0812 -0.0627
  100OSM    H7G10076   5.958   5.192   9.512  0.2496 -0.1644  0.9299
  100OSM    C8F10077   5.844   5.333   9.394  0.1856  0.4352  0.7234
  100OSM    H8F10078   5.936   5.390   9.371  1.0210 -1.8172 -2.1990
  100OSM    H8G10079   5.759   5.404   9.409 -1.2286 -1.4683  2.1337
  100OSM    C9F10080   5.822   5.247   9.273 -0.5233  0.0878  0.6275
  100OSM    H9F10081   5.753   5.164   9.291 -0.0630 -0.7843 -1.3354
  100OSM   C10F10082   5.892   5.260   9.156 -0.0191  0.4862  0.2504
  100OSM   H10F10083   5.853   5.201   9.072 -0.4861  1.8156 -0.5026
  100OSM   C11F10084   5.996   5.359   9.113 -0.3377 -0.1356 -0.1668
  100OSM   H11F10085   6.080   5.353   9.186 -2.6144 -2.2651  2.5003
  100OSM   H11G10086   5.953   5.461   9.125  0.8614  0.2984  0.6408
  100OSM   C12F10087   6.049   5.358   8.970 -0.5543  0.6482 -0.2422
  100OSM   H12F10088   6.108   5.264   8.958 -1.6805 -0.3984  1.8196
  100OSM   H12G10089   6.121   5.442   8.963  1.5153 -1.0800 -0.8958
  100OSM   C13F10090   5.941   5.382   8.862  0.3705 -0.2148 -0.2775
  100OSM   H13F10091   5.877   5.467   8.894 -1.9076 -1.6782 -0.7352
  100OSM   H13G10092   5.866   5.300   8.872 -0.8594  0.9505  0.3493
  100OSM   C14F10093   5.996   5.414   8.715  0.8515  0.4261 -0.3059
  100OSM   H14F10094   6.054   5.324   8.686 -2.4002 -1.5603 -1.2895
  100OSM   H14G10095   6.056   5.506   8.730  0.0544  0.8403  0.3768
  100OSM   C15F10096   5.888   5.431   8.609  0.1369  0.4248 -0.3664
  100OSM   H15F10097   5.804   5.500   8.630 -2.0738 -1.8284 -1.2741
  100OSM   H15G10098   5.840   5.331   8.598  1.6801 -0.6450  1.7927
  100OSM   C16F10099   5.945   5.476   8.469 -0.4723 -1.3399 -0.1454
  100OSM   H16F10100   6.040   5.427   8.438  1.1535  0.3921  1.7891
  100OSM   H16G10101   5.982   5.581   8.472  0.1321 -1.5637  1.5422
  100OSM   C17F10102   5.843   5.460   8.355  0.3670 -0.3400  0.2361
  100OSM   H17F10103   5.771   5.544   8.365  0.7902  0.0732 -0.1371
  100OSM   H17G10104   5.783   5.367   8.371  0.1433 -0.2480 -0.0513
  100OSM   C18F10105   5.900   5.478   8.219  0.0861 -0.2316 -0.5351
  100OSM   H18F10106   5.978   5.401   8.205  1.1502  0.7411 -0.1741
  100OSM   H18G10107   5.967   5.568   8.221  1.2906 -1.0714 -1.5257
  100OSM   H18H10108   5.841   5.478   8.125 -0.3275 -0.8842 -0.2797
  101OSM      N10109   2.302   5.964  10.715  0.1159 -0.7708 -0.4203
  101OSM    C1510110   2.269   5.826  10.659 -0.4353  0.0380 -0.1883
  101OSM   H15A10111   2.186   5.777  10.708  1.0161 -0.5824  1.7777
  101OSM   H15B10112   2.355   5.762  10.671 -0.2400  0.3555  0.1372
  101OSM   H15C10113   2.257   5.837  10.552 -0.8513 -0.3917 -0.1849
  101OSM    C1410114   2.169   6.039  10.734 -0.5105  0.1792  0.5694
  101OSM   H14A10115   2.102   5.991  10.803 -2.6649 -0.0100 -1.5556
  101OSM   H14B10116   2.135   6.060  10.634  0.1957  1.1042  0.5105
  101OSM   H14C10117   2.202   6.126  10.790  0.2986 -1.0775  2.1529
  101OSM    C1310118   2.367   5.953  10.844 -0.3366  0.0796 -0.2842
  101OSM   H13A10119   2.315   5.882  10.907 -0.4765 -0.3145 -0.8411
  101OSM   H13B10120   2.367   6.045  10.902 -3.9098  1.3480 -2.0054
  101OSM   H13C10121   2.468   5.921  10.828 -0.2475 -0.3716  1.0467
  101OSM    C1210122   2.390   6.043  10.619 -0.5186 -0.5596  0.7173
  101OSM   H12A10123   2.392   6.144  10.655 -0.0903 -0.3390  0.0806
  101OSM   H12B10124   2.322   6.049  10.536 -1.7795  0.7491  1.7884
  101OSM    C1110125   2.532   5.992  10.574  0.1875  0.0966  0.2761
  101OSM   H11A10126   2.573   6.075  10.512 -0.3155  1.6370  1.9152
  101OSM   H11B10127   2.522   5.906  10.504 -0.2199 -1.0789  1.7272
  101OSM      P10128   2.745   6.027  10.737 -0.1616 -0.0088  0.1775
  101OSM    O1310129   2.709   6.151  10.808 -0.3306 -0.5950  0.4303
  101OSM    O1410130   2.818   5.932  10.821 -0.2512  0.4920 -0.3757
  101OSM    O1110131   2.836   6.064  10.612  0.3125  0.2612 -0.5598
  101OSM    O1210132   2.613   5.956  10.680 -0.2347 -0.5477  0.1910
  101OSM    C1S10133   2.860   5.973  10.508  0.3026 -0.4320 -0.2930
  101OSM    H1S10134   2.780   5.896  10.501 -1.3348  1.2797 -1.0530
  101OSM    H1T10135   2.953   5.921  10.540 -0.7994 -0.6628  2.8984
  101OSM     NF10136   2.871   5.942  10.265  0.3735 -0.1717  0.1321
  101OSM    HNF10137   2.957   5.915  10.223 -0.0888 -0.8180 -0.4181
  101OSM    C2S10138   2.867   6.043  10.367  0.1547 -0.0210  0.1343
  101OSM    H2S10139   2.773   6.102  10.362 -1.2177 -1.8261  2.6207
  101OSM    C3S10140   2.988   6.145  10.370 -0.1095 -0.0369 -0.7224
  101OSM    H3S10141   3.076   6.084  10.398  0.8726  1.8232  0.4782
  101OSM     O310142   2.992   6.238  10.481 -0.6637 -0.0448  0.0092
  101OSM    HO310143   2.923   6.199  10.536  0.3427 -0.7420  0.8190
  101OSM    C4S10144   2.991   6.207  10.234 -0.1177  0.8481 -0.5318
  101OSM    H4S10145   3.011   6.132  10.156 -4.3545 -1.9409  0.7219
  101OSM    C5S10146   2.958   6.334  10.196  0.1527  0.0497 -0.5142
  101OSM    H5S10147   2.923   6.408  10.269  0.2068  0.7413 -1.1732
  101OSM    C6S10148   2.949   6.376  10.049 -0.0157  0.0443  0.2944
  101OSM    H6S10149   3.030   6.452  10.038 -0.3290  0.9907  3.3881
  101OSM    H6T10150   2.854   6.431  10.034  0.5758  0.7670 -0.9817
  101OSM    C7S10151   2.959   6.262   9.945 -0.2163  0.9240  0.2322
  101OSM    H7S10152   2.871   6.197   9.963  0.9750 -0.7948  0.1346
  101OSM    H7T10153   3.046   6.197   9.969 -0.8197 -0.6968 -1.6434
  101OSM    C8S10154   2.962   6.308   9.804 -0.1321  0.1160  0.5955
  101OSM    H8S10155   2.969   6.217   9.739  0.3834  0.6066 -0.0457
  101OSM    H8T10156   3.045   6.381   9.795 -0.9005  0.9903  0.4047
  101OSM    C9S10157   2.841   6.396   9.763  0.0032  0.1950 -0.5615
  101OSM    H9S10158   2.835   6.486   9.829  0.3422  0.2096 -0.5483
  101OSM    H9T10159   2.742   6.345   9.754 -0.4205  0.9812 -0.5192
  101OSM   C10S10160   2.864   6.452   9.627  0.3394  0.2703  0.4166
  101OSM   H10S10161   2.939   6.534   9.620  0.7852 -0.2574 -1.3462
  101OSM   H10T10162   2.770   6.507   9.604  0.4044  0.3212  0.2770
  101OSM   C11S10163   2.891   6.345   9.518  0.3235 -0.2115 -0.7980
  101OSM   H11S10164   2.843   6.246   9.530  1.5558 -0.6599  0.7961
  101OSM   H11T10165   3.001   6.333   9.512  0.4170  0.3529 -0.2982
  101OSM   C12S10166   2.845   6.395   9.377  0.7410  0.1135  0.1742
  101OSM   H12S10167   2.737   6.421   9.383  0.5784 -0.1388 -1.1638
  101OSM   H12T10168   2.866   6.318   9.300  1.0299  2.6054 -2.4522
  101OSM   C13S10169   2.922   6.516   9.326  0.4860  0.2078 -0.1426
  101OSM   H13S10170   3.027   6.511   9.363  1.4784  0.3413 -2.7312
  101OSM   H13T10171   2.863   6.603   9.363 -0.9579  0.1000 -2.0405
  101OSM   C14S10172   2.912   6.531   9.174 -0.1540  0.1837  1.0971
  101OSM   H14S10173   2.851   6.448   9.134  1.1595 -0.1849 -0.2500
  101OSM   H14T10174   3.008   6.510   9.123 -0.0958 -0.9531  1.6471
  101OSM   C15S10175   2.856   6.667   9.121 -0.0228 -0.2255  0.4150
  101OSM   H15S10176   2.930   6.747   9.146 -1.5496  1.2553  0.3508
  101OSM   H15T10177   2.763   6.689   9.176 -0.6750 -1.7038 -0.0570
  101OSM   C16S10178   2.835   6.670   8.967  1.1927 -0.4813 -0.5777
  101OSM   H16S10179   2.762   6.592   8.935 -0.3822  0.9595 -0.6488
  101OSM   H16T10180   2.930   6.640   8.918  1.4139 -1.1747  0.2602
  101OSM   C17S10181   2.779   6.812   8.926  0.5831  0.2029 -0.2745
  101OSM   H17S10182   2.773   6.826   8.816 -0.3657 -1.4785 -0.4839
  101OSM   H17T10183   2.865   6.877   8.952  2.3438 -1.9841 -0.2465
  101OSM   C18S10184   2.650   6.854   8.994  0.0036  0.4551  0.6377
  101OSM   H18S10185   2.626   6.960   8.974  0.1840  0.1735 -1.3343
  101OSM   H18T10186   2.635   6.840   9.103 -2.6691  0.4835  0.3495
  101OSM   H18U10187   2.567   6.800   8.943 -0.7192  1.4976  0.7031
  101OSM    C1F10188   2.774   5.858  10.222  0.4066 -0.0283  0.8147
  101OSM     OF10189   2.662   5.864  10.270  0.3562  0.1814  0.4879
  101OSM    C2F10190   2.820   5.758  10.119  0.6914  0.1756 -0.7324
  101OSM    H2F10191   2.782   5.660  10.157 -2.0541  0.7613 -1.7764
  101OSM    H2G10192   2.930   5.751  10.102  0.8369  0.7748 -0.0561
  101OSM    C3F10193   2.737   5.786   9.986  0.4019 -0.2295 -0.6571
  101OSM    H3F10194   2.628   5.780  10.006  0.8461 -0.4546  1.9437
  101OSM    H3G10195   2.778   5.714   9.912 -4.1166 -2.0385 -1.7723
  101OSM    C4F10196   2.763   5.923   9.922  0.6959  0.1112  0.3368
  101OSM    H4F10197   2.869   5.927   9.891  0.5083 -0.8856 -0.4962
  101OSM    H4G10198   2.742   5.996  10.003  1.2604 -1.6822  2.1658
  101OSM    C5F10199   2.657   5.949   9.811 -0.3218  0.1253  0.4658
  101OSM    H5F10200   2.676   6.052   9.773 -1.7532  0.5453  0.7920
  101OSM    H5G10201   2.553   5.959   9.850 -0.1364 -0.7040  1.2128
  101OSM    C6F10202   2.672   5.846   9.691  0.2601  0.0545  0.1740
  101OSM    H6F10203   2.779   5.840   9.662  0.6516 -0.4115  1.6092
  101OSM    H6G10204   2.649   5.754   9.749 -1.3462 -0.5936 -1.4050
  101OSM    C7F10205   2.577   5.873   9.573 -0.1735 -0.3030  0.1767
  101OSM    H7F10206   2.470   5.875   9.605 -0.0382  0.0778  0.6233
  101OSM    H7G10207   2.586   5.776   9.520  0.9169 -1.3699  2.1888
  101OSM    C8F10208   2.608   6.003   9.487 -0.0026  0.6740  0.0575
  101OSM    H8F10209   2.604   6.089   9.557  0.7444  0.6275  0.1666
  101OSM    H8G10210   2.533   6.018   9.407  0.0056 -1.1147 -0.3299
  101OSM    C9F10211   2.742   6.004   9.421  0.1570  0.0149  0.3143
  101OSM    H9F10212   2.820   5.980   9.495 -1.9658 -0.1267  2.6491
  101OSM   C10F10213   2.770   6.025   9.290 -0.7925  0.9693  0.0783
  101OSM   H10F10214   2.876   6.021   9.263 -0.1961 -0.2285  2.3296
  101OSM   C11F10215   2.676   6.062   9.174  0.2163 -0.0396 -0.5098
  101OSM   H11F10216   2.707   6.155   9.122  1.4200  0.9451  1.8412
  101OSM   H11G10217   2.574   6.090   9.209 -1.3836 -2.0320 -3.1975
  101OSM   C12F10218   2.647   5.940   9.086 -0.4122  0.2340  0.1900
  101OSM   H12F10219   2.560   5.944   9.018 -2.6179  0.3553  2.8168
  101OSM   H12G10220   2.629   5.851   9.151  0.3477 -1.1604 -1.4248
  101OSM   C13F10221   2.768   5.916   8.993  0.2512 -0.4504  0.1094
  101OSM   H13F10222   2.753   5.819   8.940 -0.4190 -0.4763  0.3493
  101OSM   H13G10223   2.865   5.901   9.046  0.1056  2.1011  1.2213
  101OSM   C14F10224   2.782   6.017   8.884 -0.7922  0.0889 -0.2581
  101OSM   H14F10225   2.871   5.983   8.827 -1.4469 -0.3445 -1.0548
  101OSM   H14G10226   2.796   6.121   8.920 -0.1775  0.6060 -1.8987
  101OSM   C15F10227   2.674   6.010   8.783 -0.1839 -0.6364  0.3618
  101OSM   H15F10228   2.572   5.978   8.812 -0.6249  0.4077 -0.0136
  101OSM   H15G10229   2.717   5.941   8.706  1.4580 -0.0867  0.7425
  101OSM   C16F10230   2.650   6.147   8.708 -0.2824  0.0272 -0.1659
  101OSM   H16F10231   2.742   6.209   8.708 -0.0461 -0.3231  0.1769
  101OSM   H16G10232   2.580   6.203   8.774  0.1308 -0.4051  0.6455
  101OSM   C17F10233   2.569   6.129   8.569 -0.0981 -0.2040 -0.5345
  101OSM   H17F10234   2.529   6.229   8.542 -0.5651 -0.4601 -0.7927
  101OSM   H17G10235   2.479   6.065   8.584 -0.0962 -0.0216  0.2973
  101OSM   C18F10236   2.672   6.088   8.459 -0.2962  0.3905 -0.1229
  101OSM   H18F10237   2.767   6.143   8.473 -0.4283  0.5318  0.2336
  101OSM   H18G10238   2.633   6.091   8.355 -0.2767 -0.3634 -0.1588
  101OSM   H18H10239   2.707   5.983   8.474  1.1382  1.1160  1.9627
  102OSM      N10240   2.952   1.193  10.939 -0.2445  0.2965  0.2106
  102OSM    C1510241   2.843   1.155  11.039  0.4252  0.1036  0.2582
  102OSM   H15A10242   2.770   1.235  11.038  0.9556  0.6635 -2.5222
  102OSM   H15B10243   2.889   1.151  11.136  1.8483  0.6081 -0.3701
  102OSM   H15C10244   2.795   1.063  11.011  0.8716  1.0870 -4.6132
  102OSM    C1410245   3.025   1.320  10.984 -0.8506 -0.1228 -0.2868
  102OSM   H14A10246   3.089   1.360  10.907  0.7077 -1.4969  0.2213
  102OSM   H14B10247   3.069   1.306  11.082  0.6641 -2.3505 -1.1989
  102OSM   H14C10248   2.947   1.393  10.998 -1.8577 -0.7272 -2.4274
  102OSM    C1310249   3.054   1.083  10.929  0.1596  0.5812 -0.6643
  102OSM   H13A10250   3.076   1.043  11.027  1.5848 -0.3167 -1.3073
  102OSM   H13B10251   3.147   1.111  10.882 -0.0320 -0.3724 -1.6748
  102OSM   H13C10252   3.017   1.004  10.865 -0.5025  0.8451 -0.6128
  102OSM    C1210253   2.885   1.215  10.812 -0.1814 -0.3202 -1.0067
  102OSM   H12A10254   2.956   1.256  10.742 -1.3376  1.8172 -1.0060
  102OSM   H12B10255   2.804   1.284  10.831  1.2147  0.8711  1.0023
  102OSM    C1110256   2.833   1.097  10.727  0.2476 -0.5228  0.4249
  102OSM   H11A10257   2.762   1.138  10.652 -0.0978  0.4831  1.2756
  102OSM   H11B10258   2.773   1.028  10.790 -0.9487  0.2247  0.1180
  102OSM      P10259   3.033   1.091  10.550 -0.2470  0.0705  0.0846
  102OSM    O1310260   3.107   1.214  10.596  0.3294  0.5437  0.2187
  102OSM    O1410261   3.108   0.981  10.488  0.6549 -0.0606 -1.1005
  102OSM    O1110262   2.930   1.143  10.434  0.3888 -0.5606 -0.0197
  102OSM    O1210263   2.938   1.026  10.662 -0.1219 -0.0519  0.4458
  102OSM    C1S10264   2.817   1.056  10.406 -0.1948  0.0390  0.6551
  102OSM    H1S10265   2.724   1.085  10.459 -0.7284 -0.5161  0.0294
  102OSM    H1T10266   2.838   0.956  10.449  3.0863  0.3481  0.0550
  102OSM     NF10267   2.696   0.932  10.234 -0.1060  0.6287 -0.1517
  102OSM    HNF10268   2.743   0.852  10.196 -0.4298  0.8602 -1.0710
  102OSM    C2S10269   2.788   1.040  10.256 -0.5293 -0.1371 -0.2530
  102OSM    H2S10270   2.740   1.136  10.227  0.2531  0.3302 -0.0512
  102OSM    C3S10271   2.926   1.027  10.183  0.5604 -0.5112  0.1303
  102OSM    H3S10272   2.988   0.949  10.233  2.4594  1.9035  1.7932
  102OSM     O310273   3.005   1.149  10.173  0.5199  0.0639 -0.6553
  102OSM    HO310274   2.974   1.197  10.250 -0.6129 -1.1255 -0.3248
  102OSM    C4S10275   2.904   0.993  10.032  0.1612  0.0471 -0.2293
  102OSM    H4S10276   2.848   1.073   9.980 -0.7660 -1.2786 -1.3753
  102OSM    C5S10277   2.932   0.881   9.967  0.0559 -0.0610 -0.5815
  102OSM    H5S10278   2.968   0.799  10.032  1.2029  1.0092  0.1754
  102OSM    C6S10279   2.886   0.846   9.829 -0.4173 -0.4516  0.2672
  102OSM    H6S10280   2.837   0.748   9.842 -2.4402  0.2919 -1.2923
  102OSM    H6T10281   2.980   0.842   9.770 -1.3890 -1.9296 -1.2564
  102OSM    C7S10282   2.798   0.943   9.750  0.7286  0.6353  0.6735
  102OSM    H7S10283   2.858   1.036   9.737 -0.0929  0.9981 -0.7486
  102OSM    H7T10284   2.701   0.980   9.789 -0.8045 -1.0870 -1.3293
  102OSM    C8S10285   2.764   0.891   9.608  0.2583  0.5458  0.2155
  102OSM    H8S10286   2.675   0.944   9.567  0.6381  1.2052  0.2353
  102OSM    H8T10287   2.735   0.784   9.611 -2.7157  1.2991  1.0455
  102OSM    C9S10288   2.877   0.913   9.509  0.1855  0.5101  0.2884
  102OSM    H9S10289   2.973   0.861   9.529  0.5609  0.6396 -1.0688
  102OSM    H9T10290   2.894   1.022   9.498 -1.1653  0.5420 -2.3584
  102OSM   C10S10291   2.840   0.867   9.366 -0.6694 -0.2851 -0.0815
  102OSM   H10S10292   2.736   0.896   9.339 -0.4529  0.4997 -0.0849
  102OSM   H10T10293   2.814   0.759   9.377 -2.1178  0.0540  0.0483
  102OSM   C11S10294   2.935   0.906   9.252 -0.2117  0.5243  0.1552
  102OSM   H11S10295   3.033   0.854   9.257 -0.7623 -0.5761 -0.1076
  102OSM   H11T10296   2.952   1.014   9.268 -1.8412  0.7451  0.6044
  102OSM   C12S10297   2.862   0.890   9.117  0.1354 -0.1091  0.2976
  102OSM   H12S10298   2.776   0.958   9.097  0.8893  0.9487  0.5404
  102OSM   H12T10299   2.827   0.785   9.117 -1.0192  0.1355  3.5875
  102OSM   C13S10300   2.959   0.907   9.001 -0.0456  1.1526 -0.1769
  102OSM   H13S10301   3.063   0.877   9.025 -0.6206  0.9026  2.2844
  102OSM   H13T10302   2.967   1.013   8.967  1.5322  0.7945 -1.0141
  102OSM   C14S10303   2.908   0.812   8.892 -0.1638  1.0143  0.0308
  102OSM   H14S10304   2.797   0.814   8.884 -0.4414 -2.0559  1.4669
  102OSM   H14T10305   2.926   0.706   8.920  1.6012  1.8590  2.4535
  102OSM   C15S10306   2.969   0.841   8.757 -0.1755 -0.3358  0.5407
  102OSM   H15S10307   3.080   0.841   8.760 -0.0342 -0.2332 -2.0740
  102OSM   H15T10308   2.945   0.945   8.728 -0.1248 -0.8207 -1.3705
  102OSM   C16S10309   2.933   0.740   8.647 -0.1841  0.6800 -0.3102
  102OSM   H16S10310   2.824   0.735   8.627 -0.5181 -0.5729  1.6005
  102OSM   H16T10311   2.953   0.640   8.691 -0.3908 -0.1931 -2.0772
  102OSM   C17S10312   3.011   0.748   8.522  0.0594  0.3887 -0.7047
  102OSM   H17S10313   2.963   0.665   8.466 -2.4485 -1.7218  4.0034
  102OSM   H17T10314   3.110   0.702   8.542  0.4997 -0.2770 -3.8528
  102OSM   C18S10315   3.005   0.885   8.457 -0.1882 -0.3674 -0.3321
  102OSM   H18S10316   3.060   0.874   8.361  0.0359  0.7874 -0.3457
  102OSM   H18T10317   3.066   0.953   8.519 -0.8473  2.3246 -2.4505
  102OSM   H18U10318   2.904   0.930   8.449 -0.1737 -0.4117 -0.7749
  102OSM    C1F10319   2.565   0.930  10.263 -0.3604 -0.0710 -0.0531
  102OSM     OF10320   2.504   1.026  10.311 -0.4250  0.0915  0.3335
  102OSM    C2F10321   2.493   0.802  10.236 -0.0138  0.4757  0.1839
  102OSM    H2F10322   2.480   0.739  10.326 -2.3519 -0.8802 -1.0003
  102OSM    H2G10323   2.556   0.745  10.165 -0.7168 -0.0610 -0.0230
  102OSM    C3F10324   2.360   0.825  10.161 -0.4438  0.7818 -1.1236
  102OSM    H3F10325   2.293   0.887  10.224 -0.8060 -0.5022 -0.2035
  102OSM    H3G10326   2.322   0.721  10.147  1.1114 -0.0698  0.6238
  102OSM    C4F10327   2.370   0.881  10.020 -0.0187 -0.1158  0.2844
  102OSM    H4F10328   2.434   0.972  10.027  0.3007 -0.4156  1.6098
  102OSM    H4G10329   2.266   0.915  10.002 -0.3639 -1.2499  0.0544
  102OSM    C5F10330   2.415   0.774   9.923  0.3740 -0.2673 -0.3206
  102OSM    H5F10331   2.343   0.694   9.949 -0.9399  0.4901 -1.4652
  102OSM    H5G10332   2.520   0.748   9.948  0.0841  0.8135  2.3714
  102OSM    C6F10333   2.402   0.815   9.774 -0.1604 -0.1142  0.1583
  102OSM    H6F10334   2.416   0.722   9.716  0.9545  0.7389 -1.0018
  102OSM    H6G10335   2.482   0.884   9.740  0.3899 -0.3867  0.8592
  102OSM    C7F10336   2.262   0.878   9.740  1.2821  0.1535  0.7498
  102OSM    H7F10337   2.265   0.986   9.767 -0.1403  0.1381  1.0532
  102OSM    H7G10338   2.181   0.832   9.801  0.3483 -0.4277 -0.8897
  102OSM    C8F10339   2.223   0.864   9.591  0.0934  0.3529  0.2731
  102OSM    H8F10340   2.125   0.913   9.573  0.1205 -0.1041 -1.2197
  102OSM    H8G10341   2.201   0.755   9.582 -0.3797  0.4644  0.0528
  102OSM    C9F10342   2.332   0.913   9.492 -0.1086 -0.0811 -0.2282
  102OSM    H9F10343   2.411   0.980   9.530  0.7404  0.1431 -2.2866
  102OSM   C10F10344   2.368   0.867   9.373 -0.4353  0.6736  0.0777
  102OSM   H10F10345   2.459   0.909   9.328 -0.2158  0.6417  0.4832
  102OSM   C11F10346   2.289   0.754   9.303  0.4733  0.0473  0.6956
  102OSM   H11F10347   2.214   0.807   9.241  0.1119  1.0587  1.9655
  102OSM   H11G10348   2.237   0.685   9.373  1.4400  1.5419  3.0001
  102OSM   C12F10349   2.383   0.667   9.207 -0.7241  0.9072 -0.1465
  102OSM   H12F10350   2.325   0.586   9.158 -2.4474  0.9379  1.7203
  102OSM   H12G10351   2.452   0.609   9.272 -2.2476  1.4480  2.0903
  102OSM   C13F10352   2.472   0.752   9.109 -0.7505 -0.3404  0.6667
  102OSM   H13F10353   2.524   0.671   9.053 -1.6650 -0.4884  0.0030
  102OSM   H13G10354   2.550   0.812   9.160  0.1479  2.0951 -3.1331
  102OSM   C14F10355   2.398   0.821   8.990  0.1247  0.0008  0.0036
  102OSM   H14F10356   2.334   0.898   9.038  1.0431  0.8468 -0.0961
  102OSM   H14G10357   2.338   0.736   8.951  0.0185  1.0593 -2.2827
  102OSM   C15F10358   2.485   0.884   8.881 -0.0445  0.0028 -0.0613
  102OSM   H15F10359   2.449   0.872   8.776  0.3606 -5.5689  0.1134
  102OSM   H15G10360   2.564   0.806   8.878 -1.8590 -1.9748  0.8359
  102OSM   C16F10361   2.532   1.019   8.921  0.0601 -0.0551 -0.0308
  102OSM   H16F10362   2.622   1.042   8.859  0.8314 -0.1376  1.0389
  102OSM   H16G10363   2.573   1.019   9.024  0.9967 -2.5835 -0.3345
  102OSM   C17F10364   2.436   1.136   8.906 -0.2476 -0.3384 -0.4237
  102OSM   H17F10365   2.498   1.228   8.913 -1.7194  0.6515  0.1227
  102OSM   H17G10366   2.366   1.135   8.992  0.6312  1.7777  0.4011
  102OSM   C18F10367   2.344   1.131   8.791  0.4898 -0.2266 -0.4344
  102OSM   H18F10368   2.268   1.211   8.797  0.9529  0.0858  1.7487
  102OSM   H18G10369   2.293   1.034   8.809  0.6397  0.2630  3.3663
  102OSM   H18H10370   2.389   1.138   8.689  1.4274 -1.0172 -0.0936
  103OSM      N10371   2.599   4.492  11.118  0.2232  0.3534  0.4015
  103OSM    C1510372   2.745   4.459  11.123 -0.6222  0.4958 -1.1612
  103OSM   H15A10373   2.793   4.499  11.212 -1.7465 -1.3238  0.3397
  103OSM   H15B10374   2.793   4.512  11.042 -1.7459 -0.0066 -2.1962
  103OSM   H15C10375   2.760   4.353  11.111 -0.2589  0.0682  2.0975
  103OSM    C1410376   2.519   4.438  11.232  0.5836  0.4072 -0.0841
  103OSM   H14A10377   2.539   4.492  11.323  1.0874  1.0533 -0.5569
  103OSM   H14B10378   2.537   4.332  11.241  0.1573  0.2348 -1.1308
  103OSM   H14C10379   2.413   4.447  11.218  0.5057 -0.2605  0.0432
  103OSM    C1310380   2.590   4.642  11.122 -0.5739 -0.1697 -0.5406
  103OSM   H13A10381   2.650   4.676  11.206 -2.6022  1.7857  0.2067
  103OSM   H13B10382   2.495   4.687  11.145 -1.5168 -2.6237  0.7568
  103OSM   H13C10383   2.649   4.689  11.045 -1.0014 -0.0761 -0.8106
  103OSM    C1210384   2.534   4.438  10.991 -0.3427  0.0509  0.4201
  103OSM   H12A10385   2.435   4.479  10.977  0.5772  1.6844 -2.0373
  103OSM   H12B10386   2.524   4.332  11.009  0.7507 -0.3801 -1.1963
  103OSM    C1110387   2.612   4.456  10.858 -0.4639  0.0593  0.6487
  103OSM   H11A10388   2.716   4.486  10.881 -1.1396  2.9694  0.3362
  103OSM   H11B10389   2.562   4.543  10.810  1.2667  0.6501 -0.1333
  103OSM      P10390   2.666   4.201  10.821  0.0940  0.2355 -0.3182
  103OSM    O1310391   2.809   4.219  10.800 -0.3387 -0.1752  0.3692
  103OSM    O1410392   2.631   4.165  10.962 -0.2512  0.0809 -0.0346
  103OSM    O1110393   2.618   4.097  10.716  0.5945 -0.3352  0.0214
  103OSM    O1210394   2.591   4.332  10.784 -0.0463  0.3080  0.6018
  103OSM    C1S10395   2.553   4.139  10.598  0.6776  0.4659  0.5956
  103OSM    H1S10396   2.602   4.222  10.544 -2.5816  1.7721 -0.5954
  103OSM    H1T10397   2.451   4.176  10.620 -0.2885 -2.0912  0.7691
  103OSM     NF10398   2.476   4.080  10.373 -0.2917  0.2223 -0.9528
  103OSM    HNF10399   2.377   4.087  10.371 -0.1813  2.0734 -2.6419
  103OSM    C2S10400   2.530   4.026  10.493  1.1755 -0.2138 -0.6173
  103OSM    H2S10401   2.636   3.996  10.484  0.7808 -2.0704  0.4098
  103OSM    C3S10402   2.446   3.909  10.563 -0.0474  0.0191  0.5469
  103OSM    H3S10403   2.342   3.946  10.573 -0.7725 -1.5744 -0.6999
  103OSM     O310404   2.480   3.879  10.697  0.4284 -0.6001  0.7348
  103OSM    HO310405   2.534   3.956  10.718  0.1301  1.0843 -3.6062
  103OSM    C4S10406   2.430   3.783  10.473 -1.0217  0.1960 -0.0090
  103OSM    H4S10407   2.340   3.771  10.411  0.1954 -0.8432 -1.6354
  103OSM    C5S10408   2.519   3.680  10.466 -0.3484  0.0321  0.0345
  103OSM    H5S10409   2.610   3.675  10.527 -0.1370  0.4062 -0.2511
  103OSM    C6S10410   2.495   3.573  10.357 -0.1640 -0.4705  0.1323
  103OSM    H6S10411   2.398   3.589  10.306  0.8877  1.9771 -1.2665
  103OSM    H6T10412   2.494   3.466  10.386 -1.8338 -1.4109 -2.9293
  103OSM    C7S10413   2.606   3.576  10.252 -0.1241  0.1891  0.7069
  103OSM    H7S10414   2.581   3.524  10.157 -0.4833 -0.5046  1.1783
  103OSM    H7T10415   2.706   3.543  10.289  0.2974 -0.1705 -0.6991
  103OSM    C8S10416   2.652   3.717  10.210 -0.4348 -1.0512 -0.3778
  103OSM    H8S10417   2.711   3.754  10.296 -2.0525  0.7254  0.0356
  103OSM    H8T10418   2.567   3.788  10.202 -0.6138 -1.1784  0.4016
  103OSM    C9S10419   2.742   3.732  10.088 -0.0378  0.3612 -0.2505
  103OSM    H9S10420   2.701   3.669  10.006  1.5862  1.1030 -1.6865
  103OSM    H9T10421   2.835   3.677  10.114 -1.1065 -0.2981  2.4836
  103OSM   C10S10422   2.782   3.869  10.045 -0.1665  0.6401 -0.7029
  103OSM   H10S10423   2.810   3.918  10.141 -1.7090 -0.5853  0.4309
  103OSM   H10T10424   2.693   3.927  10.012 -0.8668 -0.5463 -0.9547
  103OSM   C11S10425   2.889   3.872   9.938  0.1727  0.0874  0.0157
  103OSM   H11S10426   2.846   3.818   9.851 -1.1655  0.3783  0.4672
  103OSM   H11T10427   2.987   3.824   9.958  1.5003  1.6733 -2.2578
  103OSM   C12S10428   2.917   4.009   9.894  0.7429  0.5037  0.4253
  103OSM   H12S10429   2.972   4.064   9.973  0.3442  0.4781  0.7245
  103OSM   H12T10430   2.820   4.062   9.881  0.9031  0.6498 -0.2068
  103OSM   C13S10431   3.007   4.011   9.765  0.1216  0.2212 -0.1424
  103OSM   H13S10432   2.954   3.967   9.678 -1.3073 -0.2235  0.9249
  103OSM   H13T10433   3.096   3.950   9.791  1.8581  1.9622 -1.6811
  103OSM   C14S10434   3.047   4.167   9.744  0.4335  0.1725 -0.1637
  103OSM   H14S10435   3.055   4.227   9.837 -2.0081  1.2522 -0.5667
  103OSM   H14T10436   2.967   4.210   9.680 -1.4805 -1.7543  0.8012
  103OSM   C15S10437   3.175   4.178   9.653  0.8985 -0.2146 -0.2850
  103OSM   H15S10438   3.174   4.273   9.595 -0.6223 -1.2541 -2.0602
  103OSM   H15T10439   3.162   4.102   9.573  0.8000  2.1319 -2.6462
  103OSM   C16S10440   3.309   4.152   9.719 -0.0685 -0.3656  0.4836
  103OSM   H16S10441   3.313   4.056   9.774  1.7162 -0.7325 -0.2072
  103OSM   H16T10442   3.319   4.228   9.799  0.4902  0.4436 -0.3359
  103OSM   C17S10443   3.429   4.139   9.627  0.1094 -0.2204  0.4592
  103OSM   H17S10444   3.523   4.113   9.681  0.4174 -3.0589 -1.2059
  103OSM   H17T10445   3.432   4.239   9.579 -0.2356 -0.7299 -0.6525
  103OSM   C18S10446   3.415   4.022   9.525  0.0535 -1.0438 -0.1599
  103OSM   H18S10447   3.311   4.026   9.487  0.0691 -1.3510 -0.2369
  103OSM   H18T10448   3.422   3.922   9.574 -1.1211 -1.9714 -1.7756
  103OSM   H18U10449   3.481   4.042   9.437 -0.5393 -0.2593 -0.4326
  103OSM    C1F10450   2.556   4.148  10.289  0.2390 -0.3395 -0.5218
  103OSM     OF10451   2.680   4.157  10.311 -1.0410  0.1724  0.1703
  103OSM    C2F10452   2.476   4.218  10.179 -0.3006  0.6062 -0.9027
  103OSM    H2F10453   2.440   4.311  10.227  0.5201  1.2137 -1.4517
  103OSM    H2G10454   2.388   4.158  10.149 -0.5808 -0.2013  1.2964
  103OSM    C3F10455   2.576   4.234  10.062  0.2743 -0.4067  0.6852
  103OSM    H3F10456   2.633   4.141  10.039 -1.8563 -1.6909  0.2900
  103OSM    H3G10457   2.653   4.302  10.105  1.8657 -2.0772  0.6136
  103OSM    C4F10458   2.521   4.289   9.934 -0.2427 -0.5179  0.3228
  103OSM    H4F10459   2.447   4.224   9.884 -2.1617  1.1605  0.8812
  103OSM    H4G10460   2.610   4.306   9.869 -0.4201 -0.0988  0.1868
  103OSM    C5F10461   2.450   4.426   9.963 -0.5647 -0.1890 -0.1268
  103OSM    H5F10462   2.524   4.492  10.013  0.4394 -1.9083  0.7449
  103OSM    H5G10463   2.353   4.408  10.015 -0.5942 -1.6377 -0.6264
  103OSM    C6F10464   2.413   4.510   9.836 -0.4070 -1.0718 -0.1315
  103OSM    H6F10465   2.347   4.591   9.873 -0.6114 -1.9593  1.5095
  103OSM    H6G10466   2.350   4.448   9.769 -0.0671 -1.3113 -0.2312
  103OSM    C7F10467   2.532   4.553   9.748  0.1407  0.2106  0.1819
  103OSM    H7F10468   2.585   4.456   9.739 -3.3691 -1.9043  0.3154
  103OSM    H7G10469   2.592   4.618   9.814  0.5377  0.2827 -0.2528
  103OSM    C8F10470   2.496   4.636   9.617 -0.0121  0.2509 -0.0045
  103OSM    H8F10471   2.587   4.680   9.571  0.3769 -0.9443 -0.4282
  103OSM    H8G10472   2.429   4.720   9.646 -0.1257 -0.8231  3.2557
  103OSM    C9F10473   2.434   4.556   9.503 -0.1972 -1.1029 -0.6557
  103OSM    H9F10474   2.405   4.452   9.523  2.0368 -1.6720 -0.2063
  103OSM   C10F10475   2.408   4.615   9.388  0.3930  0.0017  1.3670
  103OSM   H10F10476   2.344   4.558   9.318 -3.1922  2.2294  2.5485
  103OSM   C11F10477   2.447   4.754   9.337  0.2353 -0.5220  0.4985
  103OSM   H11F10478   2.555   4.771   9.354  1.2064 -1.8075 -3.3077
  103OSM   H11G10479   2.391   4.819   9.408 -0.1675  1.6934 -1.7038
  103OSM   C12F10480   2.405   4.798   9.188 -0.5092  0.1151 -0.7245
  103OSM   H12F10481   2.436   4.902   9.166  2.4723 -0.3881  0.5483
  103OSM   H12G10482   2.294   4.811   9.184 -0.5111  1.1348  1.3604
  103OSM   C13F10483   2.463   4.691   9.095 -0.2618 -0.4493  0.0518
  103OSM   H13F10484   2.411   4.593   9.101 -1.5130  0.2847  2.3752
  103OSM   H13G10485   2.566   4.670   9.131  0.1416 -1.9827 -1.8088
  103OSM   C14F10486   2.477   4.740   8.952 -0.6386 -0.1280 -0.0258
  103OSM   H14F10487   2.522   4.662   8.887 -0.1011 -2.7539  3.2220
  103OSM   H14G10488   2.538   4.833   8.954  1.1595 -1.2440 -0.4611
  103OSM   C15F10489   2.348   4.782   8.882  0.4904  0.4906 -0.1702
  103OSM   H15F10490   2.305   4.870   8.935 -0.8064  1.5515 -2.7954
  103OSM   H15G10491   2.272   4.701   8.883  0.7620  0.1752 -1.8845
  103OSM   C16F10492   2.382   4.827   8.732 -0.9142  0.6260  0.4726
  103OSM   H16F10493   2.465   4.900   8.733  0.8898 -1.3400  0.9999
  103OSM   H16G10494   2.294   4.882   8.694  0.2072  1.7052 -0.6643
  103OSM   C17F10495   2.439   4.708   8.642  0.7197 -0.0014 -0.9082
  103OSM   H17F10496   2.379   4.615   8.654  0.4100  0.4224  1.3477
  103OSM   H17G10497   2.546   4.693   8.670  0.2929 -0.8932  0.3460
  103OSM   C18F10498   2.438   4.747   8.498 -0.0918  0.2198  0.4574
  103OSM   H18F10499   2.330   4.745   8.469  0.3309 -1.6885 -1.2475
  103OSM   H18G10500   2.478   4.675   8.424  0.6276  1.9295 -0.8854
  103OSM   H18H10501   2.471   4.851   8.479 -1.0007  0.3059 -0.7333
  104OSM      N10502   4.498   2.617  10.799  0.3495 -0.0519  0.2595
  104OSM    C1510503   4.513   2.560  10.664  0.2232  0.3113 -0.1614
  104OSM   H15A10504   4.617   2.539  10.644 -0.7587 -3.5174 -2.1685
  104OSM   H15B10505   4.465   2.619  10.587 -0.3963  1.4430  1.0358
  104OSM   H15C10506   4.466   2.463  10.673 -0.3649  0.5238 -0.8779
  104OSM    C1410507   4.594   2.552  10.893  0.3754 -1.0240  0.1333
  104OSM   H14A10508   4.583   2.601  10.988 -3.7200  0.8002 -1.0648
  104OSM   H14B10509   4.694   2.553  10.853 -0.5043  0.1392 -2.2324
  104OSM   H14C10510   4.565   2.450  10.916 -1.2121 -0.7771 -0.5708
  104OSM    C1310511   4.541   2.762  10.784 -0.5413  0.0108  0.3932
  104OSM   H13A10512   4.542   2.818  10.876  0.9862  0.4568  0.1215
  104OSM   H13B10513   4.480   2.814  10.711 -0.2365  2.0178  1.4974
  104OSM   H13C10514   4.639   2.773  10.742 -0.9637  0.3600 -0.5313
  104OSM    C1210515   4.355   2.610  10.839  0.4606  0.6134  0.3931
  104OSM   H12A10516   4.286   2.656  10.771  0.7534  1.7444  0.8415
  104OSM   H12B10517   4.333   2.668  10.927 -2.3931 -0.2970  0.3805
  104OSM    C1110518   4.281   2.469  10.854 -0.2182  0.1628  0.0803
  104OSM   H11A10519   4.312   2.411  10.765  0.3668  0.9255 -0.2215
  104OSM   H11B10520   4.171   2.483  10.848 -0.4994 -0.5639  2.5849
  104OSM      P10521   4.377   2.270  11.020  0.3946 -0.6099 -0.1060
  104OSM    O1310522   4.509   2.285  11.082 -0.6530 -0.3321 -0.0085
  104OSM    O1410523   4.272   2.196  11.098 -0.1237  0.1428 -0.2512
  104OSM    O1110524   4.385   2.201  10.885 -0.2166 -0.5978  0.4850
  104OSM    O1210525   4.315   2.412  10.983 -0.1171 -0.3750  0.3926
  104OSM    C1S10526   4.450   2.069  10.889 -0.4337  0.4478 -0.1330
  104OSM    H1S10527   4.375   1.996  10.929 -1.0047  0.9094 -0.3488
  104OSM    H1T10528   4.547   2.063  10.943 -0.7286  2.2360  0.6446
  104OSM     NF10529   4.506   1.876  10.740  0.5089 -0.0620 -0.1670
  104OSM    HNF10530   4.586   1.843  10.690  2.0555  1.0761  1.4303
  104OSM    C2S10531   4.485   2.018  10.742  0.6982 -0.1196 -0.1702
  104OSM    H2S10532   4.385   2.021  10.694 -0.4989 -2.8178  1.9371
  104OSM    C3S10533   4.583   2.117  10.674  0.4443  0.4540 -0.2382
  104OSM    H3S10534   4.679   2.109  10.729  0.6110  0.9462 -0.4570
  104OSM     O310535   4.555   2.256  10.695  0.3935  0.0277  0.0151
  104OSM    HO310536   4.480   2.250  10.755 -0.9577  1.5212 -1.4160
  104OSM    C4S10537   4.598   2.090  10.526  0.3617  0.1077 -0.0414
  104OSM    H4S10538   4.656   2.000  10.500 -2.0466 -1.1017 -1.4927
  104OSM    C5S10539   4.534   2.151  10.423 -0.2559  0.3939 -0.1420
  104OSM    H5S10540   4.452   2.221  10.446 -0.9598 -0.1100 -1.0324
  104OSM    C6S10541   4.541   2.116  10.276  0.1863  0.3626  0.1222
  104OSM    H6S10542   4.479   2.026  10.257 -1.9734  1.6517  0.6042
  104OSM    H6T10543   4.644   2.094  10.242 -0.7630  0.3417 -3.0869
  104OSM    C7S10544   4.480   2.215  10.175  0.3526 -0.6703 -0.8728
  104OSM    H7S10545   4.550   2.301  10.169 -1.9601  1.4351  0.3760
  104OSM    H7T10546   4.383   2.252  10.217  0.2862 -0.5415 -1.1379
  104OSM    C8S10547   4.462   2.159  10.041 -0.3866 -1.1318 -0.1090
  104OSM    H8S10548   4.392   2.073  10.047 -1.7726 -0.1357 -1.3831
  104OSM    H8T10549   4.557   2.107  10.015  0.2162 -0.5493  0.8459
  104OSM    C9S10550   4.422   2.268   9.938 -0.4849  0.0033 -0.5978
  104OSM    H9S10551   4.515   2.328   9.928 -0.6795  0.4212  0.0038
  104OSM    H9T10552   4.350   2.344   9.976 -0.4567  0.3383 -1.2208
  104OSM   C10S10553   4.373   2.213   9.803 -0.1819  0.2532 -0.4197
  104OSM   H10S10554   4.278   2.158   9.821  1.0952 -1.3386  2.0989
  104OSM   H10T10555   4.446   2.137   9.770 -0.6691 -0.3000 -0.2369
  104OSM   C11S10556   4.345   2.316   9.694 -0.1654 -0.1778 -0.3007
  104OSM   H11S10557   4.295   2.411   9.722  2.0232  1.2357 -0.9277
  104OSM   H11T10558   4.290   2.261   9.614 -0.3882 -0.6513  0.1739
  104OSM   C12S10559   4.474   2.352   9.633  0.2311  0.4600  0.2997
  104OSM   H12S10560   4.535   2.270   9.589  1.2661  0.5772  1.4726
  104OSM   H12T10561   4.544   2.391   9.709 -1.4255 -0.0962  2.2038
  104OSM   C13S10562   4.451   2.457   9.528  0.3016 -0.1945 -0.0188
  104OSM   H13S10563   4.544   2.515   9.513 -1.0275  1.5986 -1.9565
  104OSM   H13T10564   4.366   2.519   9.564  1.2742 -0.4707  2.9550
  104OSM   C14S10565   4.433   2.403   9.383 -0.6945 -0.3821  0.1904
  104OSM   H14S10566   4.389   2.301   9.397 -1.8326  0.1961  1.0320
  104OSM   H14T10567   4.534   2.403   9.338 -1.2849 -3.2624 -1.3987
  104OSM   C15S10568   4.328   2.472   9.293 -0.8436 -0.5924  0.2066
  104OSM   H15S10569   4.317   2.581   9.310 -3.4453 -0.4358 -1.8353
  104OSM   H15T10570   4.228   2.425   9.303 -0.7591 -1.1837 -1.4007
  104OSM   C16S10571   4.355   2.469   9.140  0.3985 -0.0511  0.4434
  104OSM   H16S10572   4.436   2.543   9.117  0.0721 -0.1394 -1.1348
  104OSM   H16T10573   4.266   2.513   9.091  0.8347  0.1707 -0.1736
  104OSM   C17S10574   4.385   2.329   9.079 -0.4567  0.2327 -0.3049
  104OSM   H17S10575   4.309   2.252   9.104  1.5024 -0.9686  2.5353
  104OSM   H17T10576   4.485   2.302   9.120 -0.3827 -0.3888 -0.8835
  104OSM   C18S10577   4.403   2.344   8.922  0.2189 -0.0204 -0.3169
  104OSM   H18S10578   4.318   2.404   8.884  0.3406  0.4886  0.2154
  104OSM   H18T10579   4.422   2.244   8.877 -0.4905 -1.1792  1.8367
  104OSM   H18U10580   4.487   2.416   8.912  0.6498 -0.5486 -0.6189
  104OSM    C1F10581   4.430   1.776  10.776 -0.2708  0.8107 -0.3253
  104OSM     OF10582   4.321   1.787  10.836 -0.5356 -0.2412 -0.6364
  104OSM    C2F10583   4.487   1.647  10.741 -0.0602  0.9752 -0.1703
  104OSM    H2F10584   4.499   1.589  10.835 -1.7487  2.5792  1.1091
  104OSM    H2G10585   4.586   1.670  10.695  0.1649 -1.1698 -0.8327
  104OSM    C3F10586   4.399   1.556  10.648  0.0835 -0.4783  0.2800
  104OSM    H3F10587   4.300   1.523  10.688 -0.0887 -0.3063  0.0043
  104OSM    H3G10588   4.456   1.466  10.619 -1.0817 -0.2597 -3.2359
  104OSM    C4F10589   4.367   1.630  10.516 -0.0400  0.7469 -0.3335
  104OSM    H4F10590   4.326   1.727  10.551 -0.9322  0.6764 -1.1393
  104OSM    H4G10591   4.283   1.575  10.467  0.4005 -1.5192  1.2916
  104OSM    C5F10592   4.481   1.643  10.399  0.0055  0.1617 -0.2120
  104OSM    H5F10593   4.548   1.554  10.399  2.7714  2.0988  0.8783
  104OSM    H5G10594   4.556   1.715  10.437 -0.2294 -0.3601  1.3039
  104OSM    C6F10595   4.430   1.686  10.264 -0.1834 -0.3419 -0.0428
  104OSM    H6F10596   4.357   1.768  10.273  1.6880  1.4087  0.0248
  104OSM    H6G10597   4.381   1.591  10.233 -1.4333  0.1587  0.3851
  104OSM    C7F10598   4.546   1.714  10.170 -0.1393  0.0756  0.9255
  104OSM    H7F10599   4.635   1.651  10.192  0.6756 -0.1388 -2.4885
  104OSM    H7G10600   4.575   1.819  10.191 -0.9265  0.3220  0.8120
  104OSM    C8F10601   4.519   1.688  10.018 -0.3462  0.4572 -0.4879
  104OSM    H8F10602   4.455   1.598  10.010 -0.5240  0.3600  1.5375
  104OSM    H8G10603   4.614   1.667   9.965 -0.7484  0.2799 -1.1533
  104OSM    C9F10604   4.446   1.793   9.938 -0.2798  0.0860  0.0466
  104OSM    H9F10605   4.377   1.846  10.006  1.2354  1.3945  0.6442
  104OSM   C10F10606   4.473   1.835   9.816  0.4446 -0.6497  0.0048
  104OSM   H10F10607   4.408   1.909   9.767  0.5555 -1.1311 -0.9008
  104OSM   C11F10608   4.587   1.780   9.734 -0.4747  0.3858 -0.2533
  104OSM   H11F10609   4.614   1.672   9.740  1.8819  0.9374 -0.0611
  104OSM   H11G10610   4.667   1.852   9.760 -0.7146  0.1921  1.0962
  104OSM   C12F10611   4.583   1.804   9.583  0.8071 -0.5912  0.4321
  104OSM   H12F10612   4.491   1.751   9.552  1.1116 -2.2878  2.1650
  104OSM   H12G10613   4.675   1.754   9.545  0.4186 -2.5541  1.8959
  104OSM   C13F10614   4.565   1.951   9.541  0.0221 -1.0436  0.0879
  104OSM   H13F10615   4.655   2.007   9.576  0.6173 -2.9981  1.9019
  104OSM   H13G10616   4.472   1.997   9.581  1.0169  0.7286  0.4693
  104OSM   C14F10617   4.544   1.960   9.389 -1.0103  0.2830  0.9194
  104OSM   H14F10618   4.539   2.068   9.360  0.4271  0.4217  1.0706
  104OSM   H14G10619   4.449   1.908   9.368 -1.3777  0.8441  1.1487
  104OSM   C15F10620   4.655   1.896   9.297  0.2501  0.2061  0.1024
  104OSM   H15F10621   4.637   1.788   9.279  0.1585  0.1872  0.3094
  104OSM   H15G10622   4.755   1.911   9.343  0.6222 -0.0338 -0.6211
  104OSM   C16F10623   4.658   1.967   9.157 -0.0736 -1.1496  0.2075
  104OSM   H16F10624   4.691   2.071   9.174  0.7676 -0.9886 -2.1106
  104OSM   H16G10625   4.558   1.968   9.109  0.2304  3.1687 -0.7034
  104OSM   C17F10626   4.764   1.897   9.065 -0.3107 -0.2387 -0.2432
  104OSM   H17F10627   4.721   1.797   9.043 -1.1786 -0.3423  1.7415
  104OSM   H17G10628   4.870   1.892   9.097 -0.0144  0.2257 -1.1048
  104OSM   C18F10629   4.762   1.980   8.937  0.0105 -0.0519 -0.3621
  104OSM   H18F10630   4.828   2.066   8.956  0.4902 -1.1321  3.7567
  104OSM   H18G10631   4.659   2.018   8.918 -0.8169  0.4909  4.0801
  104OSM   H18H10632   4.811   1.932   8.849  0.9382  0.9097 -0.3893
  105OSM      N10633   0.881   5.528  10.701  0.9234 -0.1482  0.4316
  105OSM    C1510634   0.894   5.673  10.706 -0.1298 -0.3429  0.6346
  105OSM   H15A10635   0.846   5.711  10.795  3.0668  1.6964  1.6874
  105OSM   H15B10636   0.857   5.725  10.619  3.3380 -1.6387 -1.8923
  105OSM   H15C10637   0.998   5.702  10.702  0.0843 -1.0554  0.7403
  105OSM    C1410638   0.971   5.470  10.805  0.0916 -0.4556 -0.1978
  105OSM   H14A10639   0.952   5.363  10.809 -2.3417 -0.1367 -1.4480
  105OSM   H14B10640   0.949   5.525  10.895  1.0319 -2.4205  1.3227
  105OSM   H14C10641   1.072   5.485  10.772  0.2221 -1.6072 -0.3609
  105OSM    C1310642   0.749   5.480  10.743  0.8676  0.0772 -0.7539
  105OSM   H13A10643   0.670   5.518  10.681 -0.4961  0.3475  1.0394
  105OSM   H13B10644   0.722   5.512  10.843 -1.7878  1.2354 -1.7617
  105OSM   H13C10645   0.744   5.372  10.738  0.4462 -0.1134  2.0257
  105OSM    C1210646   0.920   5.461  10.568 -0.5962  0.2842 -0.4043
  105OSM   H12A10647   0.835   5.467  10.500  0.4472  0.2721 -1.7499
  105OSM   H12B10648   0.943   5.356  10.578  1.5396  0.7882  0.2788
  105OSM    C1110649   1.039   5.531  10.500 -0.0644 -0.0543 -0.3763
  105OSM   H11A10650   1.017   5.637  10.477  0.4736 -0.1903 -1.5572
  105OSM   H11B10651   1.046   5.476  10.404 -1.9203 -2.2740  0.6417
  105OSM      P10652   1.296   5.532  10.519  0.0952 -0.1412 -0.6334
  105OSM    O1310653   1.399   5.526  10.626 -0.1685  0.2751 -0.3639
  105OSM    O1410654   1.295   5.424  10.424 -0.4425  0.3450  0.2512
  105OSM    O1110655   1.287   5.674  10.452  0.3921  0.7171  0.0880
  105OSM    O1210656   1.157   5.523  10.583  0.7574  0.5660 -0.1266
  105OSM    C1S10657   1.316   5.689  10.313 -0.0634 -1.3232 -0.3783
  105OSM    H1S10658   1.222   5.652  10.267 -1.6676 -0.7713  2.2360
  105OSM    H1T10659   1.409   5.632  10.291  0.4873  0.0319 -1.6902
  105OSM     NF10660   1.354   5.834  10.111 -0.4747 -0.1211 -0.3606
  105OSM    HNF10661   1.449   5.838  10.083 -0.4757 -1.1819 -0.5218
  105OSM    C2S10662   1.342   5.839  10.256  0.8348 -0.2879  0.3382
  105OSM    H2S10663   1.243   5.889  10.263 -0.2104 -2.0741 -0.7662
  105OSM    C3S10664   1.443   5.925  10.339 -0.0604  0.1853  0.4688
  105OSM    H3S10665   1.532   5.859  10.350 -0.4474 -0.5930 -0.8621
  105OSM     O310666   1.387   5.947  10.469 -0.6399 -0.1055 -0.1666
  105OSM    HO310667   1.354   5.858  10.478  1.4584 -1.0320 -1.0671
  105OSM    C4S10668   1.461   6.052  10.260 -0.2649 -0.4772 -0.4516
  105OSM    H4S10669   1.369   6.108  10.234  0.3496  0.9153  0.3046
  105OSM    C5S10670   1.583   6.109  10.233  0.0811 -0.0343 -0.5930
  105OSM    H5S10671   1.675   6.067  10.276  1.2341  0.8422 -2.1482
  105OSM    C6S10672   1.606   6.241  10.179  0.0829 -0.2094  0.8455
  105OSM    H6S10673   1.634   6.244  10.072 -0.0982  1.4182  0.8155
  105OSM    H6T10674   1.691   6.291  10.231  0.7160 -0.1737 -0.1910
  105OSM    C7S10675   1.489   6.343  10.188  1.1782 -0.0342  0.4075
  105OSM    H7S10676   1.401   6.290  10.146  0.0974  1.3514  0.8634
  105OSM    H7T10677   1.514   6.436  10.132  0.8176 -0.0679  0.1889
  105OSM    C8S10678   1.447   6.391  10.328  0.4222  0.3828 -0.2940
  105OSM    H8S10679   1.522   6.456  10.379 -1.9978  1.8298  1.6209
  105OSM    H8T10680   1.444   6.308  10.401 -0.5033  0.2605 -0.4625
  105OSM    C9S10681   1.312   6.474  10.330  0.1068  0.1284 -0.1164
  105OSM    H9S10682   1.324   6.561  10.262  0.7209  0.8680  0.9244
  105OSM    H9T10683   1.297   6.524  10.428  0.9744 -0.8981  0.5647
  105OSM   C10S10684   1.183   6.386  10.316 -0.4656 -0.1578 -0.3071
  105OSM   H10S10685   1.197   6.340  10.416  2.9709  2.6238  0.6728
  105OSM   H10T10686   1.188   6.310  10.236  2.3670  1.2187 -1.5642
  105OSM   C11S10687   1.054   6.459  10.314 -0.4115  0.2984 -0.3390
  105OSM   H11S10688   1.066   6.540  10.389  2.3426 -1.0485  0.8221
  105OSM   H11T10689   0.974   6.386  10.338  0.9817 -1.1989 -0.0475
  105OSM   C12S10690   1.030   6.521  10.176  0.1019  0.7355 -0.3736
  105OSM   H12S10691   1.020   6.453  10.089  2.3005  1.9151 -1.6206
  105OSM   H12T10692   1.110   6.593  10.148 -0.4291  1.7816  0.7070
  105OSM   C13S10693   0.898   6.602  10.163  0.2319 -0.3100 -0.9314
  105OSM   H13S10694   0.869   6.665  10.250  2.2472 -2.2095  1.2768
  105OSM   H13T10695   0.821   6.522  10.158  0.6297 -0.8576  0.8039
  105OSM   C14S10696   0.890   6.693  10.035 -0.3286  0.7755  0.1806
  105OSM   H14S10697   0.784   6.722  10.018 -0.9428 -0.3842  1.8175
  105OSM   H14T10698   0.931   6.632   9.952 -0.7198 -0.0061  0.5544
  105OSM   C15S10699   0.955   6.827  10.049 -0.6261 -0.7144  0.2739
  105OSM   H15S10700   1.061   6.812  10.079 -0.3599  0.8227  0.1889
  105OSM   H15T10701   0.897   6.877  10.129 -0.2628 -0.5647  0.4480
  105OSM   C16S10702   0.956   6.922   9.922 -0.6538 -0.2545 -0.3460
  105OSM   H16S10703   0.853   6.948   9.891 -1.1356 -3.1609 -1.5025
  105OSM   H16T10704   0.996   6.863   9.837  2.4163  2.4056 -0.9525
  105OSM   C17S10705   1.057   7.033   9.943 -0.2697  0.8747  0.3356
  105OSM   H17S10706   1.075   7.085   9.846  1.5694  1.5818  1.0088
  105OSM   H17T10707   1.157   6.995   9.975 -0.1640  0.0638 -0.8674
  105OSM   C18S10708   1.018   7.144  10.041 -0.2067  0.0747  0.0111
  105OSM   H18S10709   0.929   7.191   9.995 -1.1872 -0.9853  0.7679
  105OSM   H18T10710   1.105   7.213  10.044 -0.3053  0.2299 -0.6152
  105OSM   H18U10711   1.003   7.107  10.145 -0.2049 -0.4343 -0.1653
  105OSM    C1F10712   1.260   5.788  10.028 -0.1900 -0.5100  0.0492
  105OSM     OF10713   1.148   5.785  10.065 -0.5494  0.1530 -0.3066
  105OSM    C2F10714   1.309   5.728   9.902 -0.0528  0.2467  0.4252
  105OSM    H2F10715   1.320   5.619   9.922  0.9021  0.1167 -0.6729
  105OSM    H2G10716   1.412   5.755   9.870 -0.7152  0.6414 -1.5398
  105OSM    C3F10717   1.206   5.758   9.793 -0.0971 -0.1397 -0.1373
  105OSM    H3F10718   1.183   5.867   9.793 -1.6374 -0.4412  1.1589
  105OSM    H3G10719   1.115   5.704   9.824 -1.4180  1.3920 -1.1445
  105OSM    C4F10720   1.241   5.693   9.661  0.2604 -0.0968  0.6615
  105OSM    H4F10721   1.258   5.583   9.656 -1.2589 -0.2879 -1.5760
  105OSM    H4G10722   1.338   5.734   9.626  0.2088 -0.2442  0.3382
  105OSM    C5F10723   1.144   5.725   9.543 -0.0689 -1.1561 -0.7519
  105OSM    H5F10724   1.139   5.836   9.545  1.5260 -1.0469  1.3654
  105OSM    H5G10725   1.041   5.682   9.543 -0.6759  0.2355 -0.6694
  105OSM    C6F10726   1.207   5.681   9.417 -0.6090 -0.4117  0.3278
  105OSM    H6F10727   1.205   5.570   9.414  3.0163 -0.6574  1.5784
  105OSM    H6G10728   1.317   5.699   9.422 -0.6703  0.9113 -1.9062
  105OSM    C7F10729   1.155   5.748   9.287  0.6175  0.3296  0.0275
  105OSM    H7F10730   1.188   5.853   9.274 -0.1627  0.4932 -0.7364
  105OSM    H7G10731   1.044   5.737   9.282  0.2995  2.6875  0.5426
  105OSM    C8F10732   1.208   5.672   9.165 -0.9956  0.5856  0.1313
  105OSM    H8F10733   1.315   5.652   9.186 -0.5623  1.4563 -1.0731
  105OSM    H8G10734   1.209   5.746   9.081 -1.2805  0.4272 -0.0129
  105OSM    C9F10735   1.142   5.547   9.128  0.2651  1.6509 -0.5815
  105OSM    H9F10736   1.170   5.462   9.192 -0.0803  0.6483 -1.7293
  105OSM   C10F10737   1.054   5.520   9.034 -0.1821  0.3879 -0.2628
  105OSM   H10F10738   1.012   5.421   9.016  1.3833 -0.5592  1.0053
  105OSM   C11F10739   1.010   5.628   8.932 -0.2404  0.0940  0.0346
  105OSM   H11F10740   1.035   5.726   8.978  2.2236 -0.2686 -0.4165
  105OSM   H11G10741   0.899   5.628   8.923 -0.2134 -0.8814 -0.4939
  105OSM   C12F10742   1.074   5.608   8.794  1.1553  0.0062  0.1692
  105OSM   H12F10743   1.045   5.510   8.749 -2.9358  0.1431  2.0706
  105OSM   H12G10744   1.184   5.608   8.807  1.2841 -0.3952 -0.8221
  105OSM   C13F10745   1.023   5.733   8.706  0.1796  0.9731 -0.3396
  105OSM   H13F10746   1.034   5.832   8.756 -2.3177  1.2927 -0.2773
  105OSM   H13G10747   0.913   5.721   8.690 -0.1918 -0.2497  2.6355
  105OSM   C14F10748   1.105   5.729   8.574  0.3880  0.2663 -0.1857
  105OSM   H14F10749   1.078   5.635   8.522  1.7610 -0.8692  1.0551
  105OSM   H14G10750   1.210   5.733   8.609  0.7010  1.5413 -1.1850
  105OSM   C15F10751   1.063   5.842   8.481  0.5686 -0.4454 -0.2791
  105OSM   H15F10752   1.049   5.937   8.538  2.0443 -0.1522 -0.3602
  105OSM   H15G10753   0.966   5.814   8.434 -0.0282  0.8730  0.0970
  105OSM   C16F10754   1.151   5.874   8.363  0.3932 -0.4597 -0.1570
  105OSM   H16F10755   1.092   5.933   8.291  2.2413  2.5518  0.6179
  105OSM   H16G10756   1.179   5.784   8.303 -0.9579 -0.7786 -0.3556
  105OSM   C17F10757   1.276   5.953   8.412  0.3756 -0.2621  0.1677
  105OSM   H17F10758   1.342   5.896   8.482 -0.1606 -0.0292  0.8804
  105OSM   H17G10759   1.246   6.034   8.482  1.2655  0.4297 -0.2323
  105OSM   C18F10760   1.350   6.024   8.302 -0.2602 -0.4327  0.5691
  105OSM   H18F10761   1.367   5.959   8.213 -0.2979 -1.4554  1.2975
  105OSM   H18G10762   1.449   6.064   8.333 -0.0198 -0.6939  0.1518
  105OSM   H18H10763   1.299   6.117   8.268  0.9879  0.3029  0.6365
  106OSM      N10764   0.080   5.942  10.852  0.2811 -0.5451  0.1526
  106OSM    C1510765   0.139   5.981  10.722 -0.5121  0.0528  0.3574
  106OSM   H15A10766   0.064   6.022  10.657 -0.2907 -1.3205 -0.8275
  106OSM   H15B10767   0.186   5.900  10.667  1.6703  2.5814 -1.7641
  106OSM   H15C10768   0.225   6.043  10.740 -0.3731  0.1423 -0.5781
  106OSM    C1410769   0.178   5.899  10.948 -0.5494  0.3486 -0.0864
  106OSM   H14A10770   0.220   5.803  10.924 -0.1826  0.2968  0.7276
  106OSM   H14B10771   0.136   5.900  11.048  1.4697 -0.0455  0.8085
  106OSM   H14C10772   0.262   5.966  10.957 -0.3008  0.1242 -0.7416
  106OSM    C1310773   0.008   6.068  10.896  0.4920 -0.0484 -0.3356
  106OSM   H13A10774   0.077   6.148  10.914 -1.0003  1.0688  0.6300
  106OSM   H13B10775  -0.043   6.044  10.988  0.1138  1.4403 -0.1430
  106OSM   H13C10776  -0.060   6.097  10.817 -3.3587 -2.9861  1.5511
  106OSM    C1210777  -0.021   5.830  10.856  0.2651 -0.1194  0.4254
  106OSM   H12A10778  -0.113   5.865  10.811  0.5324 -1.6430 -1.4513
  106OSM   H12B10779  -0.044   5.797  10.956  1.4951  2.1367  1.5041
  106OSM    C1110780   0.029   5.699  10.795  0.2883  0.0284  0.5650
  106OSM   H11A10781   0.067   5.730  10.695  0.0638  1.7898  1.0015
  106OSM   H11B10782  -0.059   5.630  10.798  1.0838 -0.9954  0.9807
  106OSM      P10783   0.233   5.536  10.813  0.2343 -0.2725  0.1595
  106OSM    O1310784   0.365   5.553  10.878  0.0622 -0.1807 -0.7407
  106OSM    O1410785   0.171   5.401  10.827  0.3766  0.0360  0.5044
  106OSM    O1110786   0.254   5.566  10.662  0.4100  0.1320  0.1386
  106OSM    O1210787   0.133   5.634  10.871 -0.5919  0.2156  0.6487
  106OSM    C1S10788   0.178   5.512  10.551  0.0638 -0.6367  0.5212
  106OSM    H1S10789   0.069   5.533  10.564  0.7797  1.5824  4.4796
  106OSM    H1T10790   0.185   5.402  10.536 -2.1365 -0.5975 -1.3488
  106OSM     NF10791   0.124   5.516  10.308 -0.0691 -0.3097  0.7564
  106OSM    HNF10792   0.148   5.446  10.241 -1.0087  1.5466 -1.6898
  106OSM    C2S10793   0.224   5.560  10.405  0.9735 -0.2794 -0.4299
  106OSM    H2S10794   0.218   5.671  10.407  0.0708 -0.3199  1.5473
  106OSM    C3S10795   0.361   5.520  10.367 -0.3182 -0.5053  0.3943
  106OSM    H3S10796   0.356   5.416  10.327 -0.8301  1.2016 -4.7151
  106OSM     O310797   0.462   5.521  10.467  0.0270 -0.1963 -0.5145
  106OSM    HO310798   0.415   5.520  10.550 -1.5537 -0.1897 -1.3749
  106OSM    C4S10799   0.405   5.585  10.237  0.7589 -0.2499  0.2088
  106OSM    H4S10800   0.378   5.537  10.142  1.6735 -0.5266  0.0744
  106OSM    C5S10801   0.460   5.706  10.227  0.0452 -0.1221 -0.3037
  106OSM    H5S10802   0.480   5.763  10.319  1.0978  1.3972 -1.4147
  106OSM    C6S10803   0.500   5.782  10.110 -0.1823 -0.2741  0.6243
  106OSM    H6S10804   0.600   5.828  10.119  0.4566 -1.3105 -0.7609
  106OSM    H6T10805   0.423   5.863  10.103 -0.7660 -0.9470 -4.0938
  106OSM    C7S10806   0.499   5.718   9.972  0.1361  0.6766 -0.2404
  106OSM    H7S10807   0.393   5.699   9.944  0.3871  0.6891 -1.2365
  106OSM    H7T10808   0.554   5.621   9.975 -0.1043  0.5114 -0.8718
  106OSM    C8S10809   0.572   5.807   9.875 -0.1058  0.2475  0.6877
  106OSM    H8S10810   0.678   5.834   9.896  0.5973 -1.0361 -0.9679
  106OSM    H8T10811   0.527   5.908   9.871  1.2388  0.8181 -1.5541
  106OSM    C9S10812   0.576   5.745   9.737 -0.1209  0.2275  0.1063
  106OSM    H9S10813   0.477   5.706   9.706 -0.1217  0.2567  0.0730
  106OSM    H9T10814   0.639   5.654   9.738 -0.8290 -0.2665  0.2150
  106OSM   C10S10815   0.622   5.840   9.636 -0.3211  0.0627 -0.0839
  106OSM   H10S10816   0.726   5.879   9.646 -0.4225  0.8510 -1.8506
  106OSM   H10T10817   0.551   5.925   9.649  1.5103  1.6222  0.3106
  106OSM   C11S10818   0.601   5.784   9.494 -0.1940 -0.4009 -0.8634
  106OSM   H11S10819   0.506   5.730   9.478 -1.0163  0.7079  0.1055
  106OSM   H11T10820   0.680   5.708   9.476  0.8773  0.5217 -0.2203
  106OSM   C12S10821   0.618   5.891   9.380  0.8200  0.6159 -0.0728
  106OSM   H12S10822   0.699   5.962   9.404  2.0133 -0.6751 -0.1568
  106OSM   H12T10823   0.522   5.945   9.365 -0.6368 -2.3993 -3.1708
  106OSM   C13S10824   0.655   5.834   9.241 -0.2022 -0.0977 -0.1675
  106OSM   H13S10825   0.606   5.735   9.241  0.8194 -0.6883  2.1007
  106OSM   H13T10826   0.766   5.832   9.234  0.1136 -2.5351  3.0122
  106OSM   C14S10827   0.598   5.904   9.116  0.5616 -0.4934 -0.3277
  106OSM   H14S10828   0.613   6.013   9.124  3.3033 -0.6360 -2.1853
  106OSM   H14T10829   0.487   5.899   9.124  0.4877  1.6065  0.4633
  106OSM   C15S10830   0.660   5.854   8.980  0.1366  0.1719 -0.0560
  106OSM   H15S10831   0.602   5.763   8.951  0.6481 -0.0619 -0.3658
  106OSM   H15T10832   0.768   5.828   8.976 -0.2741 -1.5336 -1.8939
  106OSM   C16S10833   0.656   5.961   8.868 -0.5190 -0.4400  0.4159
  106OSM   H16S10834   0.701   6.059   8.896  0.4893  0.0709 -2.6569
  106OSM   H16T10835   0.548   5.962   8.844 -0.6053 -0.6356  0.7822
  106OSM   C17S10836   0.727   5.924   8.742  0.1385  0.9688 -0.8264
  106OSM   H17S10837   0.688   5.824   8.713 -1.1216  0.4940  2.1295
  106OSM   H17T10838   0.836   5.910   8.762 -0.2485 -1.4995 -0.0372
  106OSM   C18S10839   0.702   6.021   8.622  0.0792  0.5418 -0.2224
  106OSM   H18S10840   0.777   5.993   8.545  0.0079  0.6235 -0.3208
  106OSM   H18T10841   0.726   6.123   8.657 -0.8542  0.9427 -0.7039
  106OSM   H18U10842   0.597   6.024   8.584  0.1341  0.9467 -0.3411
  106OSM    C1F10843   0.005   5.567  10.295  0.2455  0.2270  0.2265
  106OSM     OF10844  -0.037   5.662  10.364  0.6611 -0.1281 -0.4470
  106OSM    C2F10845  -0.084   5.502  10.194  1.1227 -0.1507  0.1169
  106OSM    H2F10846  -0.187   5.501  10.236  0.6645  2.8702 -0.7716
  106OSM    H2G10847  -0.058   5.395  10.176 -1.0904 -0.9528  1.1893
  106OSM    C3F10848  -0.101   5.580  10.062 -0.0054  0.1629  0.1459
  106OSM    H3F10849  -0.124   5.687  10.083  0.6162  0.6735 -1.6387
  106OSM    H3G10850  -0.190   5.540  10.009  1.0520  1.4820 -2.8634
  106OSM    C4F10851   0.022   5.574   9.975  0.7970  0.1387 -0.0662
  106OSM    H4F10852   0.037   5.467   9.949 -0.1476 -0.9228  3.2788
  106OSM    H4G10853   0.113   5.596  10.035 -0.5260 -0.8919  2.4751
  106OSM    C5F10854   0.022   5.677   9.860  0.3220  0.2974 -0.5072
  106OSM    H5F10855   0.050   5.782   9.885  2.3575  0.0622 -1.5983
  106OSM    H5G10856  -0.082   5.683   9.821  0.5337 -0.3801 -1.1994
  106OSM    C6F10857   0.107   5.629   9.744 -0.4932  0.5903  0.0827
  106OSM    H6F10858   0.130   5.520   9.751 -0.6993  0.4224 -1.5184
  106OSM    H6G10859   0.198   5.692   9.740  0.2685 -0.5435 -1.1805
  106OSM    C7F10860   0.038   5.638   9.604 -0.1405  0.4167  0.3236
  106OSM    H7F10861   0.016   5.745   9.587 -0.0913  0.2502 -0.8659
  106OSM    H7G10862  -0.058   5.584   9.614 -0.5985  1.3879  1.4998
  106OSM    C8F10863   0.108   5.580   9.484  0.2289 -0.3735 -0.5688
  106OSM    H8F10864   0.031   5.564   9.406  0.6144 -3.2299 -0.4890
  106OSM    H8G10865   0.134   5.476   9.514  1.0639 -0.0341 -0.0658
  106OSM    C9F10866   0.236   5.643   9.436  0.1785 -0.0700 -0.4977
  106OSM    H9F10867   0.321   5.608   9.497 -1.4031 -1.0910  1.2539
  106OSM   C10F10868   0.258   5.736   9.339 -0.4444  0.0388  0.4839
  106OSM   H10F10869   0.364   5.765   9.329 -0.2365 -0.2108  1.7571
  106OSM   C11F10870   0.155   5.795   9.245 -0.3764 -0.0074 -0.7199
  106OSM   H11F10871   0.187   5.896   9.209 -1.9206  1.4610  1.7090
  106OSM   H11G10872   0.052   5.795   9.287  0.8024 -1.0713  2.4762
  106OSM   C12F10873   0.134   5.700   9.127 -0.6784  0.2665  0.1488
  106OSM   H12F10874   0.032   5.712   9.086 -0.4016 -3.0702 -1.9088
  106OSM   H12G10875   0.137   5.591   9.149 -0.4932 -0.0974 -1.5423
  106OSM   C13F10876   0.227   5.711   9.008  0.4600  0.3896  0.3920
  106OSM   H13F10877   0.335   5.700   9.034  0.3605 -1.4271  0.1725
  106OSM   H13G10878   0.223   5.811   8.960  0.1471 -1.1403 -3.1004
  106OSM   C14F10879   0.199   5.609   8.900  0.7208  0.3711 -0.3647
  106OSM   H14F10880   0.098   5.637   8.863  0.8378  1.4014  0.0794
  106OSM   H14G10881   0.197   5.509   8.949 -0.6915 -0.2757 -1.6337
  106OSM   C15F10882   0.308   5.599   8.794 -0.1013  0.8771 -0.1263
  106OSM   H15F10883   0.306   5.492   8.765  0.0096  0.5372  1.0297
  106OSM   H15G10884   0.409   5.595   8.841  0.2872  0.7741 -0.9624
  106OSM   C16F10885   0.287   5.682   8.671 -0.0295  0.3154 -0.1664
  106OSM   H16F10886   0.245   5.776   8.713  1.4213  1.0219 -0.2219
  106OSM   H16G10887   0.199   5.638   8.620 -2.5269  1.8411  2.5176
  106OSM   C17F10888   0.411   5.703   8.581  0.4380  0.3144  0.2636
  106OSM   H17F10889   0.454   5.612   8.534  3.0637  2.4934 -1.8972
  106OSM   H17G10890   0.493   5.747   8.642 -0.1761  1.0439  0.5772
  106OSM   C18F10891   0.373   5.804   8.472 -0.1413  0.1068 -0.5495
  106OSM   H18F10892   0.372   5.902   8.524 -0.0578 -0.7790  1.2011
  106OSM   H18G10893   0.273   5.785   8.429 -0.0029 -1.8169 -0.1372
  106OSM   H18H10894   0.451   5.796   8.393  0.0774 -1.6177 -0.2056
  107OSM      N10895   2.239   3.613  10.852 -0.2401 -0.5272  0.2496
  107OSM    C1510896   2.255   3.494  10.947  0.8551 -1.0253 -0.3447
  107OSM   H15A10897   2.300   3.536  11.035  0.2867  1.2745 -1.0976
  107OSM   H15B10898   2.314   3.416  10.899  0.2525 -1.3982 -0.4890
  107OSM   H15C10899   2.157   3.453  10.968  0.6252 -0.7623 -0.8764
  107OSM    C1410900   2.223   3.736  10.941 -0.0360  0.1350 -0.5402
  107OSM   H14A10901   2.173   3.706  11.031 -0.4774 -0.0201 -0.8324
  107OSM   H14B10902   2.168   3.817  10.895  1.9486  1.8221 -0.0731
  107OSM   H14C10903   2.312   3.771  10.990 -1.0445  1.5181  0.3749
  107OSM    C1310904   2.367   3.628  10.780  0.0189  0.1605  0.0262
  107OSM   H13A10905   2.362   3.718  10.720 -1.2408  0.3329  0.3571
  107OSM   H13B10906   2.389   3.540  10.721 -0.7136 -0.4001  0.5712
  107OSM   H13C10907   2.449   3.653  10.845  0.0652  1.3768 -0.4684
  107OSM    C1210908   2.128   3.578  10.753  0.4061  0.5211 -0.1382
  107OSM   H12A10909   2.036   3.556  10.804  1.5901  0.5412  2.0995
  107OSM   H12B10910   2.163   3.494  10.695  1.5094  0.9837 -0.1628
  107OSM    C1110911   2.084   3.695  10.660 -0.4934  0.7546 -0.2812
  107OSM   H11A10912   2.024   3.655  10.576 -0.2453  1.5136 -0.8350
  107OSM   H11B10913   2.177   3.725  10.605 -0.4316  0.1956 -0.4838
  107OSM      P10914   1.882   3.843  10.722  0.1683  0.1308  0.0395
  107OSM    O1310915   1.813   3.724  10.775  0.0598  0.0213 -0.2066
  107OSM    O1410916   1.850   3.969  10.793  0.2964  0.2530 -0.1147
  107OSM    O1110917   1.858   3.858  10.569  0.0960  0.1831 -0.0631
  107OSM    O1210918   2.038   3.809  10.725 -0.1206 -0.1639  0.2694
  107OSM    C1S10919   1.939   3.944  10.482  0.3196  0.5719 -0.1981
  107OSM    H1S10920   2.031   3.882  10.478 -1.1720 -1.8011  0.2564
  107OSM    H1T10921   1.966   4.040  10.532 -0.8249  0.5076  0.5776
  107OSM     NF10922   1.968   3.979  10.238 -0.3001 -0.1428 -0.2770
  107OSM    HNF10923   1.975   4.070  10.197 -0.7842 -0.6789 -1.6189
  107OSM    C2S10924   1.873   3.960  10.350 -0.4833 -0.2327 -0.2761
  107OSM    H2S10925   1.815   3.869  10.325 -0.6758 -0.1268 -0.2187
  107OSM    C3S10926   1.762   4.077  10.359  0.0883 -0.3749  0.5853
  107OSM    H3S10927   1.815   4.175  10.365 -0.4646  0.0528 -1.0156
  107OSM     O310928   1.680   4.064  10.469  0.0567  0.1679 -0.6313
  107OSM    HO310929   1.709   3.982  10.509  0.2872  0.0550 -1.0343
  107OSM    C4S10930   1.677   4.084  10.239  0.2190 -0.0805  0.6138
  107OSM    H4S10931   1.609   3.997  10.238 -1.0041  0.8282  1.5069
  107OSM    C5S10932   1.679   4.182  10.149  0.2196  0.3019  0.2181
  107OSM    H5S10933   1.758   4.257  10.151  0.5796 -0.0766  0.5078
  107OSM    C6S10934   1.587   4.201  10.035  0.0500 -0.0733  0.6475
  107OSM    H6S10935   1.645   4.231   9.945  2.0196  0.6231  2.0747
  107OSM    H6T10936   1.507   4.274  10.057  0.0706 -0.1171  0.8698
  107OSM    C7S10937   1.516   4.069   9.992 -0.1604 -0.1787 -0.3605
  107OSM    H7S10938   1.451   4.045  10.078 -0.8859  3.6749  0.3635
  107OSM    H7T10939   1.586   3.986   9.969  0.6358  0.6314 -0.9774
  107OSM    C8S10940   1.424   4.091   9.877  0.8964  0.1104  0.6869
  107OSM    H8S10941   1.483   4.125   9.789  1.4868  0.6764  1.2857
  107OSM    H8T10942   1.360   4.180   9.891 -1.9552 -1.7989  0.5327
  107OSM    C9S10943   1.347   3.962   9.843 -0.3610  0.0823 -0.4337
  107OSM    H9S10944   1.294   3.927   9.935  0.3565 -3.4212 -1.1855
  107OSM    H9T10945   1.424   3.891   9.807 -0.0392  1.7094 -3.2007
  107OSM   C10S10946   1.252   3.957   9.721  0.2668 -0.7628  0.2079
  107OSM   H10S10947   1.165   4.023   9.743  0.6865 -0.7546  2.0270
  107OSM   H10T10948   1.207   3.857   9.705 -0.7672 -0.4841  1.1930
  107OSM   C11S10949   1.311   4.004   9.588  0.4337 -0.2528 -0.4002
  107OSM   H11S10950   1.361   4.103   9.592  1.3873 -0.6945 -1.1062
  107OSM   H11T10951   1.230   4.021   9.515  1.3121  1.4249 -1.0475
  107OSM   C12S10952   1.411   3.911   9.514  1.1348  0.7550 -0.0223
  107OSM   H12S10953   1.359   3.845   9.442  1.1896  0.6801  0.0067
  107OSM   H12T10954   1.447   3.842   9.593 -2.4332  0.9455  2.0090
  107OSM   C13S10955   1.523   3.987   9.434  0.3818  0.3710 -0.0550
  107OSM   H13S10956   1.575   4.065   9.494  0.1957 -0.4889  1.2490
  107OSM   H13T10957   1.473   4.039   9.349  0.0417 -1.6437 -1.1455
  107OSM   C14S10958   1.627   3.885   9.389 -0.2319 -0.0178  0.1471
  107OSM   H14S10959   1.583   3.806   9.325  0.6816  0.7947 -1.5577
  107OSM   H14T10960   1.639   3.822   9.479 -2.3126  1.2323  1.3609
  107OSM   C15S10961   1.757   3.946   9.338 -0.0048 -0.5880  0.2273
  107OSM   H15S10962   1.838   3.874   9.361 -1.2551 -1.6673  1.4395
  107OSM   H15T10963   1.768   4.046   9.385  0.1875 -0.0240 -0.9842
  107OSM   C16S10964   1.769   3.969   9.181 -0.4489 -0.0679 -0.2564
  107OSM   H16S10965   1.699   4.051   9.155 -1.7456 -0.4853  1.6408
  107OSM   H16T10966   1.736   3.877   9.129 -1.3451  0.0984 -0.0030
  107OSM   C17S10967   1.908   4.003   9.145  0.1612  0.2853 -0.6939
  107OSM   H17S10968   1.914   4.021   9.035  0.8200  2.5610 -0.3336
  107OSM   H17T10969   1.973   3.913   9.147 -1.6478 -1.0594  0.9209
  107OSM   C18S10970   1.974   4.127   9.209  0.1947 -0.0656 -0.2204
  107OSM   H18S10971   1.997   4.117   9.318 -1.2672  0.7828  0.1970
  107OSM   H18T10972   1.926   4.226   9.197  0.2206 -0.1185 -0.7630
  107OSM   H18U10973   2.075   4.126   9.164  0.1153 -2.3518 -0.4729
  107OSM    C1F10974   2.060   3.887  10.217 -0.5020  0.9387  0.5079
  107OSM     OF10975   2.055   3.772  10.260 -0.2129  0.0153 -0.0978
  107OSM    C2F10976   2.166   3.929  10.116  0.5620 -0.5264 -0.2446
  107OSM    H2F10977   2.224   4.013  10.161  0.2780  0.1384 -1.0876
  107OSM    H2G10978   2.114   3.982  10.034 -2.5874  3.1521  3.6258
  107OSM    C3F10979   2.254   3.812  10.072  0.7241 -0.3208  0.1107
  107OSM    H3F10980   2.186   3.747  10.012 -1.0483  1.3578  0.1623
  107OSM    H3G10981   2.302   3.754  10.153  0.0356  0.7105  1.3045
  107OSM    C4F10982   2.356   3.865   9.966 -0.1626 -0.2968 -0.6190
  107OSM    H4F10983   2.444   3.922  10.003  0.6553 -1.6938 -0.3610
  107OSM    H4G10984   2.282   3.932   9.918 -0.7574 -1.5467 -1.5012
  107OSM    C5F10985   2.389   3.754   9.868 -0.5433 -0.1769  0.2557
  107OSM    H5F10986   2.303   3.713   9.811  0.8293  1.8562 -3.6294
  107OSM    H5G10987   2.436   3.666   9.916 -0.2840  0.1810  0.6613
  107OSM    C6F10988   2.500   3.795   9.768 -0.4557  0.1779  0.1061
  107OSM    H6F10989   2.583   3.843   9.824  0.3132 -2.4100  1.3452
  107OSM    H6G10990   2.458   3.870   9.698  0.2925  0.4926 -0.0119
  107OSM    C7F10991   2.566   3.677   9.693  0.2909 -0.4578  0.8147
  107OSM    H7F10992   2.482   3.620   9.647  0.4876  0.5462 -0.8982
  107OSM    H7G10993   2.617   3.610   9.764  1.3471  0.2879  0.7867
  107OSM    C8F10994   2.659   3.701   9.561  0.1463  0.1885 -0.9320
  107OSM    H8F10995   2.699   3.600   9.536  0.7570  0.1553  0.0805
  107OSM    H8G10996   2.748   3.753   9.603 -0.1225 -0.1657  0.1187
  107OSM    C9F10997   2.618   3.776   9.445 -0.0023  0.1037  0.3341
  107OSM    H9F10998   2.574   3.714   9.367  0.9584  0.9163 -0.8895
  107OSM   C10F10999   2.638   3.909   9.424  0.3872  0.0860 -0.2359
  107OSM   H10F11000   2.599   3.961   9.336 -1.8090  1.9804  1.7019
  107OSM   C11F11001   2.710   4.002   9.502 -0.3937  0.1874 -0.7101
  107OSM   H11F11002   2.779   3.963   9.580  0.7072 -1.1128 -2.2646
  107OSM   H11G11003   2.630   4.053   9.560 -1.0430 -0.1706 -1.2771
  107OSM   C12F11004   2.780   4.106   9.414 -0.0686 -0.6558 -0.3256
  107OSM   H12F11005   2.837   4.172   9.481 -0.2033  1.8557 -2.5235
  107OSM   H12G11006   2.701   4.157   9.354  0.7902 -1.5775 -2.3572
  107OSM   C13F11007   2.889   4.051   9.317 -1.0185  0.5937 -0.1427
  107OSM   H13F11008   2.835   4.013   9.228 -2.6604  1.3975  0.4732
  107OSM   H13G11009   2.946   3.969   9.366 -1.0119  0.6218 -0.1027
  107OSM   C14F11010   2.995   4.160   9.276  0.4368  0.4851 -0.7263
  107OSM   H14F11011   3.048   4.193   9.368  0.4021 -0.9428 -0.1597
  107OSM   H14G11012   2.934   4.246   9.242 -0.2903  1.0018  1.7481
  107OSM   C15F11013   3.097   4.115   9.174  0.1033 -0.0813  0.3044
  107OSM   H15F11014   3.041   4.090   9.081  0.9268  1.6117 -0.7097
  107OSM   H15G11015   3.153   4.028   9.215  0.2601 -0.9673 -1.6741
  107OSM   C16F11016   3.196   4.227   9.136  0.0956 -0.1105  0.4140
  107OSM   H16F11017   3.242   4.277   9.225 -0.8737  1.6728 -0.0373
  107OSM   H16G11018   3.140   4.303   9.077  2.0880  2.5133  1.6747
  107OSM   C17F11019   3.315   4.173   9.048  0.5978  0.3864 -0.5708
  107OSM   H17F11020   3.376   4.260   9.015  1.5889  0.7314  1.9456
  107OSM   H17G11021   3.283   4.117   8.957 -0.6109 -2.6405  1.5686
  107OSM   C18F11022   3.415   4.074   9.121  0.0045 -0.0005  0.3635
  107OSM   H18F11023   3.515   4.082   9.074 -1.2454  0.0750 -2.4490
  107OSM   H18G11024   3.372   3.972   9.108  2.8545 -1.3050  0.5085
  107OSM   H18H11025   3.419   4.094   9.231  1.4284  0.2168  0.2870
  108OSM      N11026   0.507   4.783  10.506 -0.0766  0.4666  0.4287
  108OSM    C1511027   0.542   4.865  10.393 -1.1308  0.3375  0.7495
  108OSM   H15A11028   0.588   4.961  10.413 -1.4512  1.3444 -2.5964
  108OSM   H15B11029   0.448   4.886  10.345 -1.7609 -1.5811  1.0505
  108OSM   H15C11030   0.597   4.808  10.319 -0.3713  2.6542 -0.6088
  108OSM    C1411031   0.629   4.777  10.601 -0.6687 -0.1696 -0.0840
  108OSM   H14A11032   0.609   4.727  10.695 -0.7858  1.9860  1.0980
  108OSM   H14B11033   0.654   4.876  10.636  0.2517 -0.1367 -0.8163
  108OSM   H14C11034   0.713   4.722  10.562 -0.3265 -0.7668  1.4137
  108OSM    C1311035   0.390   4.841  10.575 -0.0899  0.2375 -0.6831
  108OSM   H13A11036   0.399   4.949  10.583 -0.6328  0.1434  2.2219
  108OSM   H13B11037   0.368   4.793  10.669  0.1427 -1.3601 -1.4152
  108OSM   H13C11038   0.298   4.828  10.519  0.5156 -1.5152 -1.3370
  108OSM    C1211039   0.469   4.641  10.456 -0.0861  0.6334  0.3952
  108OSM   H12A11040   0.456   4.569  10.535  0.7564 -0.8059 -0.7380
  108OSM   H12B11041   0.556   4.604  10.403 -1.5735  1.2057 -2.6893
  108OSM    C1111042   0.357   4.627  10.357  0.0729  1.2174  0.8892
  108OSM   H11A11043   0.360   4.523  10.318 -0.8434  0.7687  1.9560
  108OSM   H11B11044   0.372   4.687  10.264 -0.8292 -1.2616 -0.9776
  108OSM      P11045   0.150   4.572  10.514 -0.1109  0.8090  0.0793
  108OSM    O1311046   0.245   4.504  10.611  0.3537 -0.1790 -0.2200
  108OSM    O1411047   0.034   4.636  10.568  0.6789 -0.4614 -0.3190
  108OSM    O1111048   0.091   4.463  10.420  0.2720  0.0809 -0.5408
  108OSM    O1211049   0.232   4.660  10.411  0.5066  0.1815  0.5754
  108OSM    C1S11050   0.004   4.494  10.312 -0.1881  0.0185  0.1623
  108OSM    H1S11051   0.046   4.567  10.240 -0.2929 -0.5242 -0.4637
  108OSM    H1T11052  -0.085   4.551  10.346 -0.8753  0.1808 -1.8101
  108OSM     NF11053  -0.118   4.410  10.120  0.3319  0.1730  0.4726
  108OSM    HNF11054  -0.213   4.387  10.101  0.8229 -1.5663 -0.0387
  108OSM    C2S11055  -0.066   4.374  10.253  0.2850 -0.2293  0.5577
  108OSM    H2S11056   0.006   4.291  10.238 -0.6801 -0.7406 -1.5908
  108OSM    C3S11057  -0.163   4.315  10.352 -0.2842  0.8759 -0.3346
  108OSM    H3S11058  -0.247   4.383  10.377 -0.1330 -0.0979  3.3957
  108OSM     O311059  -0.097   4.300  10.481  0.5106 -0.1131 -0.1916
  108OSM    HO311060  -0.033   4.372  10.475 -1.8021  2.1453  0.4185
  108OSM    C4S11061  -0.226   4.193  10.304 -0.4986  0.2881  0.4329
  108OSM    H4S11062  -0.324   4.216  10.258 -0.2105  0.6581 -0.0115
  108OSM    C5S11063  -0.164   4.073  10.293 -0.1361 -0.4118 -0.0808
  108OSM    H5S11064  -0.057   4.067  10.320 -0.6434 -0.4122  2.0819
  108OSM    C6S11065  -0.226   3.951  10.228  0.2975  0.1555  0.7176
  108OSM    H6S11066  -0.335   3.955  10.250  0.2993  2.1784  0.5496
  108OSM    H6T11067  -0.189   3.855  10.271  0.3922 -0.8230 -1.4438
  108OSM    C7S11068  -0.199   3.949  10.077 -0.2294 -0.0382  0.2562
  108OSM    H7S11069  -0.251   3.862  10.033 -1.9088  0.0503  1.9809
  108OSM    H7T11070  -0.090   3.928  10.063 -0.0130  0.3964  1.2018
  108OSM    C8S11071  -0.237   4.075   9.993 -0.2361  0.2109 -0.1004
  108OSM    H8S11072  -0.174   4.163  10.022  1.1317 -0.9715  0.6479
  108OSM    H8T11073  -0.339   4.118  10.005 -0.4374 -0.3827  0.3660
  108OSM    C9S11074  -0.220   4.053   9.839 -0.3785 -0.0014 -0.2305
  108OSM    H9S11075  -0.243   4.139   9.772  0.2038  0.2342 -0.1330
  108OSM    H9T11076  -0.277   3.962   9.814 -1.5484  0.5793  0.2475
  108OSM   C10S11077  -0.072   4.016   9.821 -0.2368 -0.5398 -0.1325
  108OSM   H10S11078  -0.045   3.922   9.874 -1.0012 -1.5620 -1.4908
  108OSM   H10T11079  -0.010   4.094   9.870  0.5480 -1.9785  1.2843
  108OSM   C11S11080  -0.022   4.003   9.674 -0.1196 -0.2495  0.1698
  108OSM   H11S11081   0.072   3.946   9.691  1.0954  1.5967 -0.0123
  108OSM   H11T11082  -0.001   4.106   9.638 -0.3610 -0.3921 -0.3909
  108OSM   C12S11083  -0.119   3.918   9.587 -0.2170  0.4083  0.2989
  108OSM   H12S11084  -0.183   4.001   9.550  0.4385  0.4147 -0.8768
  108OSM   H12T11085  -0.177   3.850   9.653 -1.2338  0.0328 -0.9322
  108OSM   C13S11086  -0.053   3.845   9.468  0.0045  0.6918 -0.5755
  108OSM   H13S11087  -0.121   3.770   9.421  1.7546 -0.3082 -1.6213
  108OSM   H13T11088   0.043   3.798   9.499  0.2442  1.1607 -0.6080
  108OSM   C14S11089  -0.020   3.936   9.351 -0.0930 -0.5341  0.7569
  108OSM   H14S11090   0.054   4.008   9.394 -0.9069 -0.3496  1.8995
  108OSM   H14T11091  -0.112   3.988   9.316  0.4994 -0.1578 -0.3003
  108OSM   C15S11092   0.049   3.858   9.234  0.2753 -0.2340  0.0917
  108OSM   H15S11093  -0.000   3.765   9.200  1.6919 -0.7855 -0.5255
  108OSM   H15T11094   0.151   3.827   9.264  0.2676  0.7216  1.2235
  108OSM   C16S11095   0.054   3.946   9.112 -0.0999 -0.6988  0.6035
  108OSM   H16S11096   0.099   4.047   9.127  1.4551 -1.5045  1.6795
  108OSM   H16T11097  -0.046   3.961   9.066  0.4727 -0.3476 -0.5766
  108OSM   C17S11098   0.127   3.872   8.999  0.3976 -0.2928  0.1590
  108OSM   H17S11099   0.071   3.777   8.987 -3.1052  1.0549  3.6319
  108OSM   H17T11100   0.229   3.845   9.033 -0.1392 -1.8735  0.5975
  108OSM   C18S11101   0.149   3.949   8.868 -0.4810  0.1073  0.0758
  108OSM   H18S11102   0.206   4.042   8.890  0.5789 -0.6617  0.6813
  108OSM   H18T11103   0.054   3.974   8.816 -0.3219 -0.7169 -0.6385
  108OSM   H18U11104   0.207   3.897   8.788  1.3955  2.4843 -0.2221
  108OSM    C1F11105  -0.038   4.440  10.015  0.1551  0.3714  0.3957
  108OSM     OF11106   0.087   4.450  10.022  0.3415  0.4723 -0.4516
  108OSM    C2F11107  -0.100   4.458   9.881 -0.1334 -0.2222 -0.3201
  108OSM    H2F11108  -0.147   4.558   9.871 -0.5451 -0.3396  0.3766
  108OSM    H2G11109  -0.188   4.391   9.871  0.8677 -1.3663 -1.9062
  108OSM    C3F11110  -0.011   4.426   9.758 -0.6707  0.1067  0.7015
  108OSM    H3F11111   0.035   4.326   9.769 -0.2606 -0.1710 -2.6935
  108OSM    H3G11112   0.068   4.504   9.753 -1.2116  0.5605 -1.5242
  108OSM    C4F11113  -0.080   4.437   9.622  0.1950  0.7541  0.7728
  108OSM    H4F11114  -0.104   4.545   9.607 -3.3886  0.2814  2.2064
  108OSM    H4G11115  -0.168   4.373   9.602 -0.8636  2.4879 -0.4842
  108OSM    C5F11116   0.018   4.415   9.512  0.0477  0.2716  0.7963
  108OSM    H5F11117   0.039   4.306   9.517 -0.6864  0.0829  0.1210
  108OSM    H5G11118   0.109   4.477   9.518 -0.4245  0.9180  1.4405
  108OSM    C6F11119  -0.052   4.426   9.377 -0.1963  0.0886  0.3292
  108OSM    H6F11120  -0.091   4.529   9.364  1.7433  0.8048 -0.3104
  108OSM    H6G11121  -0.141   4.361   9.372 -0.2077  0.0970  0.4164
  108OSM    C7F11122   0.047   4.405   9.257 -0.3049  1.0232  0.5964
  108OSM    H7F11123   0.080   4.300   9.259  0.1849  1.1376 -0.5933
  108OSM    H7G11124   0.132   4.474   9.276 -0.0482  0.7958  0.2667
  108OSM    C8F11125  -0.003   4.430   9.114 -1.0392  0.0786 -0.0700
  108OSM    H8F11126  -0.084   4.355   9.101 -0.9481 -0.5023  2.2119
  108OSM    H8G11127   0.073   4.393   9.042  0.4792 -0.9881  1.9630
  108OSM    C9F11128  -0.059   4.561   9.059 -0.2344 -0.3700 -0.1462
  108OSM    H9F11129  -0.168   4.566   9.046 -0.4305 -0.2221  1.4345
  108OSM   C10F11130   0.010   4.663   9.011 -0.5837 -0.5571  0.4192
  108OSM   H10F11131  -0.049   4.748   8.974  1.2282  1.2834  1.5438
  108OSM   C11F11132   0.158   4.683   9.016  0.7783 -0.5071  0.1790
  108OSM   H11F11133   0.200   4.744   8.933  0.7522 -0.6540  0.0558
  108OSM   H11G11134   0.208   4.586   8.993 -1.0439 -1.8841  1.7412
  108OSM   C12F11135   0.195   4.738   9.158  0.8493  0.4903 -0.0765
  108OSM   H12F11136   0.300   4.715   9.186  0.4323  0.8919  1.9318
  108OSM   H12G11137   0.131   4.684   9.230  0.0147  0.5077 -0.7876
  108OSM   C13F11138   0.158   4.883   9.189 -0.5095 -0.8711 -0.0005
  108OSM   H13F11139   0.047   4.888   9.180 -0.4439 -0.8768 -0.8849
  108OSM   H13G11140   0.209   4.953   9.120 -2.3611  2.4782  1.7550
  108OSM   C14F11141   0.195   4.916   9.328  0.2555  0.2848  0.4457
  108OSM   H14F11142   0.166   5.019   9.358 -2.3053 -0.3465  0.3687
  108OSM   H14G11143   0.305   4.905   9.333  0.1520 -0.8327  0.5743
  108OSM   C15F11144   0.141   4.836   9.450  0.4696 -0.3224 -0.0608
  108OSM   H15F11145   0.168   4.728   9.451 -0.8431 -0.7804 -2.8218
  108OSM   H15G11146   0.030   4.838   9.443  0.4532 -0.5328  0.1437
  108OSM   C16F11147   0.187   4.896   9.583  0.0527 -0.1945 -0.4525
  108OSM   H16F11148   0.138   4.995   9.592 -0.6131 -0.6846  1.9717
  108OSM   H16G11149   0.296   4.911   9.592 -0.0033  1.3858 -1.8678
  108OSM   C17F11150   0.150   4.818   9.708 -0.1603  0.5416  0.1569
  108OSM   H17F11151   0.213   4.851   9.793  2.5004  1.1754 -1.9398
  108OSM   H17G11152   0.178   4.712   9.687 -0.3951  0.1374  1.7332
  108OSM   C18F11153  -0.004   4.818   9.730  0.4489 -0.0151 -1.2527
  108OSM   H18F11154  -0.038   4.919   9.761  0.9790 -0.2029  0.0002
  108OSM   H18G11155  -0.015   4.756   9.821 -0.8811  1.3972 -0.4225
  108OSM   H18H11156  -0.068   4.772   9.652  0.2567 -0.1269 -1.0295
  109OSM      N11157   5.226   4.025  10.700  0.1553  0.4552  0.8706
  109OSM    C1511158   5.106   3.972  10.763 -0.0141 -0.8369  0.2808
  109OSM   H15A11159   5.059   4.062  10.801 -1.1123  0.1391 -3.0811
  109OSM   H15B11160   5.121   3.906  10.848 -1.3268  0.0797  1.2655
  109OSM   H15C11161   5.044   3.934  10.684  1.6972 -0.0535 -1.5150
  109OSM    C1411162   5.200   4.105  10.567  0.4138  0.1745  0.5129
  109OSM   H14A11163   5.117   4.060  10.514  0.1870  1.0172  0.1274
  109OSM   H14B11164   5.296   4.106  10.519  0.1697  1.9250 -0.0058
  109OSM   H14C11165   5.173   4.209  10.581  1.4052  0.8149 -1.8664
  109OSM    C1311166   5.300   4.107  10.808 -0.1907  0.1244  0.2054
  109OSM   H13A11167   5.391   4.151  10.770  0.7886 -0.8394  1.3279
  109OSM   H13B11168   5.323   4.048  10.896 -0.5934  0.6286  0.6545
  109OSM   H13C11169   5.233   4.181  10.849  0.7318  0.8441  0.4513
  109OSM    C1211170   5.309   3.907  10.663 -0.0433  0.4667 -0.1554
  109OSM   H12A11171   5.387   3.943  10.597  1.4811 -0.5730  1.0137
  109OSM   H12B11172   5.243   3.840  10.610  0.2713  1.2250 -1.5558
  109OSM    C1111173   5.383   3.823  10.763  0.8720 -0.4180 -0.7474
  109OSM   H11A11174   5.441   3.890  10.830 -1.8324  1.1015  0.2356
  109OSM   H11B11175   5.457   3.754  10.718  1.4562 -0.1857 -0.1573
  109OSM      P11176   5.230   3.612  10.767  0.2287 -0.4382  0.1723
  109OSM    O1311177   5.324   3.507  10.802  0.0593  0.5757 -0.2108
  109OSM    O1411178   5.086   3.595  10.805  0.0151 -0.4338 -0.1405
  109OSM    O1111179   5.249   3.641  10.612  0.3268  0.1982  0.2156
  109OSM    O1211180   5.286   3.744  10.841 -0.2208 -0.0256  0.3213
  109OSM    C1S11181   5.174   3.552  10.534  0.5392 -0.1932 -0.2953
  109OSM    H1S11182   5.067   3.570  10.555  1.3660  2.4177  2.3666
  109OSM    H1T11183   5.206   3.446  10.542 -0.8301 -0.7062 -1.2119
  109OSM     NF11184   5.127   3.487  10.314  0.1530 -0.4296 -0.3686
  109OSM    HNF11185   5.172   3.401  10.290  1.3990 -0.7339  2.6275
  109OSM    C2S11186   5.210   3.578  10.386  0.0004  0.2005 -0.7136
  109OSM    H2S11187   5.175   3.675  10.344 -1.3903  0.8219  1.6700
  109OSM    C3S11188   5.358   3.555  10.356  0.3257  0.3446 -0.2623
  109OSM    H3S11189   5.387   3.452  10.386  1.6918  0.6789 -0.3871
  109OSM     O311190   5.437   3.647  10.431 -0.2077 -0.2740 -0.1380
  109OSM    HO311191   5.371   3.682  10.491 -1.9908  1.3498 -2.8295
  109OSM    C4S11192   5.397   3.558  10.212  0.0250 -0.8837  0.5274
  109OSM    H4S11193   5.381   3.460  10.165 -3.0765  0.8254 -2.5458
  109OSM    C5S11194   5.454   3.653  10.130  0.4642  0.0899 -0.0595
  109OSM    H5S11195   5.486   3.755  10.156  1.6701  0.4615 -2.6383
  109OSM    C6S11196   5.482   3.620   9.984  0.1447 -0.1995  0.1380
  109OSM    H6S11197   5.593   3.621   9.971 -0.0176 -0.8679 -1.5854
  109OSM    H6T11198   5.447   3.707   9.925 -2.5709 -1.5297 -0.3614
  109OSM    C7S11199   5.415   3.499   9.919  0.1556 -0.1167 -0.0291
  109OSM    H7S11200   5.304   3.506   9.912  0.2882  0.2814 -2.3133
  109OSM    H7T11201   5.424   3.410   9.986 -1.3229 -0.3281 -0.0713
  109OSM    C8S11202   5.465   3.467   9.772  0.3307 -0.0840  0.2815
  109OSM    H8S11203   5.576   3.462   9.761  0.1273 -1.1060 -1.7405
  109OSM    H8T11204   5.428   3.535   9.693 -0.3474 -0.3339  0.3851
  109OSM    C9S11205   5.432   3.319   9.731  0.2945 -0.2284  0.6856
  109OSM    H9S11206   5.329   3.311   9.691  1.7987 -2.6811 -3.3143
  109OSM    H9T11207   5.448   3.248   9.815  2.5555  0.2078  0.6868
  109OSM   C10S11208   5.508   3.278   9.605  0.1442  0.0831  0.5063
  109OSM   H10S11209   5.618   3.289   9.618  0.5905 -2.7818 -0.1771
  109OSM   H10T11210   5.471   3.342   9.522 -0.8191  0.4842  1.2343
  109OSM   C11S11211   5.472   3.129   9.566  0.2639 -1.3749  0.4149
  109OSM   H11S11212   5.362   3.118   9.555  0.1566 -0.4229  0.4361
  109OSM   H11T11213   5.505   3.073   9.656 -0.8328  0.7805  2.2785
  109OSM   C12S11214   5.533   3.094   9.428  0.1102  0.3910  0.1669
  109OSM   H12S11215   5.540   2.984   9.414  2.8069  0.6396 -1.0145
  109OSM   H12T11216   5.639   3.127   9.431  0.2173  0.1716 -0.8451
  109OSM   C13S11217   5.466   3.160   9.306 -0.6555 -0.7284  0.3561
  109OSM   H13S11218   5.493   3.266   9.292 -1.0735 -0.7660 -0.8655
  109OSM   H13T11219   5.357   3.148   9.319 -0.3679 -1.2821  2.7365
  109OSM   C14S11220   5.483   3.076   9.176 -0.3454  0.8870  0.3120
  109OSM   H14S11221   5.436   3.127   9.089  1.0780  0.4550 -0.7514
  109OSM   H14T11222   5.437   2.976   9.189  1.9021 -0.3751 -0.7227
  109OSM   C15S11223   5.630   3.055   9.140  0.2289  0.1712 -0.1141
  109OSM   H15S11224   5.673   2.984   9.214 -0.8336 -0.1156  0.2449
  109OSM   H15T11225   5.687   3.150   9.148 -1.1363  1.0039 -0.0426
  109OSM   C16S11226   5.646   2.976   9.006  0.0395  0.0006  0.6005
  109OSM   H16S11227   5.554   2.991   8.944  0.4989 -0.2011 -0.1501
  109OSM   H16T11228   5.644   2.867   9.028  2.6935 -0.1301  0.5092
  109OSM   C17S11229   5.777   2.999   8.933  0.1315  0.0311  0.2113
  109OSM   H17S11230   5.855   2.973   9.008 -1.0810 -3.7267  0.4011
  109OSM   H17T11231   5.767   3.107   8.912 -2.3701 -0.5848 -2.2666
  109OSM   C18S11232   5.786   2.925   8.796 -0.1207  0.0134 -0.4190
  109OSM   H18S11233   5.881   2.957   8.748  0.2168 -0.4530 -0.0677
  109OSM   H18T11234   5.697   2.944   8.732 -1.4097 -1.6061  0.8028
  109OSM   H18U11235   5.793   2.815   8.812  0.9932 -0.2443 -2.3730
  109OSM    C1F11236   5.003   3.525  10.293  0.2848 -0.2535 -0.0742
  109OSM     OF11237   4.959   3.630  10.333  1.1154  0.9664  0.0009
  109OSM    C2F11238   4.914   3.430  10.222 -0.9645 -0.1100  0.0503
  109OSM    H2F11239   4.809   3.440  10.259 -0.9504 -1.8478  0.6495
  109OSM    H2G11240   4.952   3.326  10.235 -2.5295 -1.1209 -2.6242
  109OSM    C3F11241   4.908   3.450  10.068 -0.7535  0.2875  0.3378
  109OSM    H3F11242   4.866   3.546  10.029 -0.3413  0.4988  0.4020
  109OSM    H3G11243   4.836   3.378  10.024  1.3589 -1.6201 -0.2093
  109OSM    C4F11244   5.041   3.415   9.991 -0.5340 -0.5279  0.2829
  109OSM    H4F11245   5.075   3.316  10.029  3.4736  0.2786 -0.6594
  109OSM    H4G11246   5.122   3.488  10.014 -1.7364  0.8102  0.4428
  109OSM    C5F11247   5.009   3.416   9.836 -0.8602  0.3179 -0.5901
  109OSM    H5F11248   4.900   3.399   9.821 -1.0509  1.5883 -0.7841
  109OSM    H5G11249   5.071   3.332   9.796 -0.6340 -0.2542  0.8962
  109OSM    C6F11250   5.045   3.542   9.763  0.4088 -0.3410 -0.2079
  109OSM    H6F11251   5.152   3.567   9.746  0.8913 -2.0248  0.2014
  109OSM    H6G11252   5.004   3.623   9.827 -0.8892 -1.6986  0.7433
  109OSM    C7F11253   4.961   3.540   9.633  0.3870 -0.2443  0.7294
  109OSM    H7F11254   4.965   3.634   9.574  0.7802  0.1410  1.3553
  109OSM    H7G11255   4.856   3.525   9.666 -0.0586 -0.8270 -0.8313
  109OSM    C8F11256   4.976   3.425   9.532  0.5605 -0.5453  0.7125
  109OSM    H8F11257   4.900   3.448   9.454  0.8806  0.7753  0.7632
  109OSM    H8G11258   4.942   3.328   9.573  2.7142 -1.7961 -0.3244
  109OSM    C9F11259   5.119   3.424   9.485 -0.0593 -0.1750  0.2544
  109OSM    H9F11260   5.188   3.364   9.547 -0.8801  1.2680  2.6905
  109OSM   C10F11261   5.177   3.499   9.390 -0.0384  0.0275  0.3106
  109OSM   H10F11262   5.286   3.486   9.379  0.1652 -0.4825  2.5700
  109OSM   C11F11263   5.110   3.603   9.301 -0.0475  0.4876 -0.2744
  109OSM   H11F11264   5.157   3.695   9.341 -1.5880  0.5895  1.4758
  109OSM   H11G11265   5.004   3.601   9.336 -0.2817 -5.8172 -0.0703
  109OSM   C12F11266   5.115   3.584   9.144 -1.0304  0.4527  0.0278
  109OSM   H12F11267   5.060   3.491   9.117 -0.1980 -0.3761  1.0781
  109OSM   H12G11268   5.221   3.555   9.131 -0.2598  2.3590  1.5981
  109OSM   C13F11269   5.100   3.705   9.055  1.2213  0.4235 -0.5942
  109OSM   H13F11270   5.181   3.777   9.078  1.7994 -0.3442 -0.2000
  109OSM   H13G11271   5.000   3.752   9.072  0.9582 -0.3285 -0.0216
  109OSM   C14F11272   5.092   3.656   8.907  0.0350  0.1219 -0.3667
  109OSM   H14F11273   5.010   3.582   8.912 -0.8405  1.0036 -1.0742
  109OSM   H14G11274   5.185   3.605   8.877 -0.9736 -1.6121 -0.6475
  109OSM   C15F11275   5.052   3.776   8.820  0.1703  0.4734  0.4474
  109OSM   H15F11276   5.119   3.858   8.855 -0.6807 -0.1294  3.9082
  109OSM   H15G11277   4.950   3.812   8.846  1.2366  1.5611  3.7009
  109OSM   C16F11278   5.067   3.752   8.672 -0.2302 -0.6863  1.2539
  109OSM   H16F11279   5.010   3.658   8.653  0.2827 -0.9817  1.1691
  109OSM   H16G11280   5.170   3.714   8.658  0.7546  1.6023  1.8621
  109OSM   C17F11281   5.015   3.856   8.577 -0.3815  1.7144  0.5122
  109OSM   H17F11282   5.053   3.951   8.622 -1.1093  1.7680  1.0270
  109OSM   H17G11283   4.905   3.863   8.576 -0.6397 -1.1806 -0.5865
  109OSM   C18F11284   5.049   3.826   8.430  0.5375 -0.7142 -0.1524
  109OSM   H18F11285   5.152   3.857   8.402  0.8427 -1.7361 -0.1931
  109OSM   H18G11286   4.986   3.902   8.378  0.3922  0.2667  1.3744
  109OSM   H18H11287   5.032   3.722   8.397  0.2306 -0.7089 -0.0155
  110OSM      N11288   5.961   1.503  10.983  0.0484 -0.0980  0.6849
  110OSM    C1511289   6.093   1.560  11.018 -0.1960 -0.3809 -0.0473
  110OSM   H15A11290   6.142   1.616  10.940  2.0677  0.6440  1.9852
  110OSM   H15B11291   6.158   1.480  11.050 -1.6727 -1.1312  1.2568
  110OSM   H15C11292   6.080   1.634  11.096  0.5332 -0.6253  0.3148
  110OSM    C1411293   5.970   1.378  10.889  0.8034 -0.3201 -0.1602
  110OSM   H14A11294   6.022   1.402  10.798  0.6854 -1.2112 -0.4793
  110OSM   H14B11295   5.874   1.331  10.870  1.0689 -1.6546  1.5192
  110OSM   H14C11296   6.033   1.300  10.928  0.6271 -0.0756  0.6513
  110OSM    C1311297   5.898   1.451  11.105 -0.0525 -0.6441 -0.3307
  110OSM   H13A11298   5.855   1.535  11.159  0.2681 -1.4298  1.2148
  110OSM   H13B11299   5.956   1.397  11.179 -1.6357 -2.3298 -0.2596
  110OSM   H13C11300   5.812   1.396  11.072  1.0787 -1.0464 -2.7920
  110OSM    C1211301   5.883   1.609  10.906 -0.0376 -0.0092 -0.6000
  110OSM   H12A11302   5.808   1.557  10.849  0.1682  0.3766 -1.2440
  110OSM   H12B11303   5.949   1.655  10.834 -0.2413 -0.6508 -1.2005
  110OSM    C1111304   5.817   1.724  10.988 -0.1413 -0.5005  0.5081
  110OSM   H11A11305   5.764   1.665  11.066  1.6798 -0.5188  1.8177
  110OSM   H11B11306   5.746   1.781  10.925  0.0723 -0.7033  0.0818
  110OSM      P11307   5.950   1.944  10.998  0.0672 -0.1381  0.5231
  110OSM    O1311308   5.861   2.041  11.063 -0.5111  0.0481  0.2752
  110OSM    O1411309   6.094   1.964  11.021 -0.3605 -0.2667 -0.4933
  110OSM    O1111310   5.923   1.947  10.844  0.0615 -0.2501  0.3839
  110OSM    O1211311   5.914   1.806  11.056 -0.2868  0.1902 -0.1176
  110OSM    C1S11312   6.029   1.934  10.745  0.1992  0.4543 -0.2899
  110OSM    H1S11313   6.091   1.845  10.769 -0.0666  0.6605  1.2939
  110OSM    H1T11314   6.092   2.025  10.758  0.5498 -0.0579  1.9737
  110OSM     NF11315   6.037   1.858  10.501  0.6185  0.9525 -0.6007
  110OSM    HNF11316   6.065   1.914  10.423 -1.6417  0.7093 -1.6602
  110OSM    C2S11317   5.958   1.919  10.608 -0.2121 -0.4299  0.3778
  110OSM    H2S11318   5.870   1.853  10.621  0.2943 -1.3210 -0.5875
  110OSM    C3S11319   5.897   2.054  10.558  0.1229  0.4754  0.4336
  110OSM    H3S11320   5.975   2.129  10.533  0.4185 -0.7622 -2.8466
  110OSM     O311321   5.808   2.109  10.653 -0.6579  0.0842  0.0395
  110OSM    HO311322   5.810   2.041  10.720 -1.5306  1.4198  1.4778
  110OSM    C4S11323   5.806   2.026  10.441  0.0529 -0.3133  0.2421
  110OSM    H4S11324   5.733   1.945  10.451 -0.5304  0.1502 -0.2111
  110OSM    C5S11325   5.827   2.078  10.318 -0.1296  0.0468  0.1611
  110OSM    H5S11326   5.918   2.132  10.288  0.1178  0.4578  1.5750
  110OSM    C6S11327   5.766   2.028  10.194  0.4658  0.0016  0.8178
  110OSM    H6S11328   5.719   2.115  10.144 -1.0543 -0.9515  0.5384
  110OSM    H6T11329   5.686   1.956  10.221  0.4619 -0.8262 -1.2337
  110OSM    C7S11330   5.861   1.963  10.097 -0.2192  0.7854 -0.3169
  110OSM    H7S11331   5.883   1.865  10.145 -0.0309  1.8945  1.9771
  110OSM    H7T11332   5.960   2.013  10.087 -0.1186  0.2938 -2.2423
  110OSM    C8S11333   5.810   1.952   9.952 -0.6820  0.1921 -0.0614
  110OSM    H8S11334   5.778   2.045   9.900 -0.3927 -1.7209 -4.1222
  110OSM    H8T11335   5.717   1.892   9.966 -0.7014 -0.1261 -1.3452
  110OSM    C9S11336   5.914   1.888   9.857 -0.4028  0.2660 -0.5125
  110OSM    H9S11337   5.941   1.790   9.902  1.1039  0.8654 -0.0263
  110OSM    H9T11338   6.009   1.945   9.845 -1.1184  1.2461 -1.6939
  110OSM   C10S11339   5.862   1.863   9.715 -0.1165 -0.2156 -0.4493
  110OSM   H10S11340   5.844   1.963   9.669  0.6748 -0.8851 -2.3195
  110OSM   H10T11341   5.761   1.818   9.722 -0.5346  0.3548 -2.1066
  110OSM   C11S11342   5.948   1.781   9.628  0.3137 -0.5520 -0.1253
  110OSM   H11S11343   5.948   1.674   9.657  2.6800 -0.2693  1.1689
  110OSM   H11T11344   6.056   1.808   9.627  0.4703 -1.1392 -0.8759
  110OSM   C12S11345   5.911   1.797   9.478  0.0479  0.0132 -0.0999
  110OSM   H12S11346   5.912   1.906   9.457 -1.1872 -0.4744 -3.1592
  110OSM   H12T11347   5.809   1.758   9.460  0.8284 -1.4594 -1.5813
  110OSM   C13S11348   6.006   1.723   9.386 -0.3735 -0.5727 -0.6452
  110OSM   H13S11349   5.982   1.614   9.384 -1.3875 -0.3654 -0.1744
  110OSM   H13T11350   6.112   1.740   9.417 -1.2748  2.7163  1.0670
  110OSM   C14S11351   6.010   1.776   9.243 -0.0467  0.5078  0.5735
  110OSM   H14S11352   6.022   1.886   9.250  3.1824  0.3236 -0.5334
  110OSM   H14T11353   5.912   1.749   9.199  1.7931 -3.3107 -1.6444
  110OSM   C15S11354   6.124   1.710   9.149 -0.8197 -0.1264 -0.6966
  110OSM   H15S11355   6.084   1.614   9.108  0.0940 -0.1812 -1.5018
  110OSM   H15T11356   6.206   1.693   9.221 -1.2636  2.0199  0.3878
  110OSM   C16S11357   6.173   1.785   9.032  0.5004 -0.2678  0.2614
  110OSM   H16S11358   6.208   1.888   9.053  1.3659 -0.6317  0.6208
  110OSM   H16T11359   6.084   1.804   8.968 -0.2381  0.5498  1.4779
  110OSM   C17S11360   6.282   1.714   8.961 -0.6106 -0.0716 -0.7063
  110OSM   H17S11361   6.265   1.605   8.964  0.0494 -0.1663  0.0590
  110OSM   H17T11362   6.374   1.732   9.021 -0.8675 -0.6740 -0.1262
  110OSM   C18S11363   6.303   1.757   8.818 -0.6068  0.5504 -0.0220
  110OSM   H18S11364   6.206   1.768   8.767 -0.9503  1.6812  0.8137
  110OSM   H18T11365   6.369   1.686   8.764 -1.2342  0.7066 -1.0164
  110OSM   H18U11366   6.350   1.857   8.802 -0.6815  0.3539 -1.5710
  110OSM    C1F11367   6.079   1.731  10.511  0.4698  0.3678  0.0097
  110OSM     OF11368   6.064   1.663  10.610 -0.0988  0.0791  0.4330
  110OSM    C2F11369   6.162   1.686  10.401 -0.3393 -0.8019  0.0836
  110OSM    H2F11370   6.236   1.612  10.439  0.4447 -1.1452 -1.9468
  110OSM    H2G11371   6.217   1.776  10.365 -1.6508  0.4178  1.0427
  110OSM    C3F11372   6.080   1.620  10.286 -0.3230  0.2634  0.5984
  110OSM    H3F11373   6.006   1.687  10.237 -0.6460 -0.7278 -0.3015
  110OSM    H3G11374   6.007   1.547  10.326 -0.5637  0.1255 -0.0686
  110OSM    C4F11375   6.172   1.557  10.179 -0.7962 -0.0393  0.0392
  110OSM    H4F11376   6.249   1.495  10.230 -0.4207 -0.8645 -1.4743
  110OSM    H4G11377   6.229   1.629  10.117  0.7904 -1.1388  0.1819
  110OSM    C5F11378   6.092   1.470  10.077  0.0570 -0.6951 -0.3279
  110OSM    H5F11379   6.034   1.543  10.017  0.1985  1.8351  2.3929
  110OSM    H5G11380   6.015   1.409  10.128 -1.0279  1.2383  0.4412
  110OSM    C6F11381   6.182   1.386   9.983  0.0747  0.1752  0.2376
  110OSM    H6F11382   6.201   1.287  10.031  1.9546 -0.6390 -2.0218
  110OSM    H6G11383   6.285   1.416   9.955  0.5134  0.3736  1.9439
  110OSM    C7F11384   6.107   1.353   9.850 -0.0925 -0.1625 -1.0412
  110OSM    H7F11385   5.999   1.372   9.865  0.2453  1.3612 -0.3677
  110OSM    H7G11386   6.123   1.244   9.835  0.8126 -0.3918  1.2814
  110OSM    C8F11387   6.144   1.451   9.738  0.2634 -0.2260 -1.1198
  110OSM    H8F11388   6.145   1.552   9.783  1.7906 -1.0328  0.8262
  110OSM    H8G11389   6.057   1.443   9.669  0.4161 -0.4307 -1.2921
  110OSM    C9F11390   6.271   1.428   9.679 -0.4576  0.4868  0.0144
  110OSM    H9F11391   6.352   1.469   9.742 -1.4508 -0.2563  1.8313
  110OSM   C10F11392   6.306   1.383   9.556 -0.3814  0.4978 -0.2033
  110OSM   H10F11393   6.406   1.369   9.510 -0.6896  0.2398 -0.8087
  110OSM   C11F11394   6.212   1.340   9.448 -0.5863  0.4062  0.7312
  110OSM   H11F11395   6.109   1.373   9.473 -0.1054  1.3902  1.5201
  110OSM   H11G11396   6.214   1.231   9.426  1.0194  0.8492 -1.6698
  110OSM   C12F11397   6.252   1.400   9.313  0.3318  0.4885  0.3084
  110OSM   H12F11398   6.238   1.510   9.320  1.0698  0.4914  2.6598
  110OSM   H12G11399   6.169   1.371   9.246 -1.1656  3.2240  0.8492
  110OSM   C13F11400   6.384   1.345   9.255  0.6288 -0.5843 -0.1342
  110OSM   H13F11401   6.370   1.235   9.257 -2.7230 -0.2605  0.1266
  110OSM   H13G11402   6.467   1.380   9.320 -0.6831  3.1780 -0.2430
  110OSM   C14F11403   6.414   1.397   9.114  0.2011 -0.6864 -0.6924
  110OSM   H14F11404   6.396   1.506   9.122  0.1292 -0.8157  1.3842
  110OSM   H14G11405   6.340   1.358   9.041 -0.0309  2.2900 -2.2082
  110OSM   C15F11406   6.551   1.367   9.050 -0.2729 -0.4266  0.6931
  110OSM   H15F11407   6.545   1.266   9.004  0.6032  0.4512 -1.4481
  110OSM   H15G11408   6.617   1.373   9.139  0.0763  1.0934  0.3585
  110OSM   C16F11409   6.595   1.457   8.937  0.2909  0.3837 -0.0247
  110OSM   H16F11410   6.702   1.439   8.913  0.9648 -0.0953  2.9115
  110OSM   H16G11411   6.579   1.562   8.970  0.7378  0.9180 -1.4661
  110OSM   C17F11412   6.513   1.429   8.815  0.7178  0.3462 -0.6246
  110OSM   H17F11413   6.403   1.444   8.824  0.5291 -0.9544 -0.5894
  110OSM   H17G11414   6.526   1.320   8.795  2.3468  0.4655 -0.3502
  110OSM   C18F11415   6.568   1.492   8.686  0.0357  0.3476 -0.1203
  110OSM   H18F11416   6.499   1.480   8.600 -0.9097 -0.1513  0.6694
  110OSM   H18G11417   6.663   1.439   8.665  0.6881  0.3492  2.4109
  110OSM   H18H11418   6.599   1.597   8.706  2.1623 -0.3135  0.2877
  111OSM      N11419   1.192   6.191  10.782 -0.8724 -0.8099  0.3450
  111OSM    C1511420   1.119   6.074  10.829  0.2662 -0.3237  0.3402
  111OSM   H15A11421   1.181   5.993  10.865 -0.4135 -0.6599  0.7769
  111OSM   H15B11422   1.070   6.026  10.745  3.5525 -0.9293 -1.4010
  111OSM   H15C11423   1.044   6.098  10.903  0.7497 -1.4641  1.2400
  111OSM    C1411424   1.277   6.260  10.890 -0.3144  0.5370 -1.2752
  111OSM   H14A11425   1.361   6.197  10.914 -0.3935  1.4586  1.9026
  111OSM   H14B11426   1.222   6.267  10.983  2.4637 -0.4027  0.5603
  111OSM   H14C11427   1.310   6.356  10.853  1.3655  0.3337 -0.4030
  111OSM    C1311428   1.274   6.156  10.668  0.0181 -0.2506 -0.4604
  111OSM   H13A11429   1.213   6.111  10.592  0.3730  1.1167 -1.5898
  111OSM   H13B11430   1.355   6.087  10.690 -0.0126  0.2551  1.4700
  111OSM   H13C11431   1.326   6.242  10.629  1.6139  0.3252  2.6128
  111OSM    C1211432   1.079   6.296  10.735  0.3126  0.1093 -0.0100
  111OSM   H12A11433   1.126   6.390  10.711  1.0275 -0.2322  0.0186
  111OSM   H12B11434   1.011   6.311  10.816  3.2804  2.6281  2.2621
  111OSM    C1111435   0.984   6.263  10.616  0.1371 -0.2934  0.2373
  111OSM   H11A11436   1.040   6.230  10.526 -2.7905 -0.2533 -1.7173
  111OSM   H11B11437   0.929   6.354  10.584  0.3676 -0.4370 -0.5976
  111OSM      P11438   0.754   6.191  10.710  0.2201  0.0280 -0.1134
  111OSM    O1311439   0.675   6.071  10.718  0.7057 -0.4338  0.3109
  111OSM    O1411440   0.756   6.285  10.821  0.1059  0.8859 -0.6788
  111OSM    O1111441   0.695   6.272  10.595  0.0225 -0.6163 -0.3029
  111OSM    O1211442   0.896   6.158  10.659 -0.2977  0.0140 -0.0653
  111OSM    C1S11443   0.711   6.245  10.458  0.0301  0.5982 -0.8537
  111OSM    H1S11444   0.807   6.191  10.444  0.7592  1.1754  1.4536
  111OSM    H1T11445   0.722   6.341  10.402  0.3356  0.3228 -1.2754
  111OSM     NF11446   0.629   6.118  10.256 -0.2908 -0.5779  0.2735
  111OSM    HNF11447   0.564   6.148  10.186 -0.6694 -0.2224  0.7755
  111OSM    C2S11448   0.598   6.146  10.395  0.1083 -0.0244 -0.4193
  111OSM    H2S11449   0.596   6.047  10.445 -0.7426  0.5871  0.8414
  111OSM    C3S11450   0.451   6.202  10.419 -0.8834 -0.3915  0.2846
  111OSM    H3S11451   0.451   6.292  10.352  1.1068  1.8049  3.0176
  111OSM     O311452   0.427   6.244  10.551  0.3273  0.1734 -0.0347
  111OSM    HO311453   0.517   6.238  10.585  0.4762 -0.9489 -0.5815
  111OSM    C4S11454   0.350   6.100  10.377 -0.8158 -0.0435 -1.2115
  111OSM    H4S11455   0.355   6.006  10.433 -1.3078  0.4465 -0.3073
  111OSM    C5S11456   0.256   6.117  10.288 -0.1198 -0.0710 -0.3153
  111OSM    H5S11457   0.266   6.214  10.236  1.6590 -0.1055 -0.0844
  111OSM    C6S11458   0.169   6.007  10.239 -0.4559 -0.6097 -0.1950
  111OSM    H6S11459   0.078   6.019  10.301 -0.0988  1.1008  0.0385
  111OSM    H6T11460   0.205   5.903  10.248  1.0542 -0.3473 -2.3712
  111OSM    C7S11461   0.123   6.036  10.096  0.6035  0.0441 -0.2613
  111OSM    H7S11462   0.069   6.133  10.097  0.6342  0.1028 -2.0078
  111OSM    H7T11463   0.045   5.960  10.071 -0.4575  1.0382 -0.0614
  111OSM    C8S11464   0.230   6.034   9.989  0.3594  0.6579  0.3495
  111OSM    H8S11465   0.273   5.933   9.969 -0.1979  0.3451  0.6894
  111OSM    H8T11466   0.317   6.097  10.014  1.6812 -0.2289 -1.7725
  111OSM    C9S11467   0.164   6.079   9.854 -0.2214 -0.3498  0.5102
  111OSM    H9S11468   0.158   6.190   9.856  1.6666 -0.2070 -0.1066
  111OSM    H9T11469   0.056   6.054   9.847 -0.5303  1.1156 -0.6809
  111OSM   C10S11470   0.247   6.051   9.726 -0.0759 -0.2677 -0.9516
  111OSM   H10S11471   0.239   5.943   9.700 -0.3201 -0.2246 -1.0623
  111OSM   H10T11472   0.354   6.075   9.744 -0.4964 -0.4605  2.4955
  111OSM   C11S11473   0.203   6.136   9.612 -0.1172  0.5455 -0.2634
  111OSM   H11S11474   0.213   6.244   9.637  1.8070 -0.4589  4.3610
  111OSM   H11T11475   0.096   6.120   9.590 -0.3533 -1.9324  2.2172
  111OSM   C12S11476   0.294   6.108   9.486 -0.2824 -0.0423  0.0086
  111OSM   H12S11477   0.278   6.004   9.450 -0.3936  0.1255 -0.4381
  111OSM   H12T11478   0.401   6.117   9.511 -0.7514  0.8083  1.8561
  111OSM   C13S11479   0.270   6.214   9.372  0.4114  0.1910 -0.8245
  111OSM   H13S11480   0.271   6.317   9.413  1.2387 -0.1623  0.0831
  111OSM   H13T11481   0.166   6.200   9.334  0.3086  0.1316 -0.5200
  111OSM   C14S11482   0.372   6.208   9.254 -0.8397  0.3424  0.1015
  111OSM   H14S11483   0.387   6.102   9.223  0.6409  0.2054  1.1042
  111OSM   H14T11484   0.474   6.234   9.290 -0.8584  0.6380 -0.0566
  111OSM   C15S11485   0.327   6.286   9.131  0.6614  0.0375 -0.5293
  111OSM   H15S11486   0.310   6.389   9.170 -1.8593  0.3843 -2.2840
  111OSM   H15T11487   0.223   6.252   9.111  0.8077 -1.8074  1.4912
  111OSM   C16S11488   0.431   6.278   9.021  0.1307  0.1175 -0.0848
  111OSM   H16S11489   0.438   6.176   8.978 -0.6808  0.4069 -0.9406
  111OSM   H16T11490   0.529   6.307   9.064 -0.6194 -0.1403  1.8785
  111OSM   C17S11491   0.396   6.366   8.901 -0.3930 -0.5958  0.8190
  111OSM   H17S11492   0.411   6.471   8.933  0.0754 -0.6104  0.6529
  111OSM   H17T11493   0.290   6.352   8.872 -0.1958  1.7499 -1.5493
  111OSM   C18S11494   0.462   6.324   8.765  0.5351  0.1398 -0.6443
  111OSM   H18S11495   0.429   6.391   8.683 -2.5177 -1.6419 -1.0161
  111OSM   H18T11496   0.437   6.220   8.734  1.0495 -0.2289  0.1461
  111OSM   H18U11497   0.572   6.330   8.779  0.4497  0.2753  0.0044
  111OSM    C1F11498   0.744   6.056  10.220 -1.2058 -0.6293 -0.3742
  111OSM     OF11499   0.808   5.993  10.302 -0.2214  0.5524  0.4343
  111OSM    C2F11500   0.791   6.080  10.077  0.3426  0.2400 -0.7796
  111OSM    H2F11501   0.777   6.189  10.062 -1.1700 -0.1978 -3.0020
  111OSM    H2G11502   0.723   6.020  10.012 -0.9045  0.0479  0.6362
  111OSM    C3F11503   0.932   6.050  10.045 -1.2221 -0.0847 -0.6127
  111OSM    H3F11504   0.939   6.031   9.936  1.4162  0.5958 -0.6321
  111OSM    H3G11505   0.958   5.959  10.103  0.1423  0.6868  0.0351
  111OSM    C4F11506   1.038   6.160  10.066 -0.5515  0.7424  0.5182
  111OSM    H4F11507   1.046   6.168  10.177 -1.9109 -2.2746  0.9394
  111OSM    H4G11508   0.984   6.247  10.024 -2.0756 -0.2437  0.3549
  111OSM    C5F11509   1.178   6.148   9.999  0.4057  0.4060  0.7072
  111OSM    H5F11510   1.242   6.073  10.051 -0.6045 -1.0441 -0.0581
  111OSM    H5G11511   1.228   6.245  10.017 -0.6506  1.1235 -0.1439
  111OSM    C6F11512   1.176   6.132   9.855 -0.0420  0.1043  0.6934
  111OSM    H6F11513   1.109   6.211   9.815 -0.7797 -1.2342 -0.7990
  111OSM    H6G11514   1.121   6.039   9.829  0.5375  0.0309 -0.3186
  111OSM    C7F11515   1.315   6.150   9.785  0.6065  0.6523 -0.1906
  111OSM    H7F11516   1.388   6.074   9.822 -1.7706 -0.2051  3.2527
  111OSM    H7G11517   1.344   6.250   9.824 -1.0960  1.6047 -1.2381
  111OSM    C8F11518   1.311   6.154   9.632  0.3941  0.0678  0.0621
  111OSM    H8F11519   1.273   6.054   9.604 -0.3952  0.4893 -0.4186
  111OSM    H8G11520   1.414   6.167   9.593  0.3543  0.6057  0.1199
  111OSM    C9F11521   1.223   6.257   9.577 -0.0717 -0.1628  0.0528
  111OSM    H9F11522   1.274   6.355   9.574  0.5359 -0.5047 -1.8308
  111OSM   C10F11523   1.102   6.247   9.511 -0.5179 -0.1171 -0.6950
  111OSM   H10F11524   1.058   6.336   9.462  0.2394  0.6910  0.0601
  111OSM   C11F11525   1.012   6.128   9.477 -0.4604 -0.3955  0.3904
  111OSM   H11F11526   0.904   6.150   9.495 -1.0777 -1.5151 -1.5865
  111OSM   H11G11527   1.039   6.047   9.548 -1.0646 -0.3683  0.6599
  111OSM   C12F11528   1.030   6.069   9.334 -0.2402 -0.7967 -1.1664
  111OSM   H12F11529   0.963   5.982   9.316 -1.1455 -0.4545  0.4154
  111OSM   H12G11530   1.136   6.053   9.304  1.2281  1.7975  2.0419
  111OSM   C13F11531   0.984   6.168   9.227 -0.3496 -0.6967  0.0369
  111OSM   H13F11532   1.058   6.249   9.214 -1.6180  0.7846  1.4685
  111OSM   H13G11533   0.893   6.223   9.262  2.7427  2.8824  3.4514
  111OSM   C14F11534   0.969   6.105   9.090  0.0683  0.4811  0.7682
  111OSM   H14F11535   0.875   6.046   9.082 -1.0302  2.3797 -1.8134
  111OSM   H14G11536   1.051   6.036   9.060  0.6782  1.8784 -0.9356
  111OSM   C15F11537   0.949   6.207   8.974  0.2507 -0.7558  0.0788
  111OSM   H15F11538   0.859   6.270   8.988 -0.2314 -0.6914 -2.6793
  111OSM   H15G11539   0.916   6.159   8.879 -0.7004 -0.8170  0.4276
  111OSM   C16F11540   1.073   6.302   8.952  0.1889  0.4988  0.6057
  111OSM   H16F11541   1.164   6.243   8.979 -1.3509 -2.4372 -0.1538
  111OSM   H16G11542   1.053   6.385   9.023 -3.9446  0.9458 -0.8231
  111OSM   C17F11543   1.083   6.354   8.805 -0.4883 -0.3122 -0.3138
  111OSM   H17F11544   0.983   6.382   8.766  0.9279  0.4108 -3.7590
  111OSM   H17G11545   1.131   6.277   8.741  1.6034  1.0970 -0.5420
  111OSM   C18F11546   1.160   6.484   8.791 -0.3317 -0.2298 -0.0012
  111OSM   H18F11547   1.183   6.497   8.683  1.0121 -1.2339  0.1331
  111OSM   H18G11548   1.255   6.486   8.850 -0.0440  0.0500 -0.4620
  111OSM   H18H11549   1.111   6.574   8.833 -0.1759  1.0181 -2.3334
  112OSM      N11550   6.592   4.933  10.491 -0.9116  0.0375 -0.5462
  112OSM    C1511551   6.499   4.978  10.593 -0.3624  1.0013 -0.3088
  112OSM   H15A11552   6.528   4.943  10.691 -0.1618  1.4646 -0.2017
  112OSM   H15B11553   6.402   4.941  10.562 -0.1383  1.0476 -1.0944
  112OSM   H15C11554   6.483   5.085  10.589 -0.1567  1.0065 -2.1383
  112OSM    C1411555   6.562   5.012  10.364  0.1455 -0.3411  0.0791
  112OSM   H14A11556   6.465   4.986  10.324  1.2510 -1.7957 -1.7976
  112OSM   H14B11557   6.633   4.996  10.284 -1.3082 -1.4852 -1.0187
  112OSM   H14C11558   6.562   5.119  10.379  2.3224 -0.2001 -0.6449
  112OSM    C1311559   6.736   4.982  10.536 -0.1906 -0.3147 -1.4194
  112OSM   H13A11560   6.748   5.088  10.557  1.4088 -0.9611  1.5931
  112OSM   H13B11561   6.806   4.952  10.460 -0.0840  0.0730 -1.4772
  112OSM   H13C11562   6.751   4.929  10.629 -0.4030 -0.1485 -1.2885
  112OSM    C1211563   6.600   4.777  10.486  0.0225  0.5659 -0.3279
  112OSM   H12A11564   6.591   4.731  10.584  0.2475 -3.0110 -1.8427
  112OSM   H12B11565   6.700   4.749  10.458  0.1456  2.2076 -1.6615
  112OSM    C1111566   6.504   4.710  10.384 -0.2385  0.5574  0.1791
  112OSM   H11A11567   6.528   4.602  10.374 -0.6399  0.6683 -2.9324
  112OSM   H11B11568   6.530   4.760  10.288 -0.9640  2.6533  1.0196
  112OSM      P11569   6.314   4.626  10.543  0.0515 -0.2553 -0.4244
  112OSM    O1311570   6.423   4.585  10.632 -0.5527  0.3472  0.0905
  112OSM    O1411571   6.198   4.689  10.607 -0.0844  0.8933 -0.0176
  112OSM    O1111572   6.272   4.497  10.464 -0.1688  0.0529 -0.0284
  112OSM    O1211573   6.369   4.725  10.428  0.3119 -0.7125 -0.1432
  112OSM    C1S11574   6.251   4.502  10.326  1.0554 -0.5352  0.5899
  112OSM    H1S11575   6.344   4.532  10.272  0.4356 -1.2783 -0.9737
  112OSM    H1T11576   6.167   4.569  10.298  0.8822 -0.7112  0.6914
  112OSM     NF11577   6.172   4.363  10.131  0.4008 -0.7769  0.5320
  112OSM    HNF11578   6.079   4.379  10.099  1.0821 -1.0849 -1.7721
  112OSM    C2S11579   6.194   4.366  10.277 -1.2323  0.4818  0.4704
  112OSM    H2S11580   6.287   4.306  10.291 -1.9453 -1.1998 -1.4006
  112OSM    C3S11581   6.082   4.307  10.361 -0.1135 -0.2662  0.5295
  112OSM    H3S11582   5.994   4.375  10.356  0.4644  0.4882  0.4586
  112OSM     O311583   6.104   4.298  10.502  0.0002  0.1765  0.0253
  112OSM    HO311584   6.191   4.337  10.516  0.2440 -0.4985  0.4707
  112OSM    C4S11585   6.044   4.176  10.307 -0.5097  0.2369 -0.7487
  112OSM    H4S11586   5.955   4.180  10.242  0.2796  0.3835 -1.8382
  112OSM    C5S11587   6.111   4.061  10.311 -0.1322 -0.3474  0.2732
  112OSM    H5S11588   6.214   4.052  10.348 -0.0699  0.0577  0.1964
  112OSM    C6S11589   6.061   3.929  10.255 -0.1988 -0.3091 -0.0512
  112OSM    H6S11590   5.961   3.943  10.210 -1.2223 -2.2789  1.4700
  112OSM    H6T11591   6.044   3.847  10.328 -2.6774  0.0969 -0.1032
  112OSM    C7S11592   6.171   3.880  10.154 -0.2768  0.1876  0.8949
  112OSM    H7S11593   6.155   3.772  10.134 -2.3049  0.4700  0.8215
  112OSM    H7T11594   6.270   3.887  10.204  0.6332 -2.1416 -0.3730
  112OSM    C8S11595   6.162   3.959  10.024 -0.1641  0.0480 -0.4151
  112OSM    H8S11596   6.262   3.968   9.975  0.0816  1.3426  0.2701
  112OSM    H8T11597   6.118   4.059  10.042 -1.4205 -0.3960 -0.9170
  112OSM    C9S11598   6.060   3.910   9.928  0.2284 -0.0930  0.5456
  112OSM    H9S11599   5.960   3.900   9.975 -1.0267  0.4727 -1.8264
  112OSM    H9T11600   6.092   3.805   9.913 -2.1348 -0.8362  0.3416
  112OSM   C10S11601   6.066   3.986   9.799  0.4952 -0.0401 -0.4453
  112OSM   H10S11602   6.173   3.993   9.771  0.5261  1.0058 -0.0886
  112OSM   H10T11603   6.028   4.090   9.806 -1.2507 -0.7145  1.1903
  112OSM   C11S11604   5.989   3.915   9.683 -0.5095  0.3048  0.3146
  112OSM   H11S11605   5.881   3.939   9.679 -0.2045  1.8260  0.5836
  112OSM   H11T11606   5.998   3.807   9.711 -0.1468  0.6606  1.6599
  112OSM   C12S11607   6.062   3.942   9.550  0.1897 -0.0832  0.1653
  112OSM   H12S11608   6.171   3.921   9.550  0.3830  0.8925  0.2099
  112OSM   H12T11609   6.046   4.051   9.538 -1.4850 -0.2238  0.9020
  112OSM   C13S11610   6.019   3.878   9.418 -0.8346  1.0529 -0.6184
  112OSM   H13S11611   5.909   3.893   9.422 -0.8549  0.7397  1.5629
  112OSM   H13T11612   6.046   3.770   9.421 -0.5995  1.0879 -1.2790
  112OSM   C14S11613   6.083   3.947   9.297  0.4135 -0.4170 -0.2671
  112OSM   H14S11614   6.188   3.915   9.281  1.6129  2.3568  1.3420
  112OSM   H14T11615   6.078   4.055   9.323 -2.0686 -1.0920  2.6953
  112OSM   C15S11616   6.003   3.909   9.162 -0.1292  0.4811  0.2374
  112OSM   H15S11617   5.894   3.894   9.184  0.2514 -0.7128  1.4750
  112OSM   H15T11618   6.041   3.810   9.130  0.2069  0.6585  0.0878
  112OSM   C16S11619   6.011   4.014   9.051  0.3705  0.3553  0.5729
  112OSM   H16S11620   5.955   4.108   9.070  3.9521  2.9493 -0.6437
  112OSM   H16T11621   5.968   3.960   8.964 -0.5710  0.3215  1.0553
  112OSM   C17S11622   6.157   4.047   9.012 -0.0076 -0.5703 -0.1052
  112OSM   H17S11623   6.215   3.956   8.987  0.9689 -0.0442  0.1870
  112OSM   H17T11624   6.206   4.099   9.098  1.2110  0.9443 -1.6581
  112OSM   C18S11625   6.157   4.137   8.890 -0.7624  0.2700  0.2582
  112OSM   H18S11626   6.096   4.229   8.900  0.2067  1.0937 -1.1281
  112OSM   H18T11627   6.129   4.081   8.798  0.7587 -1.2453  0.6521
  112OSM   H18U11628   6.266   4.152   8.874 -0.4411 -0.8228  1.2502
  112OSM    C1F11629   6.273   4.382  10.043  0.0693  0.1468  0.1657
  112OSM     OF11630   6.389   4.386  10.084 -0.1037 -0.0309  0.0814
  112OSM    C2F11631   6.227   4.402   9.901 -0.6120 -0.0541 -0.5795
  112OSM    H2F11632   6.165   4.493   9.888  1.9191  1.5877 -2.2549
  112OSM    H2G11633   6.156   4.318   9.883  0.2602 -0.7953 -0.6726
  112OSM    C3F11634   6.347   4.399   9.805 -0.2525 -0.4375 -0.1688
  112OSM    H3F11635   6.401   4.307   9.835  1.0248 -0.1552 -1.5364
  112OSM    H3G11636   6.412   4.488   9.822 -1.2487  0.7772 -2.2950
  112OSM    C4F11637   6.338   4.391   9.644  0.3948 -1.2095 -0.8319
  112OSM    H4F11638   6.439   4.404   9.598  1.9453 -4.7172  1.1771
  112OSM    H4G11639   6.278   4.481   9.618  2.4611  1.0153  1.5349
  112OSM    C5F11640   6.280   4.261   9.598 -0.3989 -0.8637 -0.4174
  112OSM    H5F11641   6.169   4.267   9.603 -0.4837 -1.2417 -1.5471
  112OSM    H5G11642   6.309   4.171   9.655 -1.3752 -1.2471 -0.5036
  112OSM    C6F11643   6.322   4.224   9.457  0.4354  0.1839 -0.1109
  112OSM    H6F11644   6.311   4.114   9.446 -0.5566  0.0617  1.7515
  112OSM    H6G11645   6.431   4.242   9.443  0.5642 -1.0362 -0.7688
  112OSM    C7F11646   6.267   4.309   9.335  0.1861 -0.4844 -0.4409
  112OSM    H7F11647   6.207   4.400   9.356  1.0949 -0.3165  1.6327
  112OSM    H7G11648   6.209   4.239   9.270  1.3446 -1.1182 -0.8117
  112OSM    C8F11649   6.380   4.363   9.228  0.2574 -0.2520 -0.6919
  112OSM    H8F11650   6.459   4.418   9.283  0.4238  1.1634 -2.2947
  112OSM    H8G11651   6.329   4.426   9.153  0.7260  0.0818 -0.7296
  112OSM    C9F11652   6.450   4.245   9.172  0.0594  0.4859  0.6034
  112OSM    H9F11653   6.448   4.160   9.242  0.3416  1.7076  2.1482
  112OSM   C10F11654   6.488   4.222   9.043 -0.9509  0.0109  0.2621
  112OSM   H10F11655   6.526   4.123   9.015 -1.2025 -0.0220  0.0345
  112OSM   C11F11656   6.468   4.316   8.933 -0.8384 -0.2507  0.3074
  112OSM   H11F11657   6.525   4.411   8.947  0.7498 -1.0723 -0.3508
  112OSM   H11G11658   6.367   4.362   8.925 -0.5308  0.3039 -0.5115
  112OSM   C12F11659   6.503   4.282   8.788  0.2298 -0.6346  0.3671
  112OSM   H12F11660   6.455   4.348   8.713  0.9777  0.5412  0.8785
  112OSM   H12G11661   6.469   4.181   8.757 -0.9956 -0.6075  1.5252
  112OSM   C13F11662   6.655   4.270   8.780  1.0491 -0.0684  0.7753
  112OSM   H13F11663   6.692   4.179   8.832  0.8544 -0.6942 -0.1543
  112OSM   H13G11664   6.709   4.361   8.814  2.6204 -0.7731  0.2749
  112OSM   C14F11665   6.676   4.249   8.626 -0.0940 -0.5077 -0.3097
  112OSM   H14F11666   6.652   4.350   8.589 -2.1927 -0.6872  0.3953
  112OSM   H14G11667   6.616   4.169   8.578  1.4413 -0.3554 -2.6297
  112OSM   C15F11668   6.831   4.234   8.593 -0.0027  0.3836 -0.0997
  112OSM   H15F11669   6.846   4.223   8.483  2.8104 -1.8354  0.3858
  112OSM   H15G11670   6.864   4.143   8.647  0.2823 -1.9807 -3.8592
  112OSM   C16F11671   6.918   4.354   8.642 -0.4197 -0.3749 -0.8293
  112OSM   H16F11672   6.934   4.340   8.751  0.2829  0.8374 -0.7606
  112OSM   H16G11673   6.876   4.454   8.619 -0.6025  0.5827  3.0980
  112OSM   C17F11674   7.060   4.345   8.585  0.1914 -0.6454  0.2370
  112OSM   H17F11675   7.053   4.376   8.479  0.3129  2.6424  1.0774
  112OSM   H17G11676   7.088   4.238   8.578  1.3613 -0.3155 -0.3370
  112OSM   C18F11677   7.157   4.428   8.675  0.3139 -0.3330  0.4528
  112OSM   H18F11678   7.238   4.466   8.610 -1.0601 -1.3388 -1.9955
  112OSM   H18G11679   7.199   4.364   8.756  0.2046 -2.2588 -0.9506
  112OSM   H18H11680   7.097   4.507   8.726  0.9241 -0.3172  1.1557
  113OSM      N11681   0.917   2.690  10.747 -0.1650 -0.2663 -0.1668
  113OSM    C1511682   0.912   2.609  10.874  0.1928 -0.2276  0.8871
  113OSM   H15A11683   0.840   2.651  10.941 -0.6937  2.7834 -1.6828
  113OSM   H15B11684   1.010   2.622  10.918 -0.3284  4.2052  1.1815
  113OSM   H15C11685   0.905   2.502  10.861  2.1948 -0.1817 -1.2996
  113OSM    C1411686   1.028   2.627  10.667 -0.8184  0.2485 -0.1387
  113OSM   H14A11687   1.012   2.525  10.636 -0.4706 -0.1302  0.8828
  113OSM   H14B11688   1.114   2.627  10.732  0.2927 -2.0103 -1.4937
  113OSM   H14C11689   1.046   2.689  10.581  0.7613 -1.5571 -1.1831
  113OSM    C1311690   0.798   2.685  10.663  0.5921 -0.4849  0.3602
  113OSM   H13A11691   0.819   2.730  10.567  1.1400  0.5809  0.9703
  113OSM   H13B11692   0.724   2.752  10.706  1.2915  0.6068 -0.1018
  113OSM   H13C11693   0.762   2.583  10.651  2.9337 -1.3204 -0.0409
  113OSM    C1211694   0.944   2.836  10.774  0.0764  0.2550  0.2199
  113OSM   H12A11695   0.961   2.883  10.679  0.0598  1.6397  0.8685
  113OSM   H12B11696   1.027   2.853  10.842 -0.2964  1.1004  0.4849
  113OSM    C1111697   0.831   2.916  10.840  0.0963 -0.0207 -0.1631
  113OSM   H11A11698   0.884   3.011  10.864  0.0571  0.3581 -1.4665
  113OSM   H11B11699   0.794   2.876  10.937  0.1110  1.7280  0.5921
  113OSM      P11700   0.722   3.059  10.659 -0.4003  0.0247  0.1913
  113OSM    O1311701   0.642   3.168  10.720 -0.5732 -0.2475 -0.2730
  113OSM    O1411702   0.860   3.098  10.627  0.7047  0.4064 -0.2027
  113OSM    O1111703   0.643   3.011  10.527 -0.1171  0.1567  0.0696
  113OSM    O1211704   0.720   2.932  10.753  0.0383  0.2883 -0.3421
  113OSM    C1S11705   0.718   2.959  10.407  0.1611  0.6677 -0.0140
  113OSM    H1S11706   0.771   2.867  10.439  0.8976  1.7532  2.1822
  113OSM    H1T11707   0.796   3.034  10.381 -0.9893  1.5969 -0.8705
  113OSM     NF11708   0.705   2.893  10.178 -0.6227 -0.3951  0.0063
  113OSM    HNF11709   0.740   2.974  10.131 -1.5491  0.4561  0.7274
  113OSM    C2S11710   0.624   2.938  10.281 -0.9135 -0.2644  0.4999
  113OSM    H2S11711   0.543   2.866  10.303  0.0309 -2.0503 -1.4862
  113OSM    C3S11712   0.553   3.075  10.253 -0.0523 -0.0687  0.1354
  113OSM    H3S11713   0.622   3.162  10.242 -1.6983  1.4376  1.1961
  113OSM     O311714   0.473   3.114  10.366 -0.4906 -0.0879  0.3421
  113OSM    HO311715   0.521   3.072  10.438  1.5585  0.2896 -0.7268
  113OSM    C4S11716   0.468   3.062  10.132 -0.2071  0.3877 -0.0766
  113OSM    H4S11717   0.377   2.999  10.139 -1.2586  1.9004  0.3742
  113OSM    C5S11718   0.501   3.098  10.001 -0.1926 -0.0604  0.1349
  113OSM    H5S11719   0.598   3.147   9.984  0.7250 -1.6553  0.5449
  113OSM    C6S11720   0.412   3.067   9.881  0.3637 -0.4551 -0.4254
  113OSM    H6S11721   0.318   3.126   9.883  0.8436  0.3149 -0.5857
  113OSM    H6T11722   0.376   2.962   9.885 -0.6447 -0.1649 -1.6026
  113OSM    C7S11723   0.483   3.112   9.756 -0.2447 -0.1258  0.5220
  113OSM    H7S11724   0.580   3.058   9.750 -0.1386  0.1386 -0.1631
  113OSM    H7T11725   0.495   3.222   9.758 -0.4388 -0.0929 -0.1549
  113OSM    C8S11726   0.394   3.071   9.634 -0.3144  0.8119  0.2208
  113OSM    H8S11727   0.291   3.106   9.654 -0.5719  1.5940 -2.2359
  113OSM    H8T11728   0.393   2.960   9.620 -2.2452  0.7887  0.3055
  113OSM    C9S11729   0.446   3.122   9.503 -0.4716 -0.5995  0.4036
  113OSM    H9S11730   0.552   3.155   9.504 -0.6665  0.1027  1.8952
  113OSM    H9T11731   0.394   3.220   9.489 -2.5532 -1.6364  0.5697
  113OSM   C10S11732   0.405   3.054   9.376  0.1875 -0.1191  0.8611
  113OSM   H10S11733   0.295   3.043   9.379  0.0956 -0.9336 -2.0702
  113OSM   H10T11734   0.455   2.957   9.356  0.2021  0.0296  0.1202
  113OSM   C11S11735   0.445   3.139   9.257 -0.4696  0.8818 -0.0737
  113OSM   H11S11736   0.554   3.156   9.244  0.6418 -3.3303  1.9317
  113OSM   H11T11737   0.397   3.239   9.255 -0.0622  1.0670 -1.5057
  113OSM   C12S11738   0.407   3.070   9.127  0.2115 -0.3409  0.1863
  113OSM   H12S11739   0.304   3.033   9.145  0.1012  0.7935  2.2403
  113OSM   H12T11740   0.480   2.989   9.105 -0.5260 -0.8998 -0.2525
  113OSM   C13S11741   0.408   3.164   9.002 -0.2081 -0.4642 -0.9285
  113OSM   H13S11742   0.513   3.161   8.967  0.4598  0.6515  0.8807
  113OSM   H13T11743   0.395   3.270   9.032 -3.6988 -0.8276 -0.7107
  113OSM   C14S11744   0.307   3.120   8.894 -0.3909  0.1316 -0.6300
  113OSM   H14S11745   0.307   3.188   8.806 -0.9555  0.8954 -0.0515
  113OSM   H14T11746   0.209   3.146   8.940 -0.0706  0.4538 -0.1216
  113OSM   C15S11747   0.315   2.972   8.861  0.4316  0.4653 -0.2088
  113OSM   H15S11748   0.306   2.910   8.954 -1.2549  1.7466  0.5393
  113OSM   H15T11749   0.414   2.953   8.814 -0.6031  0.4255 -2.4849
  113OSM   C16S11750   0.212   2.925   8.760 -0.1593 -0.1444 -0.3432
  113OSM   H16S11751   0.115   2.976   8.779 -1.2763 -1.6876 -1.6528
  113OSM   H16T11752   0.193   2.817   8.774 -1.7945  0.1048 -0.4230
  113OSM   C17S11753   0.247   2.947   8.621 -0.2336  0.0044 -0.4637
  113OSM   H17S11754   0.338   2.891   8.592  0.8111  2.2814 -1.8835
  113OSM   H17T11755   0.273   3.055   8.613  1.2185 -0.4609 -3.1499
  113OSM   C18S11756   0.141   2.904   8.519  0.2145  0.6111 -0.7115
  113OSM   H18S11757   0.168   2.948   8.421  0.9666  2.8536  0.4535
  113OSM   H18T11758   0.047   2.961   8.534  1.9887  3.3010  1.1417
  113OSM   H18U11759   0.114   2.796   8.512  1.2247  0.3799 -1.1455
  113OSM    C1F11760   0.743   2.764  10.164  0.0222  0.1578  0.1025
  113OSM     OF11761   0.681   2.679  10.232  0.1413  0.1564 -0.4606
  113OSM    C2F11762   0.857   2.730  10.072  1.3900 -0.0071 -0.7900
  113OSM    H2F11763   0.939   2.799  10.102 -1.0538  1.8226  2.2945
  113OSM    H2G11764   0.830   2.748   9.966  0.1357  0.3919 -0.4123
  113OSM    C3F11765   0.913   2.590  10.098 -0.5497 -0.4944  0.1379
  113OSM    H3F11766   0.842   2.515  10.059  0.2535 -0.2829 -1.8587
  113OSM    H3G11767   0.922   2.568  10.207  1.9537 -1.1237 -0.1175
  113OSM    C4F11768   1.045   2.574  10.026  0.9032 -0.0172  0.6717
  113OSM    H4F11769   1.091   2.484  10.072 -0.1451 -1.8042 -1.6251
  113OSM    H4G11770   1.121   2.651  10.051  1.1700  0.0772 -0.3843
  113OSM    C5F11771   1.034   2.561   9.870  0.7922  0.5612  0.2655
  113OSM    H5F11772   1.131   2.588   9.824  1.6239 -1.9637  0.4011
  113OSM    H5G11773   0.967   2.638   9.826 -0.2347 -0.8820 -0.7670
  113OSM    C6F11774   0.978   2.421   9.825 -0.0867  0.3034  0.1829
  113OSM    H6F11775   0.891   2.394   9.888 -1.8424  2.6259 -1.0769
  113OSM    H6G11776   1.052   2.340   9.838  0.0226  0.5414  1.1120
  113OSM    C7F11777   0.932   2.414   9.682  0.2710 -1.0094 -0.1510
  113OSM    H7F11778   1.004   2.461   9.611  1.3461 -0.3955  1.2999
  113OSM    H7G11779   0.850   2.489   9.683  0.4552 -0.7697 -1.3450
  113OSM    C8F11780   0.884   2.273   9.639  0.3781 -0.0440 -0.2340
  113OSM    H8F11781   0.816   2.225   9.712 -1.9065  0.7518 -1.7495
  113OSM    H8G11782   0.977   2.211   9.641 -0.3599 -1.2037 -0.9145
  113OSM    C9F11783   0.802   2.264   9.514 -0.0551  0.3721  0.1389
  113OSM    H9F11784   0.702   2.311   9.520 -0.3040 -0.0997 -0.3050
  113OSM   C10F11785   0.839   2.194   9.407 -0.2012 -0.0375  0.7034
  113OSM   H10F11786   0.767   2.164   9.330  1.6428 -2.4732 -0.1798
  113OSM   C11F11787   0.955   2.100   9.381 -0.3753  1.0296  0.3420
  113OSM   H11F11788   0.928   1.993   9.375  3.1987  0.0271 -0.2797
  113OSM   H11G11789   1.021   2.105   9.470  2.2013  0.5045 -1.4221
  113OSM   C12F11790   1.034   2.123   9.251  0.0475 -0.4969 -0.2912
  113OSM   H12F11791   1.120   2.053   9.261  0.1100 -0.3409  0.2652
  113OSM   H12G11792   1.072   2.227   9.251  0.5023 -0.6535 -1.1441
  113OSM   C13F11793   0.955   2.101   9.127  0.0523  0.0519  0.5962
  113OSM   H13F11794   0.888   2.189   9.109  0.2185 -0.4431 -3.3826
  113OSM   H13G11795   0.885   2.015   9.131 -1.9590  1.6442  2.7621
  113OSM   C14F11796   1.051   2.103   8.999 -0.3779  0.2593  0.1847
  113OSM   H14F11797   1.125   2.182   9.027 -0.4492  0.1479  0.7039
  113OSM   H14G11798   0.988   2.127   8.912 -1.3437 -3.1599 -0.1968
  113OSM   C15F11799   1.117   1.965   8.965 -0.1999  0.4974  0.6784
  113OSM   H15F11800   1.038   1.888   8.951 -0.9782  1.8315 -4.1006
  113OSM   H15G11801   1.191   1.933   9.041  0.5073 -1.0658 -0.6055
  113OSM   C16F11802   1.184   1.959   8.823 -0.5681  0.8389  0.2423
  113OSM   H16F11803   1.109   1.984   8.744 -0.5183  0.0015 -0.0847
  113OSM   H16G11804   1.223   1.855   8.820 -1.3032  0.4162  2.6220
  113OSM   C17F11805   1.301   2.063   8.809 -0.0208 -0.5750  0.1931
  113OSM   H17F11806   1.267   2.168   8.819 -1.2416 -0.8104 -1.2512
  113OSM   H17G11807   1.345   2.050   8.708  2.9837  0.0768  1.3221
  113OSM   C18F11808   1.410   2.040   8.913  0.5711 -0.1761  0.5433
  113OSM   H18F11809   1.502   2.095   8.882  1.4583 -0.8005  1.9496
  113OSM   H18G11810   1.428   1.931   8.926 -0.8562 -0.5111 -0.1449
  113OSM   H18H11811   1.383   2.094   9.006 -0.5068  1.6301 -0.7561
  114OSM      N11812   0.277   3.062  11.127 -0.3890  0.5482 -0.4457
  114OSM    C1511813   0.386   2.951  11.090 -0.1130 -0.2997 -0.0075
  114OSM   H15A11814   0.485   2.991  11.080  0.5099 -1.6922  0.3707
  114OSM   H15B11815   0.361   2.908  10.994 -0.8490  0.2323 -0.0689
  114OSM   H15C11816   0.390   2.885  11.175  0.3104  1.6259  1.5633
  114OSM    C1411817   0.328   3.140  11.247 -0.1160  0.4481  0.6753
  114OSM   H14A11818   0.322   3.071  11.330 -0.9260 -0.7979 -0.3730
  114OSM   H14B11819   0.264   3.221  11.279  0.6562 -0.1923  4.3277
  114OSM   H14C11820   0.429   3.175  11.233 -0.5258  1.2951 -0.2816
  114OSM    C1311821   0.253   3.152  11.016  0.3472 -0.2901 -0.4456
  114OSM   H13A11822   0.189   3.234  11.044  1.5819 -0.2426  2.5586
  114OSM   H13B11823   0.199   3.098  10.939 -2.4508 -0.8549  1.7602
  114OSM   H13C11824   0.341   3.190  10.967 -0.5170  1.1167 -0.9672
  114OSM    C1211825   0.143   2.998  11.162  0.1147  0.3686 -0.2766
  114OSM   H12A11826   0.075   3.082  11.173  0.3577  0.3930  1.3007
  114OSM   H12B11827   0.145   2.956  11.261 -1.7261 -0.6127 -0.6184
  114OSM    C1111828   0.075   2.908  11.057  0.1980  0.7436 -0.3402
  114OSM   H11A11829  -0.001   2.861  11.123  0.3540  2.6108  1.2641
  114OSM   H11B11830   0.135   2.821  11.025 -1.3953 -0.2950 -0.5819
  114OSM      P11831  -0.118   3.032  10.948 -0.2183  0.0255  0.3601
  114OSM    O1311832  -0.212   2.958  11.037  0.2256 -0.2712 -0.4060
  114OSM    O1411833  -0.090   3.177  10.969  0.1856 -0.1381  0.3832
  114OSM    O1111834  -0.171   3.007  10.799 -0.3150  0.5260 -0.1476
  114OSM    O1211835   0.023   2.961  10.939  0.3268 -0.1721  0.0659
  114OSM    C1S11836  -0.081   2.969  10.695  0.2755  0.0918  0.0250
  114OSM    H1S11837  -0.056   2.864  10.721 -0.9071  0.3316  2.4043
  114OSM    H1T11838   0.006   3.032  10.665  1.1348 -2.3565 -3.2251
  114OSM     NF11839  -0.088   2.942  10.447 -0.1144  0.2141 -0.0140
  114OSM    HNF11840  -0.037   3.018  10.408  1.0715 -0.2477  0.5869
  114OSM    C2S11841  -0.166   2.974  10.563  0.5753  0.4973  0.2826
  114OSM    H2S11842  -0.246   2.898  10.578  1.2275  0.0302  1.5755
  114OSM    C3S11843  -0.234   3.112  10.528  0.4547  0.0612 -0.6994
  114OSM    H3S11844  -0.154   3.184  10.503 -1.5710  1.9058 -2.2717
  114OSM     O311845  -0.298   3.169  10.641  0.5748  0.2452  0.0430
  114OSM    HO311846  -0.275   3.106  10.710 -1.7205 -0.0923  0.5553
  114OSM    C4S11847  -0.331   3.100  10.411 -0.8259 -0.2573 -0.0347
  114OSM    H4S11848  -0.296   3.157  10.324  0.7816 -2.2837 -0.8010
  114OSM    C5S11849  -0.452   3.045  10.398  0.2516 -0.0624  0.2213
  114OSM    H5S11850  -0.496   2.989  10.481  0.3867 -0.7378 -0.1605
  114OSM    C6S11851  -0.536   3.041  10.279  0.3608 -0.3349  0.3637
  114OSM    H6S11852  -0.618   3.116  10.285 -1.3491 -2.1470  0.4818
  114OSM    H6T11853  -0.579   2.940  10.265  1.4057 -0.7485  0.0280
  114OSM    C7S11854  -0.468   3.073  10.144 -0.0036 -0.5447  0.5521
  114OSM    H7S11855  -0.386   3.002  10.120  0.6202  0.1133  0.6947
  114OSM    H7T11856  -0.426   3.176  10.152 -0.9974 -0.0771 -0.0911
  114OSM    C8S11857  -0.570   3.091  10.033  0.5726  0.1898 -0.4441
  114OSM    H8S11858  -0.653   3.154  10.071 -0.7116 -1.9974  0.6468
  114OSM    H8T11859  -0.609   2.991  10.004  0.5438  0.3319 -0.8930
  114OSM    C9S11860  -0.516   3.164   9.911 -0.1789  0.3304  0.0558
  114OSM    H9S11861  -0.487   3.262   9.957  1.1515 -0.2101  0.4307
  114OSM    H9T11862  -0.594   3.192   9.836  0.0101 -1.5696 -0.9181
  114OSM   C10S11863  -0.400   3.097   9.832  0.4087  0.4554  0.5707
  114OSM   H10S11864  -0.442   2.996   9.814  0.6203  0.4722 -0.0226
  114OSM   H10T11865  -0.325   3.096   9.915  1.2889 -0.6179 -0.2092
  114OSM   C11S11866  -0.342   3.164   9.703 -0.1397 -0.0434 -0.1412
  114OSM   H11S11867  -0.247   3.111   9.680 -1.2345 -2.0612 -0.2617
  114OSM   H11T11868  -0.344   3.272   9.725 -1.4263 -0.0580 -0.1347
  114OSM   C12S11869  -0.430   3.147   9.582 -1.0611  0.3362 -0.0271
  114OSM   H12S11870  -0.407   3.226   9.508 -0.4646 -0.3713 -0.6072
  114OSM   H12T11871  -0.540   3.145   9.601 -0.8445 -0.0936  1.3028
  114OSM   C13S11872  -0.404   3.012   9.518 -0.2756  0.4404  0.1966
  114OSM   H13S11873  -0.500   2.960   9.496 -0.3428  0.2659  0.8826
  114OSM   H13T11874  -0.368   2.951   9.604  0.2534  1.2141  0.5316
  114OSM   C14S11875  -0.304   3.022   9.405 -0.9684  0.2084 -0.6958
  114OSM   H14S11876  -0.209   3.045   9.457 -1.1546  0.4337 -0.4513
  114OSM   H14T11877  -0.324   3.092   9.322 -1.5385  0.4365 -0.3732
  114OSM   C15S11878  -0.282   2.880   9.339  0.3933 -0.1983  0.4305
  114OSM   H15S11879  -0.382   2.837   9.319  1.2101 -3.0708  1.8819
  114OSM   H15T11880  -0.234   2.804   9.405 -0.2683 -2.0372 -1.1065
  114OSM   C16S11881  -0.211   2.884   9.203 -0.0547 -0.6177 -0.5988
  114OSM   H16S11882  -0.282   2.939   9.138 -0.5794 -2.0425 -1.2777
  114OSM   H16T11883  -0.193   2.780   9.166 -0.5480  0.0191 -2.8181
  114OSM   C17S11884  -0.074   2.957   9.226  0.7411  0.0125  0.1733
  114OSM   H17S11885  -0.018   2.932   9.318  0.5936 -0.4764  0.1347
  114OSM   H17T11886  -0.099   3.063   9.247  0.2525  0.4558 -2.2982
  114OSM   C18S11887   0.025   2.963   9.112 -0.7935  0.4951 -0.2198
  114OSM   H18S11888  -0.021   3.001   9.018  1.6332 -0.3424 -1.8449
  114OSM   H18T11889   0.069   2.864   9.090 -2.2470 -0.3637  0.5663
  114OSM   H18U11890   0.108   3.025   9.152 -1.2102  0.3337  0.9515
  114OSM    C1F11891  -0.037   2.822  10.439  0.1790 -0.0348 -0.9097
  114OSM     OF11892  -0.063   2.733  10.522 -0.5028 -0.1043  0.5544
  114OSM    C2F11893   0.059   2.800  10.333  0.1384  0.5867  0.9416
  114OSM    H2F11894   0.109   2.893  10.300  0.9959 -0.3006 -0.3811
  114OSM    H2G11895   0.001   2.762  10.246  2.8521 -1.3812 -0.1374
  114OSM    C3F11896   0.175   2.713  10.382 -0.8299  0.1787 -0.3927
  114OSM    H3F11897   0.140   2.612  10.411  1.0031 -1.0320 -2.0880
  114OSM    H3G11898   0.225   2.758  10.471 -0.5779 -0.4991 -0.1880
  114OSM    C4F11899   0.279   2.677  10.275  0.4303 -0.1334  0.0597
  114OSM    H4F11900   0.361   2.612  10.315  0.7649  0.3549  0.1844
  114OSM    H4G11901   0.346   2.754  10.232  4.4222 -3.1894  0.2008
  114OSM    C5F11902   0.217   2.600  10.159  0.4644 -0.3270  0.5992
  114OSM    H5F11903   0.135   2.648  10.102 -1.9424 -3.5233  1.0962
  114OSM    H5G11904   0.164   2.517  10.211 -1.0539  0.5680  0.5391
  114OSM    C6F11905   0.308   2.547  10.047  0.1317 -0.2070 -0.1283
  114OSM    H6F11906   0.242   2.495   9.975 -0.1765  0.4836 -0.3554
  114OSM    H6G11907   0.391   2.487  10.090  0.0181  1.4922  2.7174
  114OSM    C7F11908   0.392   2.664   9.978  0.2283  0.5636 -0.8839
  114OSM    H7F11909   0.436   2.740  10.046  1.5782 -0.8070 -0.1825
  114OSM    H7G11910   0.324   2.723   9.913 -0.3793  2.3671  1.2772
  114OSM    C8F11911   0.510   2.605   9.896  1.2810  0.9331 -0.4769
  114OSM    H8F11912   0.461   2.537   9.823  1.4978 -1.0897  1.1939
  114OSM    H8G11913   0.583   2.553   9.961  1.6581  0.7849 -1.0166
  114OSM    C9F11914   0.587   2.715   9.840 -0.4293  0.4136  0.2862
  114OSM    H9F11915   0.643   2.766   9.920 -0.3605 -1.5299  1.5382
  114OSM   C10F11916   0.584   2.751   9.712  0.1595  0.1954  0.2956
  114OSM   H10F11917   0.636   2.843   9.682  0.3401 -0.9395 -3.3456
  114OSM   C11F11918   0.522   2.684   9.591  0.7868 -0.6713 -0.0956
  114OSM   H11F11919   0.445   2.753   9.551  0.0231 -1.0027  0.7597
  114OSM   H11G11920   0.468   2.590   9.616 -1.3564 -0.0125 -1.8316
  114OSM   C12F11921   0.627   2.650   9.482  0.5188 -0.5612  0.1222
  114OSM   H12F11922   0.564   2.600   9.405  0.2006  0.9650 -0.6472
  114OSM   H12G11923   0.681   2.569   9.537 -0.5980 -1.6205 -0.2947
  114OSM   C13F11924   0.706   2.765   9.419 -0.0467 -0.0689 -0.3065
  114OSM   H13F11925   0.777   2.804   9.494  0.5234 -2.1416  0.2882
  114OSM   H13G11926   0.630   2.840   9.387  1.4110  1.0652 -1.2253
  114OSM   C14F11927   0.803   2.737   9.300 -0.4755  0.1366 -0.3165
  114OSM   H14F11928   0.891   2.687   9.346 -1.4599 -1.5763 -0.2180
  114OSM   H14G11929   0.844   2.834   9.264  0.7049 -0.1477  0.2000
  114OSM   C15F11930   0.754   2.642   9.188  0.6060  0.3434  0.3157
  114OSM   H15F11931   0.666   2.675   9.129 -0.0009  0.0803  1.0681
  114OSM   H15G11932   0.718   2.546   9.230 -3.0304  2.0129  1.4125
  114OSM   C16F11933   0.871   2.614   9.097  0.0744 -0.4531 -0.1274
  114OSM   H16F11934   0.947   2.556   9.154 -0.2164 -0.3452  0.3751
  114OSM   H16G11935   0.897   2.713   9.055 -0.6861 -0.9463 -1.8394
  114OSM   C17F11936   0.839   2.528   8.972 -0.5815 -0.0422  0.0321
  114OSM   H17F11937   0.766   2.579   8.905  0.6931  1.3697 -0.3260
  114OSM   H17G11938   0.772   2.446   9.005  1.4084 -0.4102  3.7003
  114OSM   C18F11939   0.957   2.464   8.896 -0.9126  0.4439 -0.3098
  114OSM   H18F11940   0.931   2.373   8.838  1.9074 -1.1236  0.6710
  114OSM   H18G11941   1.029   2.415   8.966 -1.2974 -2.6379 -1.8922
  114OSM   H18H11942   1.011   2.538   8.833 -1.3587 -0.5644 -1.9324
  115OSM      N11943   1.766   5.253   5.902 -0.0924  0.0868  0.2686
  115OSM    C1511944   1.713   5.146   5.996  0.1377  0.0857  0.1186
  115OSM   H15A11945   1.714   5.199   6.090 -0.1337 -0.7088  0.5756
  115OSM   H15B11946   1.786   5.066   6.001  0.5961  0.2903 -2.1016
  115OSM   H15C11947   1.616   5.106   5.974  0.0145  1.4907 -2.2801
  115OSM    C1411948   1.796   5.186   5.767  0.5971 -0.1209  0.2990
  115OSM   H14A11949   1.812   5.263   5.693 -0.9028  0.2330  0.3186
  115OSM   H14B11950   1.711   5.129   5.732  2.2845 -1.3142 -2.2702
  115OSM   H14C11951   1.885   5.124   5.763  0.3850 -0.3744 -0.9657
  115OSM    C1311952   1.656   5.360   5.884  0.0501 -0.2381  0.3642
  115OSM   H13A11953   1.631   5.416   5.973  0.0280  1.4975 -0.6901
  115OSM   H13B11954   1.566   5.316   5.843 -0.6046  2.2779 -1.0781
  115OSM   H13C11955   1.677   5.436   5.810 -1.6737 -1.1645 -1.1606
  115OSM    C1211956   1.895   5.313   5.953 -0.0298  0.2899  0.7709
  115OSM   H12A11957   1.926   5.386   5.880 -1.6252 -1.7710 -2.1438
  115OSM   H12B11958   1.973   5.239   5.959 -0.5996 -0.6433 -2.1406
  115OSM    C1111959   1.888   5.389   6.090  0.1444  0.1073 -0.3366
  115OSM   H11A11960   1.993   5.412   6.120  0.8666 -1.2142 -1.7046
  115OSM   H11B11961   1.852   5.308   6.156  0.2397 -0.4196 -0.9159
  115OSM      P11962   1.685   5.543   6.182  0.1874 -0.2331 -0.0899
  115OSM    O1311963   1.703   5.688   6.203  0.3467  0.4207 -0.5604
  115OSM    O1411964   1.551   5.501   6.128 -0.0096  0.6851  0.2808
  115OSM    O1111965   1.721   5.477   6.323  0.4360  0.6965 -0.5334
  115OSM    O1211966   1.797   5.503   6.085 -0.1725 -0.4245  0.3179
  115OSM    C1S11967   1.851   5.506   6.379 -0.2927  0.2913 -0.5374
  115OSM    H1S11968   1.903   5.584   6.320 -1.6623  1.3118 -0.4412
  115OSM    H1T11969   1.911   5.413   6.369  0.2518  0.3675  1.5993
  115OSM     NF11970   1.976   5.603   6.564  0.1856 -0.4266 -0.4790
  115OSM    HNF11971   2.019   5.553   6.638 -0.2630  1.7311  1.3291
  115OSM    C2S11972   1.848   5.555   6.527 -0.4427  0.7443  0.2485
  115OSM    H2S11973   1.766   5.629   6.520 -2.7835 -1.7834 -1.5608
  115OSM    C3S11974   1.807   5.428   6.626 -0.1862 -0.4727  0.7059
  115OSM    H3S11975   1.898   5.366   6.643 -0.2985 -0.3402  1.9092
  115OSM     O311976   1.710   5.343   6.570  0.3480  0.1727  0.8116
  115OSM    HO311977   1.682   5.401   6.499 -1.8481 -0.5803  0.9720
  115OSM    C4S11978   1.772   5.482   6.761  0.3027 -0.4613  0.0759
  115OSM    H4S11979   1.861   5.488   6.827  0.7051 -3.1303 -0.1379
  115OSM    C5S11980   1.654   5.528   6.810 -0.1261  0.6248  0.4355
  115OSM    H5S11981   1.563   5.516   6.750  1.5591  0.9597 -2.3371
  115OSM    C6S11982   1.639   5.556   6.957  0.2439 -0.7819  0.9332
  115OSM    H6S11983   1.572   5.645   6.962  0.9267 -0.1330 -0.6991
  115OSM    H6T11984   1.735   5.573   7.009 -0.2500  1.9201  1.1130
  115OSM    C7S11985   1.562   5.449   7.026 -0.2282 -0.3925  0.4306
  115OSM    H7S11986   1.453   5.439   7.007 -0.4137  1.1308  0.6128
  115OSM    H7T11987   1.569   5.457   7.137 -0.9806 -0.1017  0.4634
  115OSM    C8S11988   1.620   5.300   7.006 -0.1833 -0.7534 -1.0489
  115OSM    H8S11989   1.731   5.299   6.997 -0.0234 -0.0253  0.4862
  115OSM    H8T11990   1.580   5.255   6.913 -1.6764  0.5776 -1.0891
  115OSM    C9S11991   1.595   5.204   7.128  0.0152 -0.4604  0.7000
  115OSM    H9S11992   1.485   5.195   7.130 -0.2171  0.3497 -2.7859
  115OSM    H9T11993   1.635   5.251   7.220  1.7476  0.1091 -0.2902
  115OSM   C10S11994   1.655   5.067   7.104  1.0593 -0.0295  0.4225
  115OSM   H10S11995   1.765   5.082   7.093  0.6240  2.7633 -1.2869
  115OSM   H10T11996   1.625   5.026   7.005 -0.6583 -1.7415  1.5818
  115OSM   C11S11997   1.654   4.967   7.224 -0.4233 -0.1411 -0.1212
  115OSM   H11S11998   1.669   5.025   7.318 -1.5065 -0.2746  0.1581
  115OSM   H11T11999   1.736   4.892   7.222  0.2261  0.5758 -0.5314
  115OSM   C12S12000   1.513   4.901   7.240  0.1839 -0.2727 -0.0602
  115OSM   H12S12001   1.493   4.836   7.152  1.7207 -0.2829 -0.4254
  115OSM   H12T12002   1.445   4.989   7.243 -0.0125 -0.4452  1.2008
  115OSM   C13S12003   1.496   4.826   7.371 -0.3687  0.2236  0.8826
  115OSM   H13S12004   1.575   4.747   7.377  0.1657  0.6420 -0.3575
  115OSM   H13T12005   1.397   4.777   7.381 -0.9605  1.0888 -0.4175
  115OSM   C14S12006   1.498   4.919   7.496  0.2829 -0.1386  0.0162
  115OSM   H14S12007   1.455   5.017   7.465  0.5925 -0.2548 -0.7960
  115OSM   H14T12008   1.602   4.956   7.512  0.6932  0.7854 -3.8605
  115OSM   C15S12009   1.442   4.874   7.629  0.3384  0.4164 -0.2172
  115OSM   H15S12010   1.513   4.797   7.667  2.7794  0.7929 -3.6321
  115OSM   H15T12011   1.349   4.820   7.601  1.3958 -0.8157 -1.5202
  115OSM   C16S12012   1.407   4.989   7.719 -0.0180 -0.4178  0.0938
  115OSM   H16S12013   1.342   5.058   7.660  2.8968  2.4429 -0.0540
  115OSM   H16T12014   1.494   5.050   7.753 -0.3709  1.0950 -1.5402
  115OSM   C17S12015   1.348   4.938   7.844  0.2644  0.1651 -0.4151
  115OSM   H17S12016   1.418   4.871   7.898  0.0036 -0.0164 -0.2994
  115OSM   H17T12017   1.259   4.874   7.825  0.0609 -0.1343  1.3283
  115OSM   C18S12018   1.326   5.047   7.945  0.8504 -0.1263 -0.1956
  115OSM   H18S12019   1.423   5.086   7.985  0.1887 -0.1885  1.5834
  115OSM   H18T12020   1.278   5.004   8.035  2.3893 -1.3191  0.1031
  115OSM   H18U12021   1.267   5.126   7.894 -1.0288 -1.7667 -0.6457
  115OSM    C1F12022   2.018   5.724   6.529  0.2075  0.2125  0.4736
  115OSM     OF12023   1.965   5.781   6.434  0.5040  0.0292 -0.2436
  115OSM    C2F12024   2.121   5.789   6.621 -0.1454 -0.5266 -1.1140
  115OSM    H2F12025   2.223   5.778   6.578  0.7022 -0.7731  0.8520
  115OSM    H2G12026   2.113   5.746   6.723 -1.7063  1.0034 -0.5273
  115OSM    C3F12027   2.090   5.945   6.629 -0.1518  0.0199  0.1842
  115OSM    H3F12028   1.988   5.955   6.673  0.4350 -1.2688  1.9475
  115OSM    H3G12029   2.094   5.976   6.522  0.3673 -0.8797 -0.0587
  115OSM    C4F12030   2.193   6.028   6.713  0.1221  0.5372  0.7906
  115OSM    H4F12031   2.154   6.132   6.708  2.9875  1.6487 -2.4485
  115OSM    H4G12032   2.290   6.040   6.662 -0.2230 -0.5921 -0.1672
  115OSM    C5F12033   2.206   5.975   6.858  0.2930  0.3019 -0.2263
  115OSM    H5F12034   2.255   5.875   6.851 -1.1576 -0.5627  0.9898
  115OSM    H5G12035   2.104   5.957   6.899  0.7132 -1.8336  0.0004
  115OSM    C6F12036   2.284   6.073   6.945 -0.0180  0.0707  0.3547
  115OSM    H6F12037   2.251   6.179   6.934  2.6510  0.7694 -2.6206
  115OSM    H6G12038   2.391   6.078   6.918  0.1423  0.6108  1.0554
  115OSM    C7F12039   2.273   6.041   7.097  1.3120  0.1715  0.4152
  115OSM    H7F12040   2.165   6.021   7.113  0.9473  0.5369 -1.3135
  115OSM    H7G12041   2.301   6.132   7.154  2.9914 -0.4675  0.6658
  115OSM    C8F12042   2.350   5.915   7.142 -0.6565 -0.4917 -0.9460
  115OSM    H8F12043   2.312   5.824   7.090 -0.0246 -0.8363 -0.8083
  115OSM    H8G12044   2.315   5.899   7.246 -0.6446  0.3576 -0.8064
  115OSM    C9F12045   2.500   5.927   7.125 -0.2409  0.0643  0.0320
  115OSM    H9F12046   2.549   5.874   7.041 -1.2866 -0.5803 -0.1825
  115OSM   C10F12047   2.584   5.984   7.211 -0.0895  0.1880 -0.0381
  115OSM   H10F12048   2.693   5.972   7.198  0.2106 -0.3134  2.4599
  115OSM   C11F12049   2.546   6.055   7.335  0.1002  0.1515  0.0028
  115OSM   H11F12050   2.442   6.031   7.366 -0.0345 -1.0151 -1.2407
  115OSM   H11G12051   2.539   6.164   7.317 -0.2751  0.3966  1.4932
  115OSM   C12F12052   2.635   6.024   7.456 -0.5665  0.0977 -0.2142
  115OSM   H12F12053   2.744   6.018   7.434 -0.7261 -0.3750 -0.9055
  115OSM   H12G12054   2.608   5.920   7.485 -1.1660  0.1453 -0.6061
  115OSM   C13F12055   2.608   6.115   7.576 -0.2882 -0.2151 -0.8105
  115OSM   H13F12056   2.499   6.134   7.587 -0.4206 -1.0641 -0.6176
  115OSM   H13G12057   2.659   6.210   7.549  0.2784  0.2242  1.6028
  115OSM   C14F12058   2.676   6.061   7.700 -0.1999  0.2693 -0.0289
  115OSM   H14F12059   2.670   6.123   7.792 -0.7338  1.0878 -0.6040
  115OSM   H14G12060   2.783   6.036   7.681 -0.5343 -2.7411  1.4005
  115OSM   C15F12061   2.622   5.922   7.757  0.4132 -0.1642  0.5132
  115OSM   H15F12062   2.635   5.841   7.681 -0.6130 -1.3907  1.5842
  115OSM   H15G12063   2.513   5.940   7.766  0.3250  0.9602 -1.9369
  115OSM   C16F12064   2.666   5.877   7.892 -0.5572 -0.8273 -0.2440
  115OSM   H16F12065   2.610   5.784   7.918 -1.1320 -0.3540  0.2444
  115OSM   H16G12066   2.636   5.959   7.960 -1.4357 -0.0896 -1.4775
  115OSM   C17F12067   2.823   5.857   7.895 -0.2041  0.3497 -0.8461
  115OSM   H17F12068   2.874   5.955   7.882  0.6528  0.2347  1.2368
  115OSM   H17G12069   2.835   5.800   7.801 -0.8692 -0.2485 -0.5857
  115OSM   C18F12070   2.867   5.776   8.020 -0.2790  0.9770  0.6293
  115OSM   H18F12071   2.839   5.829   8.114 -0.3644  2.4946 -0.2165
  115OSM   H18G12072   2.976   5.760   8.027 -0.0450  2.1602 -0.0189
  115OSM   H18H12073   2.813   5.680   8.032 -0.5734  0.6998 -2.3220
  116OSM      N12074   0.055   4.060   5.631  0.7869  0.0243  0.1222
  116OSM    C1512075  -0.036   3.963   5.568 -0.2885  0.2136  0.7192
  116OSM   H15A12076  -0.083   4.014   5.485  1.7547 -0.8760 -1.2079
  116OSM   H15B12077  -0.107   3.920   5.638  0.4855 -0.2070  1.2716
  116OSM   H15C12078   0.019   3.880   5.525 -2.0646  1.2696 -4.1855
  116OSM    C1412079   0.151   4.105   5.529 -1.1317  0.2674  0.4472
  116OSM   H14A12080   0.227   4.034   5.499 -0.7995  0.8961 -0.2188
  116OSM   H14B12081   0.206   4.194   5.551  0.1316 -0.7546  1.5599
  116OSM   H14C12082   0.086   4.117   5.443  0.5057  0.1838 -0.8614
  116OSM    C1312083  -0.007   4.184   5.680  0.1576 -0.3322 -0.3800
  116OSM   H13A12084  -0.088   4.161   5.748  0.6897 -1.8932 -0.2281
  116OSM   H13B12085  -0.041   4.257   5.608  1.3985  0.2554 -0.4078
  116OSM   H13C12086   0.072   4.236   5.731 -0.5553 -1.1870  1.7072
  116OSM    C1212087   0.125   3.981   5.749 -0.6224  0.1213  0.9055
  116OSM   H12A12088   0.195   4.051   5.792 -2.6915  0.8973  3.2521
  116OSM   H12B12089   0.185   3.907   5.698  1.3282  2.0413  0.2779
  116OSM    C1112090   0.033   3.909   5.854 -0.4263  0.0790 -0.2166
  116OSM   H11A12091   0.098   3.859   5.930 -2.2334 -0.1752  1.2345
  116OSM   H11B12092  -0.013   3.827   5.796  2.0883 -0.7212 -1.2198
  116OSM      P12093  -0.208   3.979   5.925  0.2014  0.1307 -0.7432
  116OSM    O1312094  -0.265   4.059   5.812  0.1423 -0.2186 -0.9404
  116OSM    O1412095  -0.230   3.832   5.938  0.1810  0.0576  0.6864
  116OSM    O1112096  -0.251   4.055   6.066  0.4263 -0.3877  0.1408
  116OSM    O1212097  -0.056   4.001   5.921 -0.0927  0.4513  0.3395
  116OSM    C1S12098  -0.186   3.984   6.180  0.3645 -0.7102  0.4988
  116OSM    H1S12099  -0.092   3.932   6.153  0.4402  0.0135 -0.6983
  116OSM    H1T12100  -0.256   3.903   6.209 -0.3144 -0.9245 -1.5213
  116OSM     NF12101  -0.084   4.003   6.399  0.5347 -0.5424 -0.1415
  116OSM    HNF12102  -0.126   3.993   6.489 -0.9397 -1.9565 -0.9322
  116OSM    C2S12103  -0.153   4.082   6.300  0.1399 -0.3857  0.1167
  116OSM    H2S12104  -0.085   4.164   6.268 -0.1783 -0.2344 -0.1856
  116OSM    C3S12105  -0.278   4.161   6.342 -0.2143 -0.1196 -0.1385
  116OSM    H3S12106  -0.350   4.086   6.382  2.1389 -1.2108  2.3430
  116OSM     O312107  -0.343   4.220   6.232  0.2480 -0.0088 -0.4808
  116OSM    HO312108  -0.322   4.159   6.161 -0.7390 -0.2761 -0.5524
  116OSM    C4S12109  -0.241   4.255   6.456 -0.1198 -0.0370  0.0582
  116OSM    H4S12110  -0.241   4.204   6.553  0.7719 -0.7220 -0.2836
  116OSM    C5S12111  -0.205   4.387   6.456 -0.5405  0.3703  0.0018
  116OSM    H5S12112  -0.202   4.449   6.365  0.5674  1.3075  0.6405
  116OSM    C6S12113  -0.168   4.460   6.583 -0.2868 -0.3769 -0.5859
  116OSM    H6S12114  -0.247   4.537   6.594  0.2858  0.1788 -0.2978
  116OSM    H6T12115  -0.069   4.510   6.578 -0.3842 -0.1986 -0.6924
  116OSM    C7S12116  -0.167   4.381   6.716  0.0332  0.2443  0.1276
  116OSM    H7S12117  -0.100   4.292   6.707 -3.1003 -2.1145 -2.2234
  116OSM    H7T12118  -0.260   4.322   6.730  0.3798  0.0928  2.0743
  116OSM    C8S12119  -0.157   4.465   6.846  0.3647 -0.2255 -0.2932
  116OSM    H8S12120  -0.226   4.552   6.856 -2.2983 -2.2894  0.5368
  116OSM    H8T12121  -0.058   4.515   6.838 -0.0585  0.3131 -4.0975
  116OSM    C9S12122  -0.178   4.374   6.971  0.1559  0.4181 -0.3735
  116OSM    H9S12123  -0.120   4.280   6.959 -1.4074 -0.7864  1.1501
  116OSM    H9T12124  -0.285   4.344   6.977 -0.4470  2.5937  1.1410
  116OSM   C10S12125  -0.142   4.450   7.100  0.5056  0.0188 -0.5653
  116OSM   H10S12126  -0.208   4.540   7.107  0.0699 -0.2841 -0.7325
  116OSM   H10T12127  -0.041   4.491   7.082  0.6543  0.0665  0.3681
  116OSM   C11S12128  -0.152   4.371   7.228  0.1445  0.2365  0.0776
  116OSM   H11S12129  -0.114   4.267   7.215  0.1917  0.0541  1.5272
  116OSM   H11T12130  -0.261   4.372   7.245  0.1445 -0.4016  0.1312
  116OSM   C12S12131  -0.090   4.440   7.345 -0.1968  0.2576  0.5244
  116OSM   H12S12132  -0.119   4.546   7.361  0.1775  0.6065 -0.9295
  116OSM   H12T12133   0.021   4.447   7.336 -0.4041  1.5104 -1.6231
  116OSM   C13S12134  -0.109   4.362   7.478  0.3716  0.0954 -0.5503
  116OSM   H13S12135  -0.045   4.401   7.559  0.6976 -0.0982 -0.7151
  116OSM   H13T12136  -0.072   4.257   7.479  2.1601  0.6725  1.4004
  116OSM   C14S12137  -0.251   4.366   7.518 -0.2809  0.6047  0.7050
  116OSM   H14S12138  -0.311   4.348   7.427 -0.4509 -1.3366  1.1671
  116OSM   H14T12139  -0.277   4.463   7.566  0.3359  0.7110  0.8312
  116OSM   C15S12140  -0.299   4.267   7.630  0.5338 -0.2005  0.3943
  116OSM   H15S12141  -0.309   4.169   7.579 -1.1997  0.7953 -1.3341
  116OSM   H15T12142  -0.400   4.300   7.660 -0.3718 -3.3864  1.1714
  116OSM   C16S12143  -0.209   4.275   7.747  0.4860 -0.8144  0.7624
  116OSM   H16S12144  -0.208   4.378   7.789  0.0120  0.2446 -1.6227
  116OSM   H16T12145  -0.105   4.253   7.714  1.5432  1.3242  2.3929
  116OSM   C17S12146  -0.269   4.184   7.854 -0.5766  0.0374  0.8013
  116OSM   H17S12147  -0.189   4.186   7.931 -0.4169 -0.1508  0.6396
  116OSM   H17T12148  -0.285   4.091   7.797 -0.2458  0.9911 -0.9351
  116OSM   C18S12149  -0.395   4.241   7.919  0.1714  0.6485 -0.0547
  116OSM   H18S12150  -0.468   4.267   7.839 -1.1644 -2.4808 -0.0040
  116OSM   H18T12151  -0.378   4.335   7.975 -0.9228  2.1745 -2.1224
  116OSM   H18U12152  -0.449   4.165   7.980 -0.7142 -1.8271 -3.5659
  116OSM    C1F12153   0.032   3.941   6.386 -0.7246  0.1854  0.5390
  116OSM     OF12154   0.092   3.938   6.273  0.0500 -0.4471  0.3758
  116OSM    C2F12155   0.089   3.876   6.510 -0.5852 -0.9451  0.7845
  116OSM    H2F12156   0.038   3.783   6.542  0.4990 -1.3262  1.4553
  116OSM    H2G12157   0.082   3.950   6.593  2.0129  0.8816 -0.4822
  116OSM    C3F12158   0.244   3.840   6.485  0.1216  0.3290 -0.2642
  116OSM    H3F12159   0.291   3.934   6.448 -0.3721 -0.4647 -3.0813
  116OSM    H3G12160   0.259   3.762   6.408 -0.1353  0.8601 -0.8597
  116OSM    C4F12161   0.321   3.779   6.605 -0.4323  0.8069 -0.1273
  116OSM    H4F12162   0.419   3.750   6.561  0.1941  0.2709  1.5273
  116OSM    H4G12163   0.268   3.685   6.634  0.2841  0.8643  1.4823
  116OSM    C5F12164   0.334   3.873   6.729 -0.0221 -0.7645 -0.4002
  116OSM    H5F12165   0.231   3.908   6.750  0.9904  2.0951  0.2149
  116OSM    H5G12166   0.398   3.964   6.725  0.5565 -0.9886  2.0487
  116OSM    C6F12167   0.378   3.798   6.853  0.4464  0.2645 -0.1877
  116OSM    H6F12168   0.485   3.772   6.836  0.7259  1.5502 -0.4400
  116OSM    H6G12169   0.340   3.693   6.848 -0.4346  0.6202 -1.4795
  116OSM    C7F12170   0.354   3.854   6.983  0.3011  0.1410 -0.2488
  116OSM    H7F12171   0.246   3.850   7.007  0.6637  0.5677  1.5761
  116OSM    H7G12172   0.386   3.960   6.970  2.7392 -0.3626  1.0037
  116OSM    C8F12173   0.441   3.799   7.101  0.1398  0.1533  0.8092
  116OSM    H8F12174   0.550   3.805   7.081  0.2058 -2.6985 -0.1124
  116OSM    H8G12175   0.417   3.691   7.113 -0.1374 -0.1726 -2.0147
  116OSM    C9F12176   0.409   3.874   7.226  0.1171 -0.1663  0.1847
  116OSM    H9F12177   0.407   3.983   7.212 -0.8777 -0.1889  0.0521
  116OSM   C10F12178   0.375   3.827   7.350 -0.8696  0.1408  0.4069
  116OSM   H10F12179   0.360   3.903   7.428 -3.6711  0.1059  0.0285
  116OSM   C11F12180   0.374   3.685   7.400 -0.3322 -0.2199  0.1468
  116OSM   H11F12181   0.420   3.624   7.320  0.3086 -2.3609  2.0216
  116OSM   H11G12182   0.271   3.650   7.422  0.3200 -1.2936  1.7635
  116OSM   C12F12183   0.425   3.650   7.542  0.5639  0.0538 -0.0380
  116OSM   H12F12184   0.535   3.661   7.551  0.4487 -0.1102  2.1254
  116OSM   H12G12185   0.406   3.544   7.571 -0.1300 -0.0410 -0.7765
  116OSM   C13F12186   0.367   3.732   7.651  0.0672 -0.0819 -0.2569
  116OSM   H13F12187   0.256   3.729   7.654 -0.0399  2.2477  3.1106
  116OSM   H13G12188   0.386   3.842   7.645  0.9886 -0.1475  1.2357
  116OSM   C14F12189   0.414   3.692   7.790  0.2552  0.3141  0.1310
  116OSM   H14F12190   0.388   3.779   7.855  1.5527  0.6606  0.2032
  116OSM   H14G12191   0.523   3.673   7.787  0.3087  0.2556  1.6692
  116OSM   C15F12192   0.358   3.560   7.849 -0.7803 -1.1909 -0.0657
  116OSM   H15F12193   0.410   3.476   7.799  2.4710  0.3485  0.5103
  116OSM   H15G12194   0.256   3.541   7.808 -1.4280  1.6604  0.0035
  116OSM   C16F12195   0.361   3.569   7.999 -0.3280  0.4557  0.8146
  116OSM   H16F12196   0.315   3.666   8.027 -2.2416 -0.2083  0.1073
  116OSM   H16G12197   0.466   3.577   8.036  0.0877 -0.6402 -0.0578
  116OSM   C17F12198   0.297   3.454   8.068  0.0731  0.0580  0.1310
  116OSM   H17F12199   0.367   3.373   8.036  0.8799  0.8247 -0.0802
  116OSM   H17G12200   0.191   3.432   8.042 -0.5096 -0.5495  2.6989
  116OSM   C18F12201   0.300   3.461   8.220 -0.1533  0.1814 -0.3899
  116OSM   H18F12202   0.396   3.494   8.265 -0.0679 -0.5082 -0.0487
  116OSM   H18G12203   0.256   3.368   8.261 -0.5211  1.2385  1.7353
  116OSM   H18H12204   0.225   3.538   8.247  0.9155  0.8895  0.6488
  117OSM      N12205   0.762   0.055   6.316  1.0640  0.4734 -0.1577
  117OSM    C1512206   0.879   0.100   6.240 -0.1809  0.1696  0.1537
  117OSM   H15A12207   0.960   0.129   6.306 -1.2975  0.1366  1.5917
  117OSM   H15B12208   0.858   0.175   6.165  2.2464  0.7604 -0.0298
  117OSM   H15C12209   0.917   0.012   6.190 -0.9111 -0.4240  0.6131
  117OSM    C1412210   0.652   0.016   6.220 -0.3975  0.2967 -0.1168
  117OSM   H14A12211   0.647   0.092   6.144  1.0735 -0.2282 -0.7778
  117OSM   H14B12212   0.559   0.006   6.273  0.2094 -3.4007  0.5385
  117OSM   H14C12213   0.676  -0.077   6.171  1.7832 -0.3084  1.8667
  117OSM    C1312214   0.801  -0.059   6.402  0.6061 -0.0161  0.7375
  117OSM   H13A12215   0.720  -0.081   6.471 -0.2345 -1.1345 -0.5548
  117OSM   H13B12216   0.888  -0.035   6.461 -0.1225 -0.8283  2.1926
  117OSM   H13C12217   0.832  -0.149   6.352 -0.3108  0.6247 -1.0510
  117OSM    C1212218   0.708   0.166   6.405 -0.1500  0.3941 -0.9266
  117OSM   H12A12219   0.693   0.257   6.347  2.3728  1.1214 -0.5772
  117OSM   H12B12220   0.778   0.194   6.482 -1.5629  1.4209  0.0261
  117OSM    C1112221   0.570   0.137   6.482 -0.0429  0.2589 -0.6358
  117OSM   H11A12222   0.560   0.201   6.572 -1.1117 -1.2468  0.3622
  117OSM   H11B12223   0.582   0.037   6.529 -0.8253  0.0973 -0.7698
  117OSM      P12224   0.371   0.264   6.365 -0.0813  0.0911 -0.0767
  117OSM    O1312225   0.450   0.380   6.322  0.4964 -0.1655 -0.0407
  117OSM    O1412226   0.257   0.233   6.273 -0.1250  0.5922  0.2323
  117OSM    O1112227   0.310   0.310   6.502 -0.2736 -0.1112 -0.7125
  117OSM    O1212228   0.456   0.135   6.398 -0.0038  0.3915 -0.3556
  117OSM    C1S12229   0.260   0.227   6.608  0.3102  0.0829  0.5279
  117OSM    H1S12230   0.329   0.143   6.631 -2.1161 -2.1998 -0.0536
  117OSM    H1T12231   0.166   0.182   6.570  0.7520 -0.3522 -0.0667
  117OSM     NF12232   0.219   0.207   6.863  0.2783 -0.2576  0.2464
  117OSM    HNF12233   0.151   0.208   6.937  2.3771 -0.7478  2.3034
  117OSM    C2S12234   0.220   0.298   6.748 -0.3228 -0.0596  0.1006
  117OSM    H2S12235   0.308   0.359   6.774 -0.6429  0.0377  1.0037
  117OSM    C3S12236   0.095   0.389   6.726 -0.2787  0.2931  0.0276
  117OSM    H3S12237   0.003   0.326   6.730 -0.3164  0.2283 -1.4646
  117OSM     O312238   0.093   0.460   6.605  0.0797  0.1762  0.3452
  117OSM    HO312239   0.175   0.435   6.561  0.8543  1.6161  0.9079
  117OSM    C4S12240   0.085   0.491   6.838 -0.2152  0.7343 -0.3716
  117OSM    H4S12241   0.150   0.578   6.817 -0.8347  1.4594  0.6385
  117OSM    C5S12242   0.001   0.487   6.939  0.4266  0.2291 -0.3699
  117OSM    H5S12243  -0.058   0.394   6.949  0.0468  0.1527 -2.6901
  117OSM    C6S12244  -0.012   0.583   7.051  0.2589 -0.1416  0.0257
  117OSM    H6S12245  -0.119   0.601   7.075  0.5031  1.9420 -0.2764
  117OSM    H6T12246   0.035   0.680   7.023 -0.0306  0.2057  0.7103
  117OSM    C7S12247   0.049   0.508   7.176  0.2174  0.2980 -0.0705
  117OSM    H7S12248   0.147   0.466   7.147 -0.0790 -0.9061  0.5414
  117OSM    H7T12249  -0.012   0.417   7.199  2.9475 -1.7652 -0.5376
  117OSM    C8S12250   0.071   0.585   7.301  0.6843 -0.5717 -0.6448
  117OSM    H8S12251  -0.023   0.624   7.346  1.2574 -0.2115  0.2689
  117OSM    H8T12252   0.127   0.674   7.265 -0.0957  0.2492  0.1069
  117OSM    C9S12253   0.149   0.498   7.398 -0.0122  0.7154 -0.5691
  117OSM    H9S12254   0.247   0.465   7.357 -1.3275 -0.1795 -3.1909
  117OSM    H9T12255   0.105   0.397   7.417  0.4361  0.6117 -0.0272
  117OSM   C10S12256   0.167   0.570   7.531  0.0469  0.0369  0.2207
  117OSM   H10S12257   0.184   0.678   7.509 -0.9248  0.4977  1.6014
  117OSM   H10T12258   0.251   0.537   7.595 -0.2987 -0.6740  0.3237
  117OSM   C11S12259   0.037   0.574   7.618 -0.1603  0.2385  0.7931
  117OSM   H11S12260   0.011   0.470   7.645  0.6828  0.1647  1.3421
  117OSM   H11T12261  -0.037   0.636   7.562  1.3634  2.6288  1.2491
  117OSM   C12S12262   0.068   0.648   7.754  0.2628 -0.0581  0.3337
  117OSM   H12S12263  -0.025   0.682   7.804 -1.1921 -2.3054 -0.6795
  117OSM   H12T12264   0.134   0.735   7.730 -0.2284 -0.3704 -2.5408
  117OSM   C13S12265   0.132   0.554   7.857 -0.0037 -0.0547  0.2985
  117OSM   H13S12266   0.240   0.558   7.834 -0.1193 -2.7264 -1.1750
  117OSM   H13T12267   0.087   0.456   7.829 -2.2601  1.2265 -0.9182
  117OSM   C14S12268   0.107   0.592   8.001  0.0339 -0.0264  0.2804
  117OSM   H14S12269   0.140   0.504   8.060 -3.1238  0.5280  3.1688
  117OSM   H14T12270  -0.003   0.600   8.009 -0.0640  1.2327 -1.6747
  117OSM   C15S12271   0.176   0.721   8.054  0.0006  0.5585  0.8964
  117OSM   H15S12272   0.109   0.799   8.013 -1.0089 -0.5773  0.3351
  117OSM   H15T12273   0.266   0.734   7.990 -1.1372  0.3765 -0.7913
  117OSM   C16S12274   0.205   0.724   8.203  0.1349 -0.3448 -0.3224
  117OSM   H16S12275   0.258   0.629   8.226  0.9611  0.6726  2.3156
  117OSM   H16T12276   0.111   0.736   8.259  1.9147  0.3154  2.7354
  117OSM   C17S12277   0.292   0.842   8.253  0.1072 -0.3073  0.0721
  117OSM   H17S12278   0.251   0.939   8.218  2.0990  0.3300 -0.6501
  117OSM   H17T12279   0.381   0.819   8.190  0.8113 -0.3275  1.0544
  117OSM   C18S12280   0.324   0.849   8.401  0.2613 -0.1693 -0.7194
  117OSM   H18S12281   0.391   0.934   8.423  2.2861 -1.3476 -1.9919
  117OSM   H18T12282   0.373   0.756   8.439  0.8601 -0.0498 -1.1855
  117OSM   H18U12283   0.234   0.881   8.458  0.0611  0.9272 -1.6285
  117OSM    C1F12284   0.323   0.140   6.914 -0.4606 -0.0882  0.1557
  117OSM     OF12285   0.430   0.142   6.859 -0.5868  0.5250 -0.6596
  117OSM    C2F12286   0.299   0.078   7.047  0.6924 -0.1277 -0.3347
  117OSM    H2F12287   0.189   0.059   7.051  0.4291  1.0472 -1.2384
  117OSM    H2G12288   0.331   0.154   7.122 -1.8741  1.2349 -0.5039
  117OSM    C3F12289   0.375  -0.062   7.068 -0.1549 -0.0260 -0.3186
  117OSM    H3F12290   0.482  -0.052   7.038 -0.4250 -0.9931 -1.7289
  117OSM    H3G12291   0.327  -0.135   7.000 -1.4581  2.0482 -1.7576
  117OSM    C4F12292   0.372  -0.129   7.205 -0.2110 -0.6679 -0.2201
  117OSM    H4F12293   0.430  -0.224   7.207 -1.0723 -1.1999 -0.1295
  117OSM    H4G12294   0.268  -0.157   7.234  0.4366 -1.5963  1.3709
  117OSM    C5F12295   0.428  -0.049   7.331  0.7169  0.3852 -0.5660
  117OSM    H5F12296   0.365   0.041   7.348 -0.6228 -0.5046 -0.6608
  117OSM    H5G12297   0.533  -0.015   7.316  0.7340  1.2524  1.2739
  117OSM    C6F12298   0.422  -0.142   7.457 -0.2105  0.3374  0.7930
  117OSM    H6F12299   0.482  -0.226   7.417  1.1266  0.9507  1.4322
  117OSM    H6G12300   0.321  -0.182   7.481  0.1593  0.3634  2.5050
  117OSM    C7F12301   0.491  -0.081   7.581  0.1029 -0.2339 -0.3783
  117OSM    H7F12302   0.578  -0.020   7.546  0.5060  0.4602  1.7130
  117OSM    H7G12303   0.551  -0.158   7.633  2.4008  1.8484  0.2631
  117OSM    C8F12304   0.397  -0.013   7.681 -0.3246 -0.0193  0.6377
  117OSM    H8F12305   0.440  -0.001   7.783  3.1113  2.0389 -0.8665
  117OSM    H8G12306   0.306  -0.076   7.682 -0.7738  0.6162  1.3071
  117OSM    C9F12307   0.357   0.125   7.634 -0.3808  1.1359  0.2391
  117OSM    H9F12308   0.371   0.155   7.529  1.4631 -0.1338  0.0677
  117OSM   C10F12309   0.312   0.221   7.715 -0.4707 -0.0457  0.1912
  117OSM   H10F12310   0.298   0.321   7.672 -1.1341  0.3609  1.3093
  117OSM   C11F12311   0.278   0.208   7.859  0.2752  0.1943  0.5805
  117OSM   H11F12312   0.274   0.100   7.885  0.8171  0.4139  1.6211
  117OSM   H11G12313   0.175   0.248   7.869  0.2508  0.2147  0.2693
  117OSM   C12F12314   0.376   0.269   7.961  0.0009 -0.1754  0.0344
  117OSM   H12F12315   0.358   0.379   7.961 -2.0109 -0.3831 -2.5995
  117OSM   H12G12316   0.481   0.240   7.941  0.2163  1.2997 -1.1794
  117OSM   C13F12317   0.346   0.224   8.105  0.2425  0.1886  0.5727
  117OSM   H13F12318   0.238   0.225   8.133  0.4669 -1.3938  1.5710
  117OSM   H13G12319   0.406   0.297   8.164  2.4948  0.8622 -2.2908
  117OSM   C14F12320   0.400   0.082   8.139  0.0477  0.3990  1.4761
  117OSM   H14F12321   0.510   0.084   8.128  0.1900 -3.9568  0.0482
  117OSM   H14G12322   0.361   0.007   8.067 -0.0843 -0.1295  2.0881
  117OSM   C15F12323   0.350   0.037   8.285 -0.1426 -0.7359  1.0060
  117OSM   H15F12324   0.241   0.052   8.276  0.2518  1.4353 -0.9031
  117OSM   H15G12325   0.394   0.107   8.359 -1.3865 -0.5512  1.5997
  117OSM   C16F12326   0.390  -0.115   8.320 -0.4176 -0.1869 -0.2009
  117OSM   H16F12327   0.499  -0.128   8.307 -0.3374  1.2339 -1.2339
  117OSM   H16G12328   0.333  -0.166   8.239 -0.2605  1.7926 -1.6197
  117OSM   C17F12329   0.343  -0.164   8.455  0.1594  0.0791  0.2965
  117OSM   H17F12330   0.232  -0.159   8.455  0.1133  0.5412 -2.5330
  117OSM   H17G12331   0.365  -0.273   8.462 -0.8240 -0.3950 -2.6884
  117OSM   C18F12332   0.405  -0.097   8.578 -0.5372 -0.7591 -0.5390
  117OSM   H18F12333   0.380   0.009   8.597  0.8266 -0.4610 -0.2907
  117OSM   H18G12334   0.516  -0.098   8.577 -0.5236 -1.4394 -2.0505
  117OSM   H18H12335   0.379  -0.158   8.666  1.2069 -0.4390  0.2376
  118OSM      N12336   2.889   0.531   6.167  0.7398  0.3018  1.1707
  118OSM    C1512337   2.959   0.667   6.180  0.4655  0.3394  0.1560
  118OSM   H15A12338   2.988   0.708   6.085 -2.9644  0.7434 -0.8494
  118OSM   H15B12339   3.057   0.664   6.225  1.1500  0.9901 -1.2444
  118OSM   H15C12340   2.886   0.737   6.218 -1.4349 -1.2223 -0.4223
  118OSM    C1412341   2.761   0.537   6.093  0.1003 -0.4414  0.6818
  118OSM   H14A12342   2.698   0.615   6.134 -0.9700 -2.1753  2.5346
  118OSM   H14B12343   2.708   0.443   6.087  0.8851 -0.7822 -2.2180
  118OSM   H14C12344   2.781   0.570   5.992  1.9333  0.9790  1.4432
  118OSM    C1312345   2.978   0.435   6.099  0.7507 -0.1120  0.1891
  118OSM   H13A12346   2.948   0.332   6.113  1.5603 -0.2187  1.2491
  118OSM   H13B12347   3.077   0.439   6.142  0.3462  0.7015  1.0742
  118OSM   H13C12348   2.996   0.460   5.996  1.1859  0.5934  0.4294
  118OSM    C1212349   2.858   0.487   6.307 -0.0197 -0.0099  0.2892
  118OSM   H12A12350   2.951   0.489   6.361 -0.4729  0.2352  1.0842
  118OSM   H12B12351   2.827   0.384   6.302  1.4411 -0.5051  0.9928
  118OSM    C1112352   2.763   0.583   6.385 -0.6530  0.6237  0.1568
  118OSM   H11A12353   2.804   0.686   6.393 -2.1231  1.2970 -0.6112
  118OSM   H11B12354   2.766   0.531   6.483 -1.3745 -0.0370 -0.1643
  118OSM      P12355   2.497   0.560   6.384 -0.0992  0.3466  0.2267
  118OSM    O1312356   2.454   0.677   6.451  0.1283  0.4417  0.2501
  118OSM    O1412357   2.416   0.505   6.274  0.0737 -0.5397  0.1478
  118OSM    O1112358   2.518   0.453   6.495 -0.4102  0.1592 -0.0359
  118OSM    O1212359   2.639   0.593   6.325 -0.3387  0.7611  0.1850
  118OSM    C1S12360   2.568   0.323   6.455  0.5000 -0.3010  0.7508
  118OSM    H1S12361   2.667   0.315   6.407  0.5471 -0.6084  0.8959
  118OSM    H1T12362   2.491   0.274   6.392 -1.8963 -0.8951  3.9060
  118OSM     NF12363   2.636   0.107   6.553  0.8312 -0.0757  0.4357
  118OSM    HNF12364   2.568   0.034   6.543  2.5503 -1.8314  1.0580
  118OSM    C2S12365   2.579   0.237   6.579  0.0779 -0.2317  0.1114
  118OSM    H2S12366   2.647   0.278   6.656  1.8336  0.0158 -1.5030
  118OSM    C3S12367   2.447   0.225   6.650 -0.7366  0.2141 -0.2509
  118OSM    H3S12368   2.388   0.148   6.597  2.9214 -2.0976 -1.3024
  118OSM     O312369   2.360   0.337   6.656 -0.3516  0.1826  0.1712
  118OSM    HO312370   2.411   0.403   6.607 -1.6200  1.0919  0.0424
  118OSM    C4S12371   2.450   0.161   6.789  0.6139 -0.6479 -0.0430
  118OSM    H4S12372   2.447   0.051   6.786  3.7536 -0.9056  1.4465
  118OSM    C5S12373   2.474   0.216   6.915  0.7268 -0.4428  0.0530
  118OSM    H5S12374   2.488   0.325   6.925  0.0095 -0.3971  0.6618
  118OSM    C6S12375   2.492   0.136   7.037  0.1793 -0.0714 -0.6273
  118OSM    H6S12376   2.602   0.135   7.051  0.1002 -1.5014  0.1957
  118OSM    H6T12377   2.462   0.031   7.017 -3.4409  0.6835  0.1472
  118OSM    C7S12378   2.421   0.189   7.158  0.4736  0.1446  0.4863
  118OSM    H7S12379   2.314   0.164   7.140  0.9460 -1.5063 -0.1738
  118OSM    H7T12380   2.442   0.297   7.175  2.3067 -0.3576  1.6622
  118OSM    C8S12381   2.445   0.110   7.290 -0.3957 -0.2583 -0.3637
  118OSM    H8S12382   2.553   0.096   7.313 -0.7782 -0.6937  1.2688
  118OSM    H8T12383   2.409   0.008   7.264 -2.0058  0.2490 -0.2227
  118OSM    C9S12384   2.378   0.171   7.411 -0.0466 -0.3939 -0.1189
  118OSM    H9S12385   2.267   0.180   7.408  0.1273  2.2214 -1.8042
  118OSM    H9T12386   2.404   0.279   7.416 -1.6580  0.1894 -2.5826
  118OSM   C10S12387   2.415   0.104   7.539 -0.4383  0.2138  0.0436
  118OSM   H10S12388   2.521   0.125   7.560  0.0046 -0.4777 -1.3287
  118OSM   H10T12389   2.398  -0.006   7.533 -1.3769  0.4000 -1.2671
  118OSM   C11S12390   2.332   0.154   7.659  0.5481 -0.0956  0.6056
  118OSM   H11S12391   2.229   0.133   7.625  0.3474  2.2641 -0.4076
  118OSM   H11T12392   2.351   0.263   7.668  1.8695 -0.3285  0.9674
  118OSM   C12S12393   2.352   0.087   7.791 -0.3681  0.6863 -0.3147
  118OSM   H12S12394   2.456   0.105   7.825 -0.3532  1.1074 -0.5798
  118OSM   H12T12395   2.332  -0.021   7.773 -0.3251  0.6777 -0.3096
  118OSM   C13S12396   2.239   0.142   7.882 -0.5135 -0.4210  0.2344
  118OSM   H13S12397   2.143   0.125   7.830  0.7210 -1.3630 -1.8742
  118OSM   H13T12398   2.246   0.250   7.907 -2.7584 -0.3113  0.5196
  118OSM   C14S12399   2.230   0.071   8.022 -0.1190  0.5728 -0.3209
  118OSM   H14S12400   2.152   0.130   8.073  2.0751  3.0182  0.3914
  118OSM   H14T12401   2.332   0.087   8.063 -0.2027  1.1934 -0.3463
  118OSM   C15S12402   2.182  -0.080   8.016  0.0053  0.0897  0.8767
  118OSM   H15S12403   2.252  -0.122   7.941  0.4804  1.9359  0.2360
  118OSM   H15T12404   2.087  -0.067   7.960  1.8300  2.6226 -1.9336
  118OSM   C16S12405   2.181  -0.148   8.145  1.1314 -0.3128 -0.4354
  118OSM   H16S12406   2.284  -0.150   8.187  1.2239 -0.5186 -0.6667
  118OSM   H16T12407   2.165  -0.256   8.126 -0.3739 -0.3463  0.8460
  118OSM   C17S12408   2.072  -0.100   8.249  0.2235 -0.2064  0.2452
  118OSM   H17S12409   1.983  -0.130   8.191  1.0724  0.1215 -1.2948
  118OSM   H17T12410   2.089   0.010   8.260  2.4585 -0.1557 -2.4878
  118OSM   C18S12411   2.085  -0.169   8.386 -0.5314 -0.3960  0.2619
  118OSM   H18S12412   2.029  -0.264   8.401 -0.0225 -0.5545  1.2514
  118OSM   H18T12413   2.042  -0.103   8.464  0.4949 -0.7471  1.1364
  118OSM   H18U12414   2.190  -0.192   8.413 -0.8355 -0.0100  1.8815
  118OSM    C1F12415   2.759   0.076   6.524 -0.3169  0.5677  0.5046
  118OSM     OF12416   2.839   0.165   6.502 -0.6643 -0.2228 -0.4637
  118OSM    C2F12417   2.809  -0.062   6.514  0.3608  0.1279  0.1935
  118OSM    H2F12418   2.869  -0.081   6.423 -0.7926  0.7605 -0.7267
  118OSM    H2G12419   2.726  -0.136   6.509 -0.7995  1.1627  2.5997
  118OSM    C3F12420   2.896  -0.101   6.640 -0.0811 -0.0727 -0.3518
  118OSM    H3F12421   2.979  -0.027   6.646  0.8158 -1.1621  2.0106
  118OSM    H3G12422   2.950  -0.197   6.628 -0.4655 -0.3454  0.0564
  118OSM    C4F12423   2.842  -0.099   6.783  0.1159  0.1200 -0.5013
  118OSM    H4F12424   2.764  -0.169   6.819  2.5229 -2.4201  0.1213
  118OSM    H4G12425   2.793  -0.002   6.805 -1.3571 -0.5381 -0.7149
  118OSM    C5F12426   2.957  -0.116   6.889 -0.0373 -0.1532 -0.1048
  118OSM    H5F12427   3.043  -0.048   6.874 -1.3234  1.3112 -1.1333
  118OSM    H5G12428   3.010  -0.211   6.868  1.9292  0.5854  1.1896
  118OSM    C6F12429   2.909  -0.110   7.030  0.0924  0.0219 -0.8298
  118OSM    H6F12430   2.828  -0.185   7.040 -1.9421  2.2465  0.6631
  118OSM    H6G12431   2.873  -0.006   7.050  0.3744  0.1731 -1.1075
  118OSM    C7F12432   3.011  -0.144   7.142 -0.0340  0.4555  0.1773
  118OSM    H7F12433   3.105  -0.087   7.126 -1.1508  3.4782  3.1473
  118OSM    H7G12434   3.035  -0.252   7.142 -1.5278  0.0672 -1.7890
  118OSM    C8F12435   2.975  -0.089   7.282 -0.3467  0.1291 -0.0992
  118OSM    H8F12436   2.951   0.019   7.279 -0.0863  0.2144  0.6080
  118OSM    H8G12437   3.067  -0.100   7.344  0.2584  1.5378 -0.7137
  118OSM    C9F12438   2.871  -0.175   7.338  1.2218  0.2860  0.2219
  118OSM    H9F12439   2.822  -0.244   7.268  0.6126  0.1410  0.7785
  118OSM   C10F12440   2.827  -0.164   7.468 -0.2005  0.2582  0.0473
  118OSM   H10F12441   2.749  -0.231   7.505  0.3693 -0.1989  0.4483
  118OSM   C11F12442   2.886  -0.081   7.578 -0.1961  0.4557 -0.1464
  118OSM   H11F12443   2.967  -0.011   7.548  0.0791  0.5105  0.6948
  118OSM   H11G12444   2.917  -0.139   7.667  1.5284  1.7158  0.1256
  118OSM   C12F12445   2.777   0.000   7.642 -0.3781  0.4099 -0.7400
  118OSM   H12F12446   2.701  -0.066   7.688  1.1670  1.3153  3.5901
  118OSM   H12G12447   2.715   0.066   7.577  0.7725  0.4548 -1.8424
  118OSM   C13F12448   2.840   0.088   7.762  0.1792 -0.1678  0.4655
  118OSM   H13F12449   2.916   0.164   7.735  0.2605  0.1535  1.5521
  118OSM   H13G12450   2.888   0.006   7.820 -1.6488 -1.1546  0.6636
  118OSM   C14F12451   2.734   0.148   7.849  1.1886  0.4780  0.3622
  118OSM   H14F12452   2.682   0.060   7.893 -0.2091  0.8373 -0.5056
  118OSM   H14G12453   2.660   0.210   7.794  1.1534  2.5706  2.6020
  118OSM   C15F12454   2.774   0.231   7.973  0.0532  0.2315  0.4063
  118OSM   H15F12455   2.827   0.323   7.941  2.5515 -1.4423 -0.4912
  118OSM   H15G12456   2.844   0.167   8.031 -4.6546 -5.5628  0.5780
  118OSM   C16F12457   2.658   0.286   8.064  0.9046  0.2489  0.2277
  118OSM   H16F12458   2.612   0.357   7.992  2.2302  0.3222 -0.5758
  118OSM   H16G12459   2.706   0.342   8.147  0.2025 -1.2126  1.6853
  118OSM   C17F12460   2.567   0.185   8.129 -0.5013 -0.9128  1.2295
  118OSM   H17F12461   2.535   0.113   8.051  1.8419 -1.3369  0.5909
  118OSM   H17G12462   2.483   0.246   8.167 -1.7993 -1.1108 -1.1171
  118OSM   C18F12463   2.636   0.104   8.231 -0.1297 -1.3389  0.4048
  118OSM   H18F12464   2.672   0.010   8.186  2.8065  0.0397 -0.3853
  118OSM   H18G12465   2.560   0.075   8.306 -0.0163  0.2207  1.1763
  118OSM   H18H12466   2.726   0.146   8.282  1.1495 -1.8688 -1.3245
  119OSM      N12467   3.883   0.522   5.937 -0.6810 -0.4318 -0.1281
  119OSM    C1512468   3.957   0.626   5.852  0.2884  0.4621 -1.1222
  119OSM   H15A12469   3.912   0.645   5.756  0.8507  0.5229 -1.3784
  119OSM   H15B12470   4.054   0.585   5.831 -1.0747 -3.5288 -0.5752
  119OSM   H15C12471   3.961   0.717   5.911 -0.9170 -0.0714 -0.1597
  119OSM    C1412472   3.874   0.409   5.833 -0.1863  0.7568 -0.0163
  119OSM   H14A12473   3.811   0.337   5.883  0.0579  1.3388  1.1650
  119OSM   H14B12474   3.971   0.375   5.799  0.1378 -0.5597  2.0350
  119OSM   H14C12475   3.812   0.437   5.750  1.5672  1.1480 -1.2375
  119OSM    C1312476   3.970   0.479   6.049 -0.1531 -1.1685  0.1357
  119OSM   H13A12477   4.064   0.454   6.003 -0.3894  0.2037 -1.1632
  119OSM   H13B12478   3.942   0.391   6.105  3.0799 -2.8221 -0.6099
  119OSM   H13C12479   3.989   0.562   6.116 -1.3464 -0.8797  0.1466
  119OSM    C1212480   3.739   0.562   5.973  0.1101 -0.0596 -0.6792
  119OSM   H12A12481   3.682   0.574   5.882 -0.6108 -3.0333 -0.7302
  119OSM   H12B12482   3.747   0.658   6.023 -0.8112  1.1689 -2.7591
  119OSM    C1112483   3.665   0.458   6.067 -0.0592 -0.4159  0.1433
  119OSM   H11A12484   3.560   0.490   6.085 -0.1487 -0.9165  0.5329
  119OSM   H11B12485   3.724   0.460   6.161  1.4636  2.1952 -0.7694
  119OSM      P12486   3.678   0.199   6.084  0.2950  0.1436 -0.0606
  119OSM    O1312487   3.617   0.084   6.007  0.0388 -0.4764  0.0425
  119OSM    O1412488   3.819   0.186   6.113 -0.6644  0.1694 -0.6273
  119OSM    O1112489   3.599   0.224   6.217  0.1267  0.2773 -0.0433
  119OSM    O1212490   3.648   0.330   6.001  0.8406 -0.4470  0.3464
  119OSM    C1S12491   3.488   0.138   6.257  0.5118 -0.5644  0.1850
  119OSM    H1S12492   3.517   0.036   6.226  0.0057 -0.3521 -1.0379
  119OSM    H1T12493   3.391   0.159   6.207  0.5326 -1.2392 -0.1514
  119OSM     NF12494   3.357   0.057   6.442  0.2943 -0.6769 -0.3088
  119OSM    HNF12495   3.264   0.089   6.458  0.0827 -2.0317  1.4897
  119OSM    C2S12496   3.459   0.153   6.403  0.5786 -0.2370  0.3148
  119OSM    H2S12497   3.552   0.138   6.461  0.1142  1.7047  1.6471
  119OSM    C3S12498   3.412   0.300   6.444  0.0954  0.5509 -0.1891
  119OSM    H3S12499   3.315   0.309   6.391 -1.8879 -2.2359  2.5866
  119OSM     O312500   3.476   0.407   6.376  0.2336 -0.5694 -0.1443
  119OSM    HO312501   3.513   0.361   6.300 -1.1958 -0.8330 -0.7125
  119OSM    C4S12502   3.406   0.326   6.594  0.3092  0.3722  0.7959
  119OSM    H4S12503   3.314   0.278   6.632  0.0041 -0.8786 -1.3510
  119OSM    C5S12504   3.501   0.379   6.676  0.2527  0.4107 -0.4198
  119OSM    H5S12505   3.598   0.409   6.635  0.2236  1.2067  0.0698
  119OSM    C6S12506   3.497   0.376   6.830  0.1024  0.3965 -0.7681
  119OSM    H6S12507   3.438   0.464   6.866 -0.6937 -0.5695  0.3927
  119OSM    H6T12508   3.600   0.367   6.870  1.1729  0.0291 -3.4394
  119OSM    C7S12509   3.409   0.264   6.887 -0.2002 -0.4600 -0.0604
  119OSM    H7S12510   3.452   0.167   6.853  0.3503 -0.1499 -0.2609
  119OSM    H7T12511   3.301   0.270   6.863 -1.3331  1.2676  4.4421
  119OSM    C8S12512   3.408   0.270   7.039 -0.1966  0.2393  0.3525
  119OSM    H8S12513   3.438   0.367   7.084 -0.6229  2.0950 -3.1145
  119OSM    H8T12514   3.488   0.195   7.059  0.4833  0.5661 -1.0405
  119OSM    C9S12515   3.271   0.232   7.091  0.5823 -0.5102 -0.0880
  119OSM    H9S12516   3.230   0.151   7.027 -1.1021  0.2688 -0.0275
  119OSM    H9T12517   3.203   0.317   7.071 -1.3963 -1.0842  3.3909
  119OSM   C10S12518   3.264   0.198   7.237 -0.3021 -0.2147  0.8545
  119OSM   H10S12519   3.356   0.145   7.271  0.9075  0.4247 -1.2175
  119OSM   H10T12520   3.174   0.135   7.256  0.9536 -1.5317  2.7328
  119OSM   C11S12521   3.246   0.324   7.315 -1.0694 -0.3649 -0.1683
  119OSM   H11S12522   3.158   0.376   7.269 -0.8953  0.2614  0.1985
  119OSM   H11T12523   3.341   0.379   7.299 -1.6783  0.8235  0.1182
  119OSM   C12S12524   3.230   0.313   7.469 -0.8097  0.9302 -0.6253
  119OSM   H12S12525   3.329   0.269   7.494 -0.7410 -0.4873 -3.0056
  119OSM   H12T12526   3.150   0.242   7.496  0.0361  1.0178  2.4968
  119OSM   C13S12527   3.216   0.446   7.529  1.0136 -0.5693 -0.0100
  119OSM   H13S12528   3.147   0.501   7.462 -0.1575 -0.2492  1.3829
  119OSM   H13T12529   3.303   0.514   7.531 -0.1612  1.0377 -1.0746
  119OSM   C14S12530   3.168   0.451   7.674 -0.1775 -0.8148  0.0593
  119OSM   H14S12531   3.085   0.378   7.680 -1.9736  1.1331  0.2885
  119OSM   H14T12532   3.124   0.550   7.700 -1.1036 -1.3180  0.4804
  119OSM   C15S12533   3.276   0.423   7.776  0.2586 -0.2530 -0.4132
  119OSM   H15S12534   3.261   0.485   7.868  2.2202 -0.4388  0.0637
  119OSM   H15T12535   3.379   0.446   7.744  0.5895 -0.2964  0.5734
  119OSM   C16S12536   3.275   0.279   7.833 -0.9496  0.2703  0.1666
  119OSM   H16S12537   3.298   0.201   7.758  1.0723  0.3482  0.6517
  119OSM   H16T12538   3.166   0.260   7.844 -1.0026 -0.1160 -0.9101
  119OSM   C17S12539   3.364   0.258   7.960 -0.0983 -0.3466 -0.1982
  119OSM   H17S12540   3.457   0.317   7.944 -1.3646  1.6076 -0.6547
  119OSM   H17T12541   3.401   0.153   7.968  2.8905  0.7172  2.2379
  119OSM   C18S12542   3.299   0.290   8.096  0.3959  0.1207 -0.7047
  119OSM   H18S12543   3.353   0.255   8.187  0.0763  0.2409 -0.4678
  119OSM   H18T12544   3.203   0.234   8.099  1.0053 -0.8986  1.3249
  119OSM   H18U12545   3.283   0.399   8.094  2.4275  0.4625 -0.8450
  119OSM    C1F12546   3.377  -0.077   6.457  0.3779 -0.1680  0.5430
  119OSM     OF12547   3.484  -0.124   6.432 -0.9225  0.0459 -0.1935
  119OSM    C2F12548   3.259  -0.158   6.501 -0.5432  0.4574 -0.0109
  119OSM    H2F12549   3.260  -0.243   6.429  0.4411  2.3853 -2.4537
  119OSM    H2G12550   3.163  -0.108   6.478 -1.2875 -1.3225 -0.9910
  119OSM    C3F12551   3.269  -0.195   6.648  0.3018 -1.2866  0.6144
  119OSM    H3F12552   3.178  -0.257   6.665 -1.0296  0.1997 -0.7155
  119OSM    H3G12553   3.255  -0.102   6.707 -2.4288 -0.9201 -0.4532
  119OSM    C4F12554   3.389  -0.259   6.705 -0.1062  0.1361  0.5587
  119OSM    H4F12555   3.478  -0.193   6.694 -0.9643  0.9996 -1.7238
  119OSM    H4G12556   3.411  -0.353   6.650 -1.2260  0.5811 -0.7077
  119OSM    C5F12557   3.386  -0.302   6.851 -0.3978  0.5004  0.1744
  119OSM    H5F12558   3.475  -0.366   6.867  0.0378  0.9560 -0.4009
  119OSM    H5G12559   3.300  -0.372   6.865 -0.7064  0.8208 -0.0841
  119OSM    C6F12560   3.370  -0.190   6.953  0.5897 -0.0656  0.3961
  119OSM    H6F12561   3.277  -0.131   6.938  0.3789 -0.3796  0.4640
  119OSM    H6G12562   3.450  -0.116   6.931  1.2662 -0.9141 -0.0792
  119OSM    C7F12563   3.372  -0.238   7.101  0.3032 -0.6284 -0.1555
  119OSM    H7F12564   3.294  -0.315   7.122 -1.2452  0.9940  0.2327
  119OSM    H7G12565   3.346  -0.153   7.168  4.1671 -0.1538  1.0172
  119OSM    C8F12566   3.512  -0.271   7.158 -0.0226  0.4217  0.8598
  119OSM    H8F12567   3.571  -0.178   7.142  0.7373 -0.4952 -2.5576
  119OSM    H8G12568   3.557  -0.340   7.082  1.7723  2.0775  0.3311
  119OSM    C9F12569   3.515  -0.336   7.289 -0.1135 -0.1463 -0.8853
  119OSM    H9F12570   3.539  -0.444   7.286 -1.1639 -0.4162 -0.1895
  119OSM   C10F12571   3.495  -0.283   7.412 -0.4263 -0.0512  0.8142
  119OSM   H10F12572   3.508  -0.351   7.497  3.3659  1.4963  1.7180
  119OSM   C11F12573   3.472  -0.134   7.446 -0.5837  0.0540 -1.0706
  119OSM   H11F12574   3.494  -0.069   7.359 -0.7938  1.7469  0.0869
  119OSM   H11G12575   3.552  -0.093   7.512  0.6671 -1.9582 -1.2208
  119OSM   C12F12576   3.344  -0.086   7.515  0.1646  0.2700 -0.0026
  119OSM   H12F12577   3.256  -0.134   7.467 -0.1076  2.2179 -1.5715
  119OSM   H12G12578   3.336   0.024   7.518  1.8211  0.3999  0.9690
  119OSM   C13F12579   3.338  -0.141   7.670 -0.5131  0.3899  0.2932
  119OSM   H13F12580   3.425  -0.098   7.725  0.5195 -1.6207  0.3276
  119OSM   H13G12581   3.357  -0.249   7.656 -0.8378  0.5567 -1.7449
  119OSM   C14F12582   3.219  -0.115   7.765 -0.0511 -0.1240 -0.0534
  119OSM   H14F12583   3.132  -0.155   7.709 -2.5276  3.1354  1.1090
  119OSM   H14G12584   3.207  -0.005   7.760 -1.6875 -0.2917 -0.2661
  119OSM   C15F12585   3.238  -0.159   7.908 -0.1993 -0.3071  0.3421
  119OSM   H15F12586   3.336  -0.133   7.955  0.1890 -0.7198 -0.2333
  119OSM   H15G12587   3.231  -0.270   7.907 -1.9172 -0.2768  2.4216
  119OSM   C16F12588   3.123  -0.115   7.996  0.6769  0.4014 -0.5540
  119OSM   H16F12589   3.034  -0.159   7.945  0.4780 -0.7965  0.7634
  119OSM   H16G12590   3.109  -0.004   7.993 -1.1923  0.2634  0.7852
  119OSM   C17F12591   3.130  -0.162   8.144  0.5640 -0.1204 -0.6937
  119OSM   H17F12592   3.193  -0.097   8.209 -1.6894 -0.0582  1.5912
  119OSM   H17G12593   3.160  -0.269   8.137 -0.7920 -0.4189 -2.8693
  119OSM   C18F12594   2.979  -0.150   8.192 -0.7174  0.2314  0.2534
  119OSM   H18F12595   2.981  -0.168   8.302  0.8217 -2.1643 -0.0859
  119OSM   H18G12596   2.917  -0.221   8.133  0.5837 -2.9716  2.4170
  119OSM   H18H12597   2.943  -0.047   8.173  2.5148  1.5438  0.5506
  120OSM      N12598   0.261   5.327   5.970 -0.3446  0.2145  0.2706
  120OSM    C1512599   0.392   5.399   5.944 -0.0329 -0.2153 -0.7173
  120OSM   H15A12600   0.474   5.343   5.988  0.0100  0.9535  0.7700
  120OSM   H15B12601   0.373   5.493   5.994 -1.5300 -0.5716 -0.5775
  120OSM   H15C12602   0.409   5.417   5.839  3.1690  1.3537 -0.0803
  120OSM    C1412603   0.265   5.189   5.911 -0.8558 -0.5025  0.0832
  120OSM   H14A12604   0.343   5.127   5.953 -1.6089 -1.2395  0.4421
  120OSM   H14B12605   0.290   5.202   5.806  1.9579  1.5065  0.8813
  120OSM   H14C12606   0.165   5.150   5.924  0.0865 -3.1081  0.1612
  120OSM    C1312607   0.244   5.319   6.118  0.4011 -0.2471 -0.6274
  120OSM   H13A12608   0.325   5.265   6.164  1.1676  2.8330  1.9566
  120OSM   H13B12609   0.144   5.297   6.150  0.8642  0.1316  1.2003
  120OSM   H13C12610   0.261   5.418   6.159  3.2593  0.1691 -2.5063
  120OSM    C1212611   0.149   5.410   5.914  0.1990  0.3320  0.6830
  120OSM   H12A12612   0.160   5.421   5.807 -1.4489  1.0239  0.5684
  120OSM   H12B12613   0.166   5.514   5.939  0.8490  0.9238 -1.9158
  120OSM    C1112614   0.002   5.361   5.935 -0.1228 -0.3701  0.0091
  120OSM   H11A12615  -0.066   5.433   5.886 -0.4671 -0.9990 -0.4578
  120OSM   H11B12616  -0.029   5.341   6.039 -0.2585 -2.7670 -0.4281
  120OSM      P12617  -0.172   5.184   5.836  0.2707 -0.1501  0.1469
  120OSM    O1312618  -0.257   5.299   5.796 -0.0526 -0.0427  0.2672
  120OSM    O1412619  -0.150   5.068   5.747 -0.0121 -0.0112  0.3174
  120OSM    O1112620  -0.214   5.142   5.983 -0.1412  0.1844  0.6129
  120OSM    O1212621  -0.022   5.242   5.856 -0.1739 -0.1872  0.6994
  120OSM    C1S12622  -0.142   5.025   6.034  0.0916 -0.4331 -0.5690
  120OSM    H1S12623  -0.035   5.054   6.046 -0.7073  2.4759  0.3065
  120OSM    H1T12624  -0.160   4.933   5.974 -1.4724 -1.9731  2.0260
  120OSM     NF12625  -0.110   4.861   6.223 -0.0702  0.1435  0.3263
  120OSM    HNF12626  -0.155   4.775   6.244 -0.5121  0.0422 -0.9082
  120OSM    C2S12627  -0.186   4.976   6.180  0.6778  0.5661  0.0054
  120OSM    H2S12628  -0.153   5.061   6.244  2.1540 -0.2256  0.3288
  120OSM    C3S12629  -0.334   4.960   6.204  0.8584  0.5273  0.8493
  120OSM    H3S12630  -0.355   4.854   6.177  0.6158  0.0201  2.8628
  120OSM     O312631  -0.427   5.038   6.125 -0.5460 -0.6100 -0.1661
  120OSM    HO312632  -0.365   5.069   6.059 -0.5959  2.0769  0.8865
  120OSM    C4S12633  -0.361   4.971   6.352  0.2168 -0.0098 -0.4536
  120OSM    H4S12634  -0.361   4.885   6.421  1.1771  1.0093  0.8542
  120OSM    C5S12635  -0.386   5.086   6.413 -0.2863  0.1682 -0.2545
  120OSM    H5S12636  -0.380   5.177   6.352  0.8272 -0.4309 -1.0783
  120OSM    C6S12637  -0.412   5.100   6.559  0.1549 -0.0795  0.0376
  120OSM    H6S12638  -0.328   5.152   6.611 -1.1466 -1.0448  3.4027
  120OSM    H6T12639  -0.424   5.002   6.611 -3.0495 -0.4661 -1.1955
  120OSM    C7S12640  -0.538   5.185   6.591  0.2052  0.4274 -0.9953
  120OSM    H7S12641  -0.629   5.143   6.542  0.1775 -0.0045 -0.5828
  120OSM    H7T12642  -0.540   5.289   6.552 -3.0058  1.2615  1.0116
  120OSM    C8S12643  -0.567   5.189   6.739 -0.4129 -0.1471 -0.0595
  120OSM    H8S12644  -0.501   5.266   6.783 -0.2872 -0.6708  0.6881
  120OSM    H8T12645  -0.531   5.093   6.783 -1.1027 -0.9749 -1.2160
  120OSM    C9S12646  -0.715   5.204   6.773  0.9758 -0.0518 -0.4948
  120OSM    H9S12647  -0.778   5.138   6.710  0.8575 -1.1360  0.7044
  120OSM    H9T12648  -0.751   5.306   6.749  0.0135 -0.2591  0.0171
  120OSM   C10S12649  -0.742   5.175   6.923 -0.2332  0.4165  0.5664
  120OSM   H10S12650  -0.719   5.068   6.942  0.9738  0.3894 -0.8895
  120OSM   H10T12651  -0.851   5.188   6.943 -0.2401  0.3497  0.5744
  120OSM   C11S12652  -0.670   5.264   7.027  0.1736 -0.1406 -0.3353
  120OSM   H11S12653  -0.711   5.367   7.017  3.4870  1.2980 -0.6005
  120OSM   H11T12654  -0.562   5.279   7.008  0.6048  3.0014  3.2373
  120OSM   C12S12655  -0.692   5.212   7.171 -0.1993  0.3282 -0.7439
  120OSM   H12S12656  -0.636   5.117   7.163 -0.0742  0.2253  1.0388
  120OSM   H12T12657  -0.801   5.206   7.192 -0.4302  3.2271 -0.7001
  120OSM   C13S12658  -0.628   5.316   7.271 -0.4678 -0.3522 -0.1765
  120OSM   H13S12659  -0.667   5.419   7.252 -0.3570 -0.2334  0.2286
  120OSM   H13T12660  -0.527   5.322   7.224  0.3431 -0.8172  1.4325
  120OSM   C14S12661  -0.633   5.278   7.415 -0.5882  0.6479 -0.0564
  120OSM   H14S12662  -0.554   5.207   7.447  0.3628  0.1428 -3.1507
  120OSM   H14T12663  -0.729   5.229   7.441 -0.8621  2.0276  1.7624
  120OSM   C15S12664  -0.609   5.397   7.509 -0.1552 -0.0769  0.5496
  120OSM   H15S12665  -0.602   5.378   7.619 -3.8162  0.9554  1.0841
  120OSM   H15T12666  -0.691   5.471   7.495  0.6143  0.6471 -0.2397
  120OSM   C16S12667  -0.474   5.466   7.467 -0.3505  0.4609 -0.1367
  120OSM   H16S12668  -0.480   5.503   7.362  1.9281 -1.3522 -0.9870
  120OSM   H16T12669  -0.394   5.390   7.473  1.4850  2.1882 -1.3290
  120OSM   C17S12670  -0.443   5.588   7.555  0.1190  0.3970  0.4440
  120OSM   H17S12671  -0.452   5.565   7.664  0.3962  2.8734  1.0462
  120OSM   H17T12672  -0.532   5.652   7.538  0.2355  0.6699  0.8449
  120OSM   C18S12673  -0.311   5.652   7.517 -0.2361 -0.2665  0.0156
  120OSM   H18S12674  -0.309   5.657   7.406 -1.7173 -1.8520 -0.1158
  120OSM   H18T12675  -0.231   5.586   7.556 -2.3318 -2.9396  0.0503
  120OSM   H18U12676  -0.304   5.754   7.561 -1.1772 -0.5895  0.9492
  120OSM    C1F12677   0.022   4.871   6.255 -0.0395  0.1178 -0.6817
  120OSM     OF12678   0.079   4.981   6.254  1.0406 -0.1908 -0.3112
  120OSM    C2F12679   0.100   4.756   6.300  0.2052 -0.2657 -0.3940
  120OSM    H2F12680   0.169   4.732   6.216 -0.7516  1.8311 -1.8758
  120OSM    H2G12681   0.041   4.664   6.320  0.4993 -0.1185  1.2466
  120OSM    C3F12682   0.170   4.780   6.433 -0.4396 -0.1973  0.2187
  120OSM    H3F12683   0.236   4.869   6.428  0.0512 -0.6182 -1.8235
  120OSM    H3G12684   0.248   4.705   6.456  0.6168  1.2507  1.5709
  120OSM    C4F12685   0.070   4.787   6.545  0.4080  0.2330  0.0327
  120OSM    H4F12686   0.010   4.693   6.539  0.2036  0.4465 -2.0496
  120OSM    H4G12687  -0.003   4.868   6.522  0.2371  0.2911  0.7745
  120OSM    C5F12688   0.143   4.789   6.678 -0.6843  0.0219  0.0581
  120OSM    H5F12689   0.209   4.878   6.682 -0.7242  0.2425 -2.4156
  120OSM    H5G12690   0.215   4.705   6.672  1.5667  1.9218 -1.1461
  120OSM    C6F12691   0.046   4.798   6.804  0.5775  0.0992 -0.6283
  120OSM    H6F12692  -0.032   4.719   6.797 -0.0297  0.4727  1.2315
  120OSM    H6G12693   0.002   4.900   6.793  1.3929  0.7868  1.8736
  120OSM    C7F12694   0.134   4.783   6.928  0.3580  0.4143  0.4150
  120OSM    H7F12695   0.224   4.849   6.921  1.3200 -0.9950 -1.1532
  120OSM    H7G12696   0.191   4.689   6.918 -0.2840  0.1681 -1.1462
  120OSM    C8F12697   0.066   4.788   7.067 -0.8900  0.6929 -0.4313
  120OSM    H8F12698   0.072   4.688   7.116 -0.2053  0.8507 -0.1764
  120OSM    H8G12699  -0.043   4.804   7.055 -1.1686  0.0147  0.9690
  120OSM    C9F12700   0.123   4.897   7.159 -0.0216  0.1342  0.3463
  120OSM    H9F12701   0.117   4.998   7.116  0.5922  0.4603  1.0180
  120OSM   C10F12702   0.155   4.888   7.287 -0.4802  0.3207 -0.3310
  120OSM   H10F12703   0.183   4.983   7.335  2.6558 -1.3246  1.4340
  120OSM   C11F12704   0.151   4.781   7.385 -0.2827  0.3181 -0.0827
  120OSM   H11F12705   0.251   4.764   7.431 -0.6595 -1.1728  0.2403
  120OSM   H11G12706   0.127   4.684   7.336 -0.7245  0.3678  0.0351
  120OSM   C12F12707   0.047   4.797   7.510 -0.1899  0.1753  0.0263
  120OSM   H12F12708  -0.052   4.775   7.465 -1.0781 -3.3149  3.1694
  120OSM   H12G12709   0.047   4.900   7.552 -2.0203  0.7727 -1.3196
  120OSM   C13F12710   0.066   4.692   7.616 -0.2149 -0.3686  0.0247
  120OSM   H13F12711   0.167   4.713   7.658 -1.0134  2.3118  0.8233
  120OSM   H13G12712   0.090   4.595   7.569  0.0271  0.1949 -1.0367
  120OSM   C14F12713  -0.052   4.689   7.720 -0.2148  0.3959 -0.1506
  120OSM   H14F12714  -0.145   4.649   7.675 -2.9251  2.7238  2.9013
  120OSM   H14G12715  -0.078   4.790   7.757  0.1416 -0.1066  1.5356
  120OSM   C15F12716  -0.010   4.594   7.834 -0.3747  0.4406  0.2556
  120OSM   H15F12717   0.088   4.627   7.873 -1.3620  1.2904  2.1542
  120OSM   H15G12718  -0.002   4.493   7.787 -1.2161  0.8032 -0.7070
  120OSM   C16F12719  -0.110   4.580   7.948  0.4475 -0.0047  0.0266
  120OSM   H16F12720  -0.209   4.546   7.910 -0.8258  0.5401  2.5991
  120OSM   H16G12721  -0.126   4.679   7.996  1.1333  0.6625 -1.0756
  120OSM   C17F12722  -0.069   4.481   8.062 -0.2300 -0.0794  0.5229
  120OSM   H17F12723   0.041   4.485   8.071 -0.0831 -0.4390 -0.8852
  120OSM   H17G12724  -0.084   4.374   8.035 -1.0045  0.0070  0.5744
  120OSM   C18F12725  -0.141   4.512   8.197 -1.0453  0.6946 -0.0750
  120OSM   H18F12726  -0.103   4.440   8.273  3.6515  3.4704  0.6055
  120OSM   H18G12727  -0.249   4.494   8.178 -1.0737  1.0917 -0.2932
  120OSM   H18H12728  -0.134   4.619   8.226  1.5072  0.7031 -0.4897
  121OSM      N12729   3.447   4.379   5.967  0.2988 -0.2892 -0.5714
  121OSM    C1512730   3.572   4.453   5.924  0.6550 -0.0132 -0.1253
  121OSM   H15A12731   3.652   4.434   5.994  1.0699  1.2858 -0.2173
  121OSM   H15B12732   3.546   4.558   5.926  0.0650  0.0844 -4.2599
  121OSM   H15C12733   3.601   4.428   5.823 -0.6882 -0.9901 -0.2984
  121OSM    C1412734   3.414   4.410   6.107 -0.0162  0.3540  0.1041
  121OSM   H14A12735   3.500   4.369   6.159 -0.1504  0.0835  0.1146
  121OSM   H14B12736   3.330   4.360   6.152  0.2032  0.8270  1.0810
  121OSM   H14C12737   3.409   4.514   6.136  0.4230  0.7284 -1.0897
  121OSM    C1312738   3.341   4.447   5.889  0.3155  0.4865  0.2391
  121OSM   H13A12739   3.316   4.549   5.916 -0.0864  1.4673 -3.2495
  121OSM   H13B12740   3.251   4.387   5.891  2.2379 -2.5372  0.7994
  121OSM   H13C12741   3.362   4.463   5.784 -0.4759  1.9590  0.2683
  121OSM    C1212742   3.458   4.231   5.948  0.5433 -0.2611 -0.1824
  121OSM   H12A12743   3.487   4.208   5.846  0.1579 -3.8297  0.3938
  121OSM   H12B12744   3.361   4.187   5.963  0.7515 -1.5729 -2.2811
  121OSM    C1112745   3.558   4.153   6.040 -0.3732  0.2817 -0.5368
  121OSM   H11A12746   3.559   4.044   6.018 -2.9462 -0.3521  1.9604
  121OSM   H11B12747   3.510   4.162   6.139 -2.2802  1.6971 -1.5303
  121OSM      P12748   3.787   4.171   5.919 -0.2159 -0.1530 -0.0411
  121OSM    O1312749   3.723   4.113   5.799 -0.3213  0.0730  0.1934
  121OSM    O1412750   3.877   4.285   5.898 -0.7700 -0.5445  0.1661
  121OSM    O1112751   3.867   4.053   5.992  0.0437  0.4407 -0.4704
  121OSM    O1212752   3.689   4.207   6.037 -0.5187 -0.2896 -0.0648
  121OSM    C1S12753   3.960   4.079   6.101  0.4911  0.3104 -0.5644
  121OSM    H1S12754   4.005   4.179   6.089 -0.6829  0.9009 -0.1888
  121OSM    H1T12755   4.050   4.014   6.101 -0.5846 -1.4299 -3.8793
  121OSM     NF12756   3.980   4.072   6.354  0.1590 -0.8378  0.8728
  121OSM    HNF12757   4.012   4.001   6.416  2.3200 -0.6696  0.0349
  121OSM    C2S12758   3.891   4.051   6.237  0.0163  0.6674  0.4210
  121OSM    H2S12759   3.805   4.121   6.253 -0.6598 -0.6185  3.1215
  121OSM    C3S12760   3.830   3.901   6.234  0.3388 -0.9482 -0.5157
  121OSM    H3S12761   3.923   3.841   6.244  0.8790 -0.4473 -2.2222
  121OSM     O312762   3.759   3.862   6.116  0.2596  0.3319 -1.2271
  121OSM    HO312763   3.770   3.937   6.057 -1.2729  1.5634 -0.0607
  121OSM    C4S12764   3.752   3.873   6.362  0.9301 -0.0466 -0.0430
  121OSM    H4S12765   3.811   3.819   6.436  0.3377 -0.1973  0.3261
  121OSM    C5S12766   3.622   3.882   6.387 -0.3985  0.0797  0.2024
  121OSM    H5S12767   3.558   3.922   6.307 -0.0174 -1.0840 -0.7210
  121OSM    C6S12768   3.557   3.828   6.508 -0.9105  0.1143  0.0460
  121OSM    H6S12769   3.618   3.742   6.544  0.0366  0.6515 -0.2428
  121OSM    H6T12770   3.456   3.790   6.480 -0.6044  0.2778 -1.3511
  121OSM    C7S12771   3.545   3.932   6.613 -0.2304  0.1381 -1.0114
  121OSM    H7S12772   3.470   4.010   6.587 -1.8811 -0.6298  1.1720
  121OSM    H7T12773   3.641   3.986   6.625  0.5843 -1.7548  1.9185
  121OSM    C8S12774   3.512   3.874   6.750 -0.4280  0.5472 -0.3402
  121OSM    H8S12775   3.422   3.809   6.745 -0.5750  0.8353 -2.5432
  121OSM    H8T12776   3.478   3.958   6.815 -1.1172 -0.0345  0.0681
  121OSM    C9S12777   3.617   3.797   6.822  0.5540  0.3022  0.1280
  121OSM    H9S12778   3.710   3.856   6.805  0.3637  1.7085  3.1813
  121OSM    H9T12779   3.637   3.699   6.775  0.7077  0.3491  0.0934
  121OSM   C10S12780   3.596   3.775   6.972 -0.4270 -0.9914  0.2625
  121OSM   H10S12781   3.669   3.694   6.995  0.0863 -0.6880 -0.2637
  121OSM   H10T12782   3.495   3.734   6.989 -0.2447 -2.0398 -1.0789
  121OSM   C11S12783   3.618   3.898   7.064  0.6283 -0.4302  0.2509
  121OSM   H11S12784   3.563   3.977   7.007  2.3786  2.0890  1.8303
  121OSM   H11T12785   3.721   3.940   7.062  0.2069  0.6362 -1.2873
  121OSM   C12S12786   3.585   3.871   7.209  0.1329 -0.0733 -0.2357
  121OSM   H12S12787   3.515   3.784   7.213  1.5734 -1.3004 -0.8083
  121OSM   H12T12788   3.531   3.958   7.252 -0.9211  0.3234 -2.2564
  121OSM   C13S12789   3.711   3.835   7.290  0.0290  0.1917 -1.0914
  121OSM   H13S12790   3.795   3.905   7.270  0.5995  0.8126  2.7925
  121OSM   H13T12791   3.734   3.728   7.274 -0.0148 -0.1320  0.8608
  121OSM   C14S12792   3.685   3.838   7.438 -0.0107 -0.2632 -0.3336
  121OSM   H14S12793   3.602   3.767   7.458 -0.0943  0.1879  1.0149
  121OSM   H14T12794   3.655   3.938   7.478 -0.7002 -0.6740  0.2157
  121OSM   C15S12795   3.813   3.796   7.515  0.5073  1.3780  0.1168
  121OSM   H15S12796   3.884   3.881   7.506 -1.1000  2.6412 -1.1851
  121OSM   H15T12797   3.849   3.706   7.460 -0.4082  1.0722  0.0017
  121OSM   C16S12798   3.803   3.756   7.666 -0.4734  0.7512  0.4318
  121OSM   H16S12799   3.733   3.670   7.665 -0.3038  0.6103 -0.8486
  121OSM   H16T12800   3.748   3.834   7.723 -1.2581 -0.0083  0.7270
  121OSM   C17S12801   3.934   3.704   7.715 -0.3259  0.1485  0.3680
  121OSM   H17S12802   4.018   3.777   7.709 -2.3085  2.4775 -1.0130
  121OSM   H17T12803   3.947   3.620   7.643  1.0350  1.4917 -1.0371
  121OSM   C18S12804   3.930   3.647   7.860 -0.5505 -0.4093  0.6000
  121OSM   H18S12805   3.826   3.611   7.871 -1.0992 -0.0860 -2.6219
  121OSM   H18T12806   3.929   3.731   7.933  0.2545  1.4367 -1.4031
  121OSM   H18U12807   4.013   3.576   7.881 -1.6226 -0.9235  3.6138
  121OSM    C1F12808   4.020   4.199   6.377  0.5030 -0.5023 -0.2809
  121OSM     OF12809   3.972   4.298   6.314  0.0133  0.1451 -0.5190
  121OSM    C2F12810   4.114   4.225   6.494 -1.1755 -0.1487  0.1758
  121OSM    H2F12811   4.187   4.306   6.470 -0.9757  0.0427  1.3634
  121OSM    H2G12812   4.165   4.129   6.514 -1.3207  0.0834  1.7323
  121OSM    C3F12813   4.032   4.281   6.607  0.1215 -0.3530  0.7385
  121OSM    H3F12814   3.992   4.381   6.580 -0.3829 -0.3165  1.6174
  121OSM    H3G12815   4.100   4.291   6.694  0.3605 -1.3304  0.6752
  121OSM    C4F12816   3.933   4.195   6.681  0.1560  0.2389  0.2658
  121OSM    H4F12817   3.981   4.095   6.687 -2.5573 -1.0898  1.1794
  121OSM    H4G12818   3.834   4.205   6.631 -0.2591 -1.2984  0.7234
  121OSM    C5F12819   3.910   4.243   6.827 -0.5973  0.0950  0.5676
  121OSM    H5F12820   3.870   4.346   6.818 -1.4677 -0.4348 -3.0209
  121OSM    H5G12821   4.007   4.249   6.881 -0.1268 -0.1323 -0.2393
  121OSM    C6F12822   3.814   4.163   6.909 -0.0009 -0.2814 -0.7265
  121OSM    H6F12823   3.859   4.066   6.939  0.2312  0.6883  2.3959
  121OSM    H6G12824   3.724   4.148   6.846  0.5845 -0.7405 -1.4769
  121OSM    C7F12825   3.770   4.240   7.035  0.1485 -0.3144 -0.4949
  121OSM    H7F12826   3.683   4.193   7.086 -0.2298  0.7453 -0.1476
  121OSM    H7G12827   3.749   4.342   6.998 -0.0784 -0.0300  0.3968
  121OSM    C8F12828   3.884   4.275   7.141 -0.2081  0.1165  0.2019
  121OSM    H8F12829   3.847   4.353   7.211 -0.0206 -0.4203  0.9154
  121OSM    H8G12830   3.964   4.340   7.100 -0.0705  0.3114  0.7638
  121OSM    C9F12831   3.933   4.150   7.215 -0.6171 -0.0783 -0.4240
  121OSM    H9F12832   3.944   4.064   7.148 -2.0152 -1.4344  0.9942
  121OSM   C10F12833   3.950   4.131   7.345  0.2144 -0.1525 -0.1016
  121OSM   H10F12834   3.991   4.035   7.380  1.6407  1.0208  1.5510
  121OSM   C11F12835   3.942   4.225   7.464 -0.1249 -0.4621  0.1624
  121OSM   H11F12836   3.852   4.211   7.528  1.0868 -1.7325  1.6977
  121OSM   H11G12837   3.913   4.323   7.423 -1.8448 -0.4190  1.3681
  121OSM   C12F12838   4.052   4.223   7.560  0.2724  0.4113 -0.3793
  121OSM   H12F12839   4.057   4.316   7.621 -0.3225 -1.1503  2.1829
  121OSM   H12G12840   4.147   4.216   7.504 -0.4119  1.1606 -1.7070
  121OSM   C13F12841   4.038   4.104   7.653 -0.4854 -0.6233 -0.4247
  121OSM   H13F12842   4.138   4.105   7.702 -0.1590  1.9113 -1.0082
  121OSM   H13G12843   4.037   4.009   7.596  0.2939  0.8170 -3.0013
  121OSM   C14F12844   3.938   4.117   7.775 -0.5542  0.6552 -0.4533
  121OSM   H14F12845   3.835   4.092   7.744 -0.7665  1.8464 -0.7544
  121OSM   H14G12846   3.943   4.222   7.813  3.5804  0.7272 -0.7302
  121OSM   C15F12847   3.986   4.034   7.897 -0.4447 -0.0354 -0.4445
  121OSM   H15F12848   4.091   4.062   7.917 -0.6478  0.9307 -0.6717
  121OSM   H15G12849   3.980   3.927   7.869 -0.8910 -0.0725 -0.2090
  121OSM   C16F12850   3.900   4.054   8.018  0.3889  0.1374  0.0579
  121OSM   H16F12851   3.805   3.997   8.010  0.1666  0.4229  0.6058
  121OSM   H16G12852   3.860   4.158   8.027 -1.0265 -0.3232 -0.5854
  121OSM   C17F12853   3.962   4.003   8.147 -0.4208 -0.1615 -0.1071
  121OSM   H17F12854   4.057   4.060   8.160  0.8215 -1.6991 -1.8038
  121OSM   H17G12855   3.989   3.896   8.137  0.1911 -0.2259  1.7594
  121OSM   C18F12856   3.886   4.019   8.282 -0.0535 -0.0583  0.2346
  121OSM   H18F12857   3.846   4.123   8.286 -1.1820 -0.4992  4.0158
  121OSM   H18G12858   3.945   4.000   8.374 -0.4528  0.8063  0.6834
  121OSM   H18H12859   3.795   3.955   8.281 -0.2423  0.2086 -0.1265
  122OSM      N12860   2.499   0.902   6.168 -0.1265 -0.2203  0.0268
  122OSM    C1512861   2.626   0.888   6.256 -0.2545  0.1574  0.2612
  122OSM   H15A12862   2.707   0.909   6.187 -1.1169 -1.1770 -1.2357
  122OSM   H15B12863   2.641   0.789   6.296 -1.0024  0.9792  2.7519
  122OSM   H15C12864   2.637   0.962   6.334  0.2687  0.0949  0.2455
  122OSM    C1412865   2.513   1.039   6.120  0.1800 -0.4351 -0.1344
  122OSM   H14A12866   2.522   1.102   6.207  1.9856 -3.3336  1.9336
  122OSM   H14B12867   2.431   1.070   6.057  1.5698  3.1417 -0.4088
  122OSM   H14C12868   2.608   1.048   6.070  1.0972 -1.8524  1.2839
  122OSM    C1312869   2.496   0.813   6.042 -0.0494  0.2702 -1.0522
  122OSM   H13A12870   2.503   0.710   6.075 -1.2565  0.8583  1.2357
  122OSM   H13B12871   2.590   0.831   5.991  0.6631  3.1172  1.0159
  122OSM   H13C12872   2.411   0.837   5.980 -0.2674  1.0506 -0.4607
  122OSM    C1212873   2.379   0.885   6.259  0.2772 -0.2488  0.5655
  122OSM   H12A12874   2.380   0.964   6.333  0.8504  2.0349 -1.7298
  122OSM   H12B12875   2.390   0.790   6.309  0.8818  1.1009  3.1889
  122OSM    C1112876   2.240   0.880   6.192 -0.1695 -0.4045  0.4787
  122OSM   H11A12877   2.228   0.793   6.123 -0.8136  0.4323 -0.5115
  122OSM   H11B12878   2.232   0.963   6.118 -0.3285 -2.2493 -1.6878
  122OSM      P12879   2.005   0.808   6.297 -0.1717 -0.3140 -0.0045
  122OSM    O1312880   1.934   0.846   6.420 -0.0453  0.3041 -0.0541
  122OSM    O1412881   1.932   0.822   6.163 -0.2432  0.1653 -0.4609
  122OSM    O1112882   2.042   0.652   6.305 -0.1334  0.3814 -0.1987
  122OSM    O1212883   2.146   0.893   6.297  0.7198  0.0827  0.0565
  122OSM    C1S12884   2.131   0.614   6.420 -0.1140 -0.1747  0.1444
  122OSM    H1S12885   2.191   0.700   6.454 -0.3726 -0.1896  0.6419
  122OSM    H1T12886   2.198   0.535   6.380  1.9304  1.1186  0.9025
  122OSM     NF12887   2.157   0.549   6.649  0.5465 -0.3982 -0.1690
  122OSM    HNF12888   2.190   0.457   6.670  1.1796 -1.0396 -3.3833
  122OSM    C2S12889   2.061   0.548   6.541 -0.0187 -0.5714  0.2299
  122OSM    H2S12890   1.988   0.624   6.577  1.0709  1.1142 -0.9521
  122OSM    C3S12891   1.993   0.418   6.507  0.3034 -0.7523  0.1842
  122OSM    H3S12892   2.070   0.345   6.473  0.6451 -0.1724 -0.3021
  122OSM     O312893   1.896   0.441   6.408  0.3767 -0.1992 -0.2225
  122OSM    HO312894   1.912   0.524   6.364 -0.0568  0.2590  0.4619
  122OSM    C4S12895   1.918   0.381   6.632 -0.2875 -0.5868 -0.1270
  122OSM    H4S12896   1.815   0.420   6.628  0.0877  0.4242 -2.9662
  122OSM    C5S12897   1.954   0.312   6.738 -0.2194 -0.5388 -0.3830
  122OSM    H5S12898   2.052   0.261   6.730  1.4086  2.5378 -1.8579
  122OSM    C6S12899   1.875   0.279   6.861 -0.2351  0.7114  0.0266
  122OSM    H6S12900   1.807   0.194   6.839 -0.9344  0.6648  2.1804
  122OSM    H6T12901   1.818   0.370   6.891  2.2469  3.2395 -2.3136
  122OSM    C7S12902   1.957   0.245   6.988 -0.5858  0.7276  0.4635
  122OSM    H7S12903   2.051   0.303   6.993  0.4758 -0.7497 -0.9343
  122OSM    H7T12904   1.992   0.139   6.988  1.8119  1.4602  1.7987
  122OSM    C8S12905   1.878   0.263   7.116 -0.0376 -0.4463 -0.5512
  122OSM    H8S12906   1.794   0.191   7.124 -2.0932  1.7789 -0.7066
  122OSM    H8T12907   1.823   0.360   7.112 -2.4135 -1.6098  1.0903
  122OSM    C9S12908   1.958   0.262   7.248  0.5049 -0.3599 -0.4869
  122OSM    H9S12909   2.031   0.345   7.244  0.0618  0.1326  1.0073
  122OSM    H9T12910   2.016   0.170   7.270  1.2250  0.1564 -0.1907
  122OSM   C10S12911   1.861   0.278   7.368 -0.2613 -0.7372  0.6344
  122OSM   H10S12912   1.780   0.202   7.371 -0.4076 -0.5737  0.8609
  122OSM   H10T12913   1.804   0.373   7.357  0.7340 -0.2753 -0.7978
  122OSM   C11S12914   1.928   0.268   7.507  0.7185 -0.1353 -0.2256
  122OSM   H11S12915   2.007   0.346   7.503  2.7768 -2.0383  1.0347
  122OSM   H11T12916   1.973   0.168   7.522  0.0679 -0.2492  1.2007
  122OSM   C12S12917   1.833   0.284   7.626 -0.7487 -0.1290  0.3408
  122OSM   H12S12918   1.808   0.178   7.647 -2.4655  0.5517  1.9099
  122OSM   H12T12919   1.744   0.341   7.592 -1.8914 -0.4944  2.5540
  122OSM   C13S12920   1.902   0.351   7.741 -0.2416 -0.2249 -0.4698
  122OSM   H13S12921   1.934   0.455   7.718  1.2432 -0.3890  0.7093
  122OSM   H13T12922   1.995   0.300   7.774 -0.7962 -0.0389  1.5273
  122OSM   C14S12923   1.801   0.363   7.858  0.3324 -0.4100  0.2218
  122OSM   H14S12924   1.756   0.268   7.892  1.5817 -0.6207  1.3418
  122OSM   H14T12925   1.723   0.429   7.813  0.0749  1.1242  2.7412
  122OSM   C15S12926   1.864   0.444   7.975 -0.9973  0.4122 -0.1452
  122OSM   H15S12927   1.785   0.478   8.045 -1.3162 -1.2780  0.3397
  122OSM   H15T12928   1.917   0.533   7.934 -0.5060  0.1789 -0.0174
  122OSM   C16S12929   1.953   0.357   8.063 -0.1507  0.2426 -0.1756
  122OSM   H16S12930   2.024   0.301   7.998  1.1430  0.6140  0.8811
  122OSM   H16T12931   1.903   0.272   8.114 -0.5805 -0.2869 -1.4295
  122OSM   C17S12932   2.049   0.430   8.160  0.6602 -0.1981  0.0144
  122OSM   H17S12933   2.076   0.520   8.100  0.9839 -0.2254  0.1159
  122OSM   H17T12934   2.143   0.373   8.176  0.4552 -1.4889 -2.7924
  122OSM   C18S12935   1.982   0.476   8.292  0.0708  0.1949 -0.4661
  122OSM   H18S12936   2.055   0.514   8.367  1.4574  0.0606 -1.7006
  122OSM   H18T12937   1.941   0.385   8.342  0.4233  0.4205  0.2528
  122OSM   H18U12938   1.902   0.553   8.287 -1.4382 -1.2847 -0.2680
  122OSM    C1F12939   2.209   0.653   6.721 -0.1151 -0.4136  0.1494
  122OSM     OF12940   2.165   0.767   6.722 -0.0099  0.3654  0.5157
  122OSM    C2F12941   2.329   0.621   6.794 -0.0032  0.2464 -0.4643
  122OSM    H2F12942   2.414   0.655   6.731 -0.8561  3.2601 -0.1311
  122OSM    H2G12943   2.343   0.513   6.815  0.7125 -0.0421 -2.2938
  122OSM    C3F12944   2.334   0.695   6.929  0.3054 -0.2668  0.4358
  122OSM    H3F12945   2.350   0.802   6.903  0.3401  0.0285  1.6116
  122OSM    H3G12946   2.420   0.655   6.987 -0.4299 -3.0905 -0.2752
  122OSM    C4F12947   2.205   0.659   7.016 -0.3330 -0.9190  0.8989
  122OSM    H4F12948   2.214   0.548   7.025  1.6201 -0.9800 -0.9363
  122OSM    H4G12949   2.113   0.678   6.955 -0.9369 -2.0500  1.4248
  122OSM    C5F12950   2.191   0.738   7.146 -0.3055  0.1882  0.7815
  122OSM    H5F12951   2.102   0.804   7.143 -0.2474  0.2409 -0.2752
  122OSM    H5G12952   2.274   0.800   7.183  0.8238 -2.7882  3.8135
  122OSM    C6F12953   2.160   0.649   7.263 -0.4542  0.4156  0.1859
  122OSM    H6F12954   2.252   0.622   7.318 -1.3659 -1.0610  1.0578
  122OSM    H6G12955   2.102   0.559   7.233  1.3871 -1.1097  1.0580
  122OSM    C7F12956   2.067   0.723   7.359  0.6057 -0.3393 -0.3204
  122OSM    H7F12957   1.975   0.753   7.305  0.9049 -1.0522 -1.2627
  122OSM    H7G12958   2.125   0.811   7.394  0.5433 -0.8020  0.9967
  122OSM    C8F12959   2.036   0.650   7.493 -0.1900  0.0379  0.0824
  122OSM    H8F12960   1.980   0.559   7.463 -0.2570  0.6008 -1.6691
  122OSM    H8G12961   1.968   0.712   7.555 -1.0832  0.9690 -1.7209
  122OSM    C9F12962   2.169   0.616   7.553  0.4588 -0.4567 -0.1673
  122OSM    H9F12963   2.221   0.523   7.524  3.0483  0.3441  1.5086
  122OSM   C10F12964   2.231   0.686   7.648 -0.1248 -1.1621  0.1287
  122OSM   H10F12965   2.335   0.660   7.673 -0.0857 -0.2176  0.9881
  122OSM   C11F12966   2.170   0.805   7.717 -0.1413  0.0710 -0.4455
  122OSM   H11F12967   2.061   0.790   7.733  0.4706 -2.0932  2.5235
  122OSM   H11G12968   2.180   0.894   7.652 -0.4078  0.8905  0.6154
  122OSM   C12F12969   2.228   0.844   7.859  1.0520  0.0888 -0.2196
  122OSM   H12F12970   2.185   0.770   7.929  1.4183 -0.4068 -0.5094
  122OSM   H12G12971   2.203   0.949   7.884  2.5583  0.9274 -2.0113
  122OSM   C13F12972   2.382   0.857   7.864 -0.0226 -0.0843  0.1742
  122OSM   H13F12973   2.418   0.926   7.785  0.0612 -0.1361  0.1665
  122OSM   H13G12974   2.417   0.753   7.847 -1.7464 -0.5836 -0.6259
  122OSM   C14F12975   2.422   0.913   7.996 -0.6037 -0.2907 -0.0705
  122OSM   H14F12976   2.397   1.021   7.997  1.1156  0.1882 -1.9287
  122OSM   H14G12977   2.532   0.918   8.003 -0.5623 -2.3242  1.6756
  122OSM   C15F12978   2.361   0.846   8.118 -0.4444  0.2295  0.0659
  122OSM   H15F12979   2.380   0.737   8.103 -1.1197  0.4451 -2.8232
  122OSM   H15G12980   2.251   0.840   8.110 -0.2787 -1.7794 -1.7705
  122OSM   C16F12981   2.411   0.901   8.248 -0.1831 -0.6297 -0.7587
  122OSM   H16F12982   2.345   0.985   8.277  0.4407  0.0832 -1.3728
  122OSM   H16G12983   2.516   0.934   8.243  0.2820 -1.9719 -0.4356
  122OSM   C17F12984   2.406   0.803   8.368 -0.2584 -0.5588 -0.2438
  122OSM   H17F12985   2.463   0.850   8.451 -0.7030  0.0733 -0.2915
  122OSM   H17G12986   2.464   0.712   8.340  0.8733  0.8870 -2.8461
  122OSM   C18F12987   2.259   0.764   8.415  0.4608  0.4939 -0.9841
  122OSM   H18F12988   2.195   0.848   8.380  0.2930  0.6669 -0.2935
  122OSM   H18G12989   2.248   0.755   8.526  1.0337  0.0644 -0.9543
  122OSM   H18H12990   2.231   0.665   8.374  0.2162  0.8329 -1.6510
  123OSM      N12991   5.887   4.349   6.282  0.6486  0.4350 -0.7931
  123OSM    C1512992   5.869   4.454   6.181  0.5638  0.8385  0.5806
  123OSM   H15A12993   5.799   4.429   6.103  1.4223  1.3201 -0.3707
  123OSM   H15B12994   5.959   4.459   6.122  0.8407  0.1529  0.9323
  123OSM   H15C12995   5.844   4.555   6.211  2.6369  1.2002  1.2556
  123OSM    C1412996   5.760   4.343   6.373 -0.1853  0.3513 -0.3480
  123OSM   H14A12997   5.679   4.309   6.310 -1.1473  2.0593 -0.1100
  123OSM   H14B12998   5.735   4.436   6.422  1.6939  1.6116 -1.6384
  123OSM   H14C12999   5.772   4.265   6.447  0.4506  1.3392  0.6247
  123OSM    C1313000   5.900   4.215   6.217 -0.0589  0.2654  0.2021
  123OSM   H13A13001   5.904   4.133   6.287 -0.0761 -0.0531 -0.1673
  123OSM   H13B13002   5.984   4.217   6.149 -0.1294 -0.7386  0.0649
  123OSM   H13C13003   5.817   4.201   6.149  1.0227 -0.7639 -0.9502
  123OSM    C1213004   6.001   4.376   6.381 -0.1266 -0.1101  0.4466
  123OSM   H12A13005   5.999   4.297   6.455 -0.9357  0.0785  0.6335
  123OSM   H12B13006   5.993   4.473   6.426  0.0584 -0.2418  0.7674
  123OSM    C1113007   6.143   4.356   6.317  0.5844 -0.0456  0.4884
  123OSM   H11A13008   6.162   4.257   6.270  2.3001  1.4164 -2.1807
  123OSM   H11B13009   6.220   4.369   6.395  0.1829 -1.4057  1.1358
  123OSM      P13010   6.206   4.595   6.219  0.2973  0.1706 -0.4776
  123OSM    O1313011   6.349   4.608   6.182 -0.1690  0.1665  0.1896
  123OSM    O1413012   6.110   4.685   6.144  0.1547  0.3841  0.3880
  123OSM    O1113013   6.197   4.616   6.377 -0.1783 -0.2568  0.1652
  123OSM    O1213014   6.164   4.444   6.205  0.3479  0.1792  0.8280
  123OSM    C1S13015   6.104   4.709   6.435  0.1589  0.3940  0.4809
  123OSM    H1S13016   6.002   4.688   6.395 -0.3716  2.3189  0.7334
  123OSM    H1T13017   6.140   4.807   6.398 -2.7591  0.3704 -2.9648
  123OSM     NF13018   5.979   4.762   6.638  0.2159 -0.3477  1.1943
  123OSM    HNF13019   5.975   4.859   6.663  3.2399  0.7956 -1.8964
  123OSM    C2S13020   6.109   4.705   6.584  0.3715  0.2125 -0.1812
  123OSM    H2S13021   6.121   4.603   6.628  0.4278  1.1074  2.0256
  123OSM    C3S13022   6.245   4.771   6.622  0.9281  0.2619 -0.4848
  123OSM    H3S13023   6.231   4.875   6.584  0.8787  0.2660 -0.4556
  123OSM     O313024   6.353   4.712   6.548  0.1393 -0.0437  0.2182
  123OSM    HO313025   6.305   4.659   6.485 -0.7396 -0.7462  1.4370
  123OSM    C4S13026   6.257   4.783   6.770 -0.8545  0.0361 -0.2491
  123OSM    H4S13027   6.226   4.881   6.808 -0.2164 -0.8253  2.7553
  123OSM    C5S13028   6.323   4.699   6.852  0.2443 -0.3829  0.5180
  123OSM    H5S13029   6.357   4.601   6.814  1.4460 -0.1135  0.8587
  123OSM    C6S13030   6.361   4.726   6.994 -0.1153 -0.3259 -0.3490
  123OSM    H6S13031   6.471   4.715   7.003 -0.2385 -1.3142  0.1711
  123OSM    H6T13032   6.319   4.640   7.051  1.9674 -2.0813 -1.3220
  123OSM    C7S13033   6.326   4.860   7.068  0.3732  0.0076  0.2953
  123OSM    H7S13034   6.216   4.869   7.061  0.1882 -0.6676  1.8817
  123OSM    H7T13035   6.356   4.939   6.997 -0.1041  1.8386  2.0399
  123OSM    C8S13036   6.380   4.879   7.207 -0.1889  0.5181 -0.2056
  123OSM    H8S13037   6.357   4.978   7.253  1.9203  1.0940 -0.2938
  123OSM    H8T13038   6.490   4.877   7.193  0.1233  1.5381  1.7699
  123OSM    C9S13039   6.351   4.764   7.302 -0.2669  0.0626 -0.4025
  123OSM    H9S13040   6.412   4.684   7.256 -1.0785 -0.2688 -0.9282
  123OSM    H9T13041   6.243   4.738   7.297 -0.6355  1.6113 -0.8610
  123OSM   C10S13042   6.407   4.789   7.439  0.0625 -0.1774  0.0965
  123OSM   H10S13043   6.497   4.851   7.414  0.1902 -0.7320 -0.8700
  123OSM   H10T13044   6.439   4.699   7.495  1.0478 -0.2415 -0.5469
  123OSM   C11S13045   6.320   4.887   7.523 -0.2697  0.6341  0.0722
  123OSM   H11S13046   6.225   4.838   7.553 -0.5608 -0.8010 -2.8770
  123OSM   H11T13047   6.299   4.980   7.467 -1.8791 -0.6866 -1.6570
  123OSM   C12S13048   6.404   4.917   7.653  0.4642 -0.4894  0.1882
  123OSM   H12S13049   6.509   4.953   7.646  0.2976 -0.1703 -0.7644
  123OSM   H12T13050   6.412   4.825   7.715 -0.9140 -0.1382  0.9269
  123OSM   C13S13051   6.343   5.028   7.742  0.7684  0.0717  0.0882
  123OSM   H13S13052   6.241   5.003   7.778  0.4278 -1.1053 -1.5872
  123OSM   H13T13053   6.327   5.113   7.673 -1.1748  0.3770  0.8661
  123OSM   C14S13054   6.425   5.065   7.869 -0.6428 -0.5413 -0.2649
  123OSM   H14S13055   6.527   5.097   7.836 -1.3596  0.2792 -1.7730
  123OSM   H14T13056   6.442   4.974   7.931  1.6133 -0.2310 -0.3236
  123OSM   C15S13057   6.367   5.175   7.953  0.4817  0.0341 -0.2662
  123OSM   H15S13058   6.422   5.174   8.049  0.9722 -1.6165 -0.5356
  123OSM   H15T13059   6.266   5.134   7.975  0.7060 -0.1610  0.4046
  123OSM   C16S13060   6.348   5.306   7.886  0.4280  0.1115  0.1289
  123OSM   H16S13061   6.289   5.289   7.794  1.2125  0.7891 -0.5158
  123OSM   H16T13062   6.445   5.340   7.844  1.1564  0.1244  1.7542
  123OSM   C17S13063   6.291   5.414   7.976 -0.2536  0.2471 -0.1299
  123OSM   H17S13064   6.380   5.460   8.024  1.9766 -1.6309 -2.1686
  123OSM   H17T13065   6.229   5.367   8.055  2.5346 -0.1106  2.0046
  123OSM   C18S13066   6.212   5.526   7.910  0.1393  0.2974 -0.2122
  123OSM   H18S13067   6.130   5.491   7.844 -1.1464 -1.3702  2.1517
  123OSM   H18T13068   6.279   5.581   7.840  1.3482 -1.1294 -0.2255
  123OSM   H18U13069   6.179   5.599   7.987  1.5263 -0.5610  1.2706
  123OSM    C1F13070   5.868   4.688   6.630 -0.6369 -0.2483  0.0065
  123OSM     OF13071   5.877   4.571   6.589 -0.1267  0.0041 -0.0907
  123OSM    C2F13072   5.745   4.751   6.689  0.2517  0.3716  0.0654
  123OSM    H2F13073   5.671   4.668   6.697 -0.5775  1.1013  0.0335
  123OSM    H2G13074   5.709   4.830   6.620 -0.7044 -0.5927 -0.5680
  123OSM    C3F13075   5.760   4.798   6.832 -0.6836 -0.1036  0.5733
  123OSM    H3F13076   5.669   4.860   6.843 -0.7552  0.2761 -1.7249
  123OSM    H3G13077   5.837   4.879   6.835 -0.2484 -0.3563 -1.9653
  123OSM    C4F13078   5.786   4.685   6.930  0.6388  0.2522  0.6475
  123OSM    H4F13079   5.891   4.653   6.911  1.0991  2.2518 -0.5688
  123OSM    H4G13080   5.718   4.600   6.909  1.1887 -0.1450  0.4557
  123OSM    C5F13081   5.796   4.716   7.084  0.0841 -0.2009 -0.8331
  123OSM    H5F13082   5.799   4.621   7.140 -1.0130  0.5785  0.6265
  123OSM    H5G13083   5.693   4.743   7.118  1.1179  2.0586  0.8471
  123OSM    C6F13084   5.899   4.819   7.127 -0.3813 -0.3319  0.1356
  123OSM    H6F13085   5.876   4.921   7.091  2.3492 -0.2779 -1.7821
  123OSM    H6G13086   6.001   4.790   7.093 -0.2929  0.0988  0.0262
  123OSM    C7F13087   5.929   4.828   7.281  0.2887 -0.8265  0.7122
  123OSM    H7F13088   6.009   4.904   7.297 -0.7917  0.1841  1.5295
  123OSM    H7G13089   5.960   4.730   7.321  0.3315 -2.1483 -2.2835
  123OSM    C8F13090   5.804   4.879   7.362 -0.0694 -0.1821  0.7830
  123OSM    H8F13091   5.707   4.850   7.317 -0.3145  1.0533  0.4560
  123OSM    H8G13092   5.799   4.990   7.356 -3.3161 -0.2585  0.3296
  123OSM    C9F13093   5.814   4.817   7.500 -0.8058 -0.1769 -0.3693
  123OSM    H9F13094   5.808   4.707   7.500  0.5827 -0.2785 -0.9602
  123OSM   C10F13095   5.842   4.890   7.611 -0.0319  0.8498 -0.2209
  123OSM   H10F13096   5.858   4.841   7.709 -2.3426  1.2122  0.3954
  123OSM   C11F13097   5.857   5.037   7.629  0.5707 -0.3857 -0.1331
  123OSM   H11F13098   5.836   5.086   7.531  1.1000 -1.1778 -0.6480
  123OSM   H11G13099   5.957   5.079   7.651 -0.0951  0.6118  1.1710
  123OSM   C12F13100   5.766   5.105   7.736 -0.9240 -0.2282  0.2791
  123OSM   H12F13101   5.661   5.069   7.733 -0.9865 -0.0742  0.6556
  123OSM   H12G13102   5.758   5.213   7.715 -0.0080 -0.2612 -0.3127
  123OSM   C13F13103   5.815   5.092   7.880  0.0098 -0.1369  0.8187
  123OSM   H13F13104   5.909   5.149   7.891 -0.6907  0.9213  1.5183
  123OSM   H13G13105   5.833   4.984   7.903 -1.2231 -0.4565  0.3542
  123OSM   C14F13106   5.704   5.131   7.983  0.1176  0.1627  0.7063
  123OSM   H14F13107   5.613   5.076   7.949 -2.4621  3.6579  1.4642
  123OSM   H14G13108   5.685   5.238   7.960  1.1761  0.1159 -0.5521
  123OSM   C15F13109   5.749   5.096   8.129 -0.4090 -0.0849 -0.5887
  123OSM   H15F13110   5.841   5.158   8.140  0.6663 -1.8617  1.1363
  123OSM   H15G13111   5.768   4.987   8.142 -4.7411 -1.3575 -3.0674
  123OSM   C16F13112   5.639   5.143   8.226 -0.1678 -0.1211 -0.3471
  123OSM   H16F13113   5.540   5.098   8.203  1.4381 -2.8438 -2.5720
  123OSM   H16G13114   5.647   5.253   8.209 -0.3910 -0.0129  0.2486
  123OSM   C17F13115   5.677   5.111   8.368 -0.7282 -0.6577  0.1854
  123OSM   H17F13116   5.767   5.167   8.400  1.0795 -3.2382 -0.1159
  123OSM   H17G13117   5.704   5.003   8.364 -1.4195 -0.8596  0.7850
  123OSM   C18F13118   5.568   5.147   8.466  0.4755  0.4385  0.1392
  123OSM   H18F13119   5.490   5.068   8.457  1.3046 -0.7916  2.8074
  123OSM   H18G13120   5.517   5.244   8.452  2.0498  1.7640  2.9236
  123OSM   H18H13121   5.608   5.136   8.569  2.1584  0.9679 -0.4305
  124OSM      N13122   1.682   1.131   6.267  0.1666  0.0189  0.8843
  124OSM    C1513123   1.726   1.039   6.377  0.1027  0.0394  0.8520
  124OSM   H15A13124   1.652   1.048   6.455 -0.5573  1.0771  0.1311
  124OSM   H15B13125   1.821   1.085   6.401  1.3201 -1.0845 -1.4505
  124OSM   H15C13126   1.744   0.941   6.335  2.6040  0.3089  1.1761
  124OSM    C1413127   1.798   1.132   6.174 -0.3604 -1.0361 -0.0222
  124OSM   H14A13128   1.767   1.188   6.087 -1.1555  2.0610  2.0764
  124OSM   H14B13129   1.836   1.034   6.151 -1.0699 -1.2002 -0.5248
  124OSM   H14C13130   1.881   1.188   6.215 -1.3162 -0.2514  0.9014
  124OSM    C1313131   1.557   1.078   6.205 -0.0443  0.8390  0.2514
  124OSM   H13A13132   1.513   1.147   6.134  1.9699  1.2776 -0.6437
  124OSM   H13B13133   1.478   1.063   6.277  0.3390 -1.2475  0.3068
  124OSM   H13C13134   1.579   0.989   6.148 -0.6809  2.9380 -3.6425
  124OSM    C1213135   1.645   1.264   6.313 -0.0055  0.8473 -0.9387
  124OSM   H12A13136   1.711   1.288   6.395  2.8498 -0.1506 -2.7851
  124OSM   H12B13137   1.551   1.258   6.366 -0.0364 -0.2947 -1.1045
  124OSM    C1113138   1.636   1.379   6.211  0.0930  0.1932  0.9370
  124OSM   H11A13139   1.731   1.388   6.155  0.4457 -3.7019  0.6729
  124OSM   H11B13140   1.626   1.475   6.268 -1.2491  0.6430 -0.0187
  124OSM      P13141   1.397   1.443   6.133 -0.1666  0.0057  0.4120
  124OSM    O1313142   1.433   1.579   6.083 -0.6717 -0.3782  0.0862
  124OSM    O1413143   1.286   1.370   6.067  1.0712 -0.2069  0.2328
  124OSM    O1113144   1.361   1.440   6.286 -0.7584 -0.3494 -0.1060
  124OSM    O1213145   1.530   1.360   6.122  0.8040  0.7321  0.1056
  124OSM    C1S13146   1.314   1.320   6.349  0.2041  0.1813 -0.0251
  124OSM    H1S13147   1.384   1.233   6.346  1.1027  0.8934 -0.2350
  124OSM    H1T13148   1.212   1.294   6.314  0.0077 -0.6622  1.1037
  124OSM     NF13149   1.274   1.237   6.584  0.2196 -0.2838 -0.0170
  124OSM    HNF13150   1.192   1.210   6.632 -0.0052 -2.4703 -1.5055
  124OSM    C2S13151   1.287   1.358   6.499 -0.1542 -0.2840  0.5708
  124OSM    H2S13152   1.375   1.418   6.529  0.0310 -0.7469  0.9766
  124OSM    C3S13153   1.166   1.454   6.510 -0.2263  0.1320 -0.0574
  124OSM    H3S13154   1.068   1.412   6.479 -0.0952  0.6149 -1.1927
  124OSM     O313155   1.185   1.572   6.425 -0.1449  0.2963 -0.4657
  124OSM    HO313156   1.254   1.545   6.365  0.3753  0.6394 -0.0293
  124OSM    C4S13157   1.150   1.519   6.649  0.7399 -0.2112  0.3334
  124OSM    H4S13158   1.229   1.592   6.671 -0.7705  1.9069 -0.8048
  124OSM    C5S13159   1.062   1.494   6.745 -0.4638  0.9795 -0.6228
  124OSM    H5S13160   0.979   1.422   6.731  1.1326 -1.1068  0.0775
  124OSM    C6S13161   1.065   1.551   6.883 -0.8706 -0.3051  0.7779
  124OSM    H6S13162   0.969   1.600   6.908 -1.3743 -1.0482  0.3549
  124OSM    H6T13163   1.139   1.631   6.902  0.2046 -1.2976  0.9130
  124OSM    C7S13164   1.080   1.444   6.989  0.0131  0.5062  0.4000
  124OSM    H7S13165   1.176   1.388   6.987  0.3908  1.1578 -0.5497
  124OSM    H7T13166   1.005   1.363   6.984  0.6319 -0.0511 -0.0411
  124OSM    C8S13167   1.068   1.506   7.129  0.1492 -0.7200 -0.7479
  124OSM    H8S13168   0.984   1.578   7.135  0.9513  0.2205 -0.3700
  124OSM    H8T13169   1.158   1.568   7.152  0.1148  0.4657 -3.4512
  124OSM    C9S13170   1.065   1.406   7.242  0.0192  0.1117  0.0613
  124OSM    H9S13171   1.128   1.317   7.224 -1.2794 -1.0326  0.9554
  124OSM    H9T13172   0.962   1.362   7.245 -0.2170  0.6526 -0.0126
  124OSM   C10S13173   1.090   1.464   7.383  0.1175 -0.1289  0.1836
  124OSM   H10S13174   1.035   1.560   7.400  1.3508  0.5428  0.4566
  124OSM   H10T13175   1.196   1.489   7.401  0.4697 -1.1209 -0.4563
  124OSM   C11S13176   1.052   1.363   7.494  0.5606  0.1990  0.5728
  124OSM   H11S13177   1.112   1.271   7.483  0.2073  0.0237  0.0635
  124OSM   H11T13178   0.945   1.333   7.482  0.3573 -0.6657  3.7673
  124OSM   C12S13179   1.067   1.430   7.630  0.3368  0.2558  0.1352
  124OSM   H12S13180   1.001   1.518   7.645  2.7724  2.3352 -0.6624
  124OSM   H12T13181   1.169   1.473   7.641 -0.0241  2.1596 -2.8332
  124OSM   C13S13182   1.016   1.338   7.745 -0.2758  0.4308 -0.5400
  124OSM   H13S13183   1.079   1.247   7.750  1.0832  1.3595  0.0425
  124OSM   H13T13184   0.908   1.319   7.730 -0.2419 -0.8143  0.6389
  124OSM   C14S13185   1.022   1.419   7.879 -0.0625  0.4597 -0.3173
  124OSM   H14S13186   0.934   1.485   7.875 -2.0475 -1.9333  0.9985
  124OSM   H14T13187   1.118   1.474   7.866 -0.4909  1.3810  0.2978
  124OSM   C15S13188   1.028   1.331   8.004  0.0054 -0.3806 -0.4384
  124OSM   H15S13189   1.106   1.252   7.998  0.1074 -0.2604 -0.7129
  124OSM   H15T13190   0.934   1.275   8.021  1.9520 -3.4149  1.3394
  124OSM   C16S13191   1.062   1.412   8.130 -0.4199  0.1065 -0.2417
  124OSM   H16S13192   1.024   1.516   8.130 -1.8516 -0.3750  1.3594
  124OSM   H16T13193   1.169   1.413   8.160 -0.0482 -0.0121 -1.5105
  124OSM   C17S13194   1.010   1.337   8.257 -0.4174 -0.3152 -0.2684
  124OSM   H17S13195   1.056   1.237   8.272  1.5263  0.8974  3.0036
  124OSM   H17T13196   0.901   1.323   8.247 -0.2447 -1.0428 -1.3226
  124OSM   C18S13197   1.039   1.407   8.386 -0.8607 -0.2506  0.0163
  124OSM   H18S13198   1.144   1.443   8.395 -0.5072 -1.3789  0.5817
  124OSM   H18T13199   1.015   1.345   8.474  2.0373 -0.8705  0.4926
  124OSM   H18U13200   0.980   1.501   8.391 -0.3321  0.4220 -3.6250
  124OSM    C1F13201   1.379   1.157   6.596  0.4111  0.3872 -0.2255
  124OSM     OF13202   1.486   1.204   6.557 -0.4340  0.1760 -0.3817
  124OSM    C2F13203   1.353   1.024   6.667 -0.2014  0.0229 -0.0521
  124OSM    H2F13204   1.394   0.939   6.608  2.2075 -0.1827  1.7546
  124OSM    H2G13205   1.245   1.001   6.678 -0.1113 -1.2985 -1.5140
  124OSM    C3F13206   1.417   1.001   6.806 -0.8135  0.1639  0.4573
  124OSM    H3F13207   1.525   1.027   6.795 -0.8976  0.5038  0.4255
  124OSM    H3G13208   1.423   0.890   6.815 -0.5288  0.1435  0.0368
  124OSM    C4F13209   1.360   1.085   6.926 -0.3471 -0.8216 -0.1061
  124OSM    H4F13210   1.266   1.029   6.947 -2.1062  0.7417 -3.0830
  124OSM    H4G13211   1.338   1.189   6.895  0.0949 -0.2882  1.2865
  124OSM    C5F13212   1.452   1.082   7.050  0.3545 -0.5196 -0.1860
  124OSM    H5F13213   1.550   1.127   7.025 -0.4692  0.9569 -0.8451
  124OSM    H5G13214   1.484   0.981   7.083 -0.6844 -0.2328  1.8896
  124OSM    C6F13215   1.399   1.143   7.181 -0.0408 -0.4700 -0.0641
  124OSM    H6F13216   1.306   1.093   7.216  0.6135 -1.2366  0.6071
  124OSM    H6G13217   1.374   1.248   7.153  2.0677 -0.2524 -1.3734
  124OSM    C7F13218   1.509   1.168   7.282 -0.2307  0.7342 -0.8159
  124OSM    H7F13219   1.592   1.229   7.240  0.8756 -0.1038  0.0658
  124OSM    H7G13220   1.543   1.066   7.310  0.7172  1.5844  1.3846
  124OSM    C8F13221   1.460   1.226   7.416 -0.5741  0.1671 -0.1704
  124OSM    H8F13222   1.412   1.325   7.402 -0.6543  0.3446  1.2686
  124OSM    H8G13223   1.552   1.243   7.476 -1.6638  0.0521  1.5854
  124OSM    C9F13224   1.355   1.142   7.479 -0.6208  0.0196  0.0127
  124OSM    H9F13225   1.259   1.137   7.425  0.3097 -2.3728 -1.5792
  124OSM   C10F13226   1.360   1.083   7.599  0.0947 -0.1793  0.3872
  124OSM   H10F13227   1.274   1.035   7.648 -0.3791  0.8468  0.5858
  124OSM   C11F13228   1.478   1.087   7.691 -0.1496  0.1009 -0.8806
  124OSM   H11F13229   1.577   1.092   7.641  0.5929 -1.8937  0.2314
  124OSM   H11G13230   1.486   0.990   7.745  1.0831  1.0761  0.8096
  124OSM   C12F13231   1.456   1.195   7.796 -0.1580  0.2138 -0.2125
  124OSM   H12F13232   1.353   1.200   7.838  0.1633 -1.0416  0.7946
  124OSM   H12G13233   1.486   1.293   7.753 -1.2249  1.1166  1.0344
  124OSM   C13F13234   1.550   1.172   7.919  0.3946 -0.4682 -0.2947
  124OSM   H13F13235   1.656   1.187   7.889  0.4369  1.5649  0.7304
  124OSM   H13G13236   1.531   1.067   7.951  0.4288 -0.6316 -0.8005
  124OSM   C14F13237   1.523   1.264   8.035 -0.4483  0.4582 -0.0592
  124OSM   H14F13238   1.423   1.239   8.077  0.4797 -2.2249  0.6962
  124OSM   H14G13239   1.515   1.366   7.991 -0.6827  0.8274  0.8084
  124OSM   C15F13240   1.629   1.266   8.146  0.0335  0.6595  0.2305
  124OSM   H15F13241   1.733   1.289   8.115 -0.3538  1.1820 -0.7364
  124OSM   H15G13242   1.634   1.170   8.203 -1.4525 -0.9474 -2.1633
  124OSM   C16F13243   1.603   1.373   8.256 -0.2052  0.3307  0.1276
  124OSM   H16F13244   1.493   1.384   8.268 -0.4730 -3.2297  2.3951
  124OSM   H16G13245   1.643   1.469   8.219  1.7851 -0.3867  0.3207
  124OSM   C17F13246   1.670   1.326   8.384  0.4751  0.1038 -0.3774
  124OSM   H17F13247   1.778   1.315   8.359  0.9729 -1.0307  1.9751
  124OSM   H17G13248   1.634   1.224   8.411  2.2073 -0.6724 -0.8929
  124OSM   C18F13249   1.638   1.421   8.498  0.0116  0.1998 -0.3234
  124OSM   H18F13250   1.700   1.408   8.589  0.6453 -0.5705 -0.8468
  124OSM   H18G13251   1.528   1.425   8.516 -0.2542  1.0576 -1.9871
  124OSM   H18H13252   1.659   1.522   8.458  1.3636  0.4003  0.8153
  125OSM      N13253   4.659   5.215   5.897 -0.0528  0.1590  0.4572
  125OSM    C1513254   4.632   5.252   6.039  0.1666 -0.2167 -0.0615
  125OSM   H15A13255   4.525   5.266   6.050  0.4071  1.5412  0.2877
  125OSM   H15B13256   4.692   5.337   6.067  0.0316  0.1064 -0.7390
  125OSM   H15C13257   4.658   5.180   6.116 -2.0162  1.0777  2.0259
  125OSM    C1413258   4.606   5.323   5.811  0.6587  0.2462 -0.2916
  125OSM   H14A13259   4.614   5.302   5.705  4.7711  4.6062 -1.1746
  125OSM   H14B13260   4.664   5.409   5.839 -0.7664  0.8016  1.1262
  125OSM   H14C13261   4.503   5.347   5.835  0.2922 -0.5271 -1.0395
  125OSM    C1313262   4.805   5.200   5.859 -0.0911  0.6458 -0.9233
  125OSM   H13A13263   4.813   5.179   5.753  0.5212 -2.5250 -0.3370
  125OSM   H13B13264   4.843   5.112   5.908 -0.2096  1.1238  0.0442
  125OSM   H13C13265   4.871   5.285   5.875  0.0185  0.4392 -0.2593
  125OSM    C1213266   4.589   5.083   5.857  0.1166  0.0274 -0.5201
  125OSM   H12A13267   4.610   5.068   5.752  3.7050  1.9991 -0.2817
  125OSM   H12B13268   4.485   5.099   5.880  0.6284  0.3047  1.8819
  125OSM    C1113269   4.609   4.952   5.941  0.7545 -0.4459 -0.1634
  125OSM   H11A13270   4.529   4.882   5.908 -1.3015  1.3392  0.7505
  125OSM   H11B13271   4.582   4.977   6.046  1.8179 -2.4400  0.6555
  125OSM      P13272   4.786   4.836   5.795 -0.1027  0.2024 -0.0134
  125OSM    O1313273   4.723   4.900   5.675  1.1870 -0.2888 -0.1663
  125OSM    O1413274   4.936   4.835   5.789 -0.5406 -0.0751  0.3571
  125OSM    O1113275   4.734   4.684   5.809  0.3665 -0.1081 -0.1934
  125OSM    O1213276   4.744   4.901   5.933  1.1882 -0.0248 -0.5728
  125OSM    C1S13277   4.779   4.608   5.921 -0.6017 -0.1906  0.2582
  125OSM    H1S13278   4.880   4.637   5.957 -0.2844 -0.3729 -0.4747
  125OSM    H1T13279   4.767   4.501   5.895 -1.1700  0.0561 -0.5287
  125OSM     NF13280   4.733   4.562   6.170  0.2009  0.0027  1.2881
  125OSM    HNF13281   4.715   4.466   6.186 -1.7727  0.1397  0.1857
  125OSM    C2S13282   4.676   4.618   6.043 -0.2372 -0.1754  0.1526
  125OSM    H2S13283   4.678   4.727   6.068  2.3061 -0.2884  0.7188
  125OSM    C3S13284   4.534   4.572   6.002 -0.3480  0.1052  0.3256
  125OSM    H3S13285   4.546   4.463   5.989  1.9176  0.4978 -1.3735
  125OSM     O313286   4.491   4.623   5.871  0.3981  0.0848 -0.2080
  125OSM    HO313287   4.578   4.641   5.835  0.2637  0.9007 -0.1620
  125OSM    C4S13288   4.420   4.597   6.097  0.3713 -0.4131  0.5456
  125OSM    H4S13289   4.406   4.700   6.131 -1.4572 -0.4480  0.0131
  125OSM    C5S13290   4.345   4.510   6.165  0.4096  0.6235  0.6467
  125OSM    H5S13291   4.364   4.402   6.155 -2.0714 -0.0176  2.0279
  125OSM    C6S13292   4.255   4.545   6.280 -0.4568  0.1487  1.2384
  125OSM    H6S13293   4.288   4.485   6.367 -1.3501 -0.6503  1.0462
  125OSM    H6T13294   4.154   4.510   6.249  0.2924 -1.6013  0.6315
  125OSM    C7S13295   4.241   4.701   6.325  0.2508  0.5901 -0.1263
  125OSM    H7S13296   4.192   4.765   6.248 -0.5303  0.6505  0.4201
  125OSM    H7T13297   4.344   4.734   6.352  0.2761  0.4248 -0.0239
  125OSM    C8S13298   4.147   4.706   6.447 -0.0227 -0.1827 -0.5512
  125OSM    H8S13299   4.049   4.656   6.433 -0.5160  1.0070 -1.5219
  125OSM    H8T13300   4.110   4.811   6.455  1.3897  0.2128  1.9457
  125OSM    C9S13301   4.211   4.648   6.576 -0.3667 -0.4515  0.8847
  125OSM    H9S13302   4.320   4.666   6.591  0.4578 -1.8540 -2.5746
  125OSM    H9T13303   4.211   4.538   6.569 -3.2927 -0.5372  0.8640
  125OSM   C10S13304   4.137   4.698   6.701 -0.6475 -0.2677 -0.2282
  125OSM   H10S13305   4.030   4.669   6.697 -0.0042 -2.7962 -0.4248
  125OSM   H10T13306   4.144   4.805   6.731 -1.3903 -0.4814  0.7895
  125OSM   C11S13307   4.203   4.628   6.824  0.8090 -0.0383 -0.0265
  125OSM   H11S13308   4.308   4.660   6.839  0.7727 -0.8493  2.4992
  125OSM   H11T13309   4.211   4.518   6.807  1.9108 -0.2520  1.6753
  125OSM   C12S13310   4.118   4.661   6.956 -0.2823  0.6398  0.4800
  125OSM   H12S13311   4.023   4.603   6.957  0.7507 -1.3708  4.3661
  125OSM   H12T13312   4.111   4.771   6.968 -2.0023  0.7926 -1.3424
  125OSM   C13S13313   4.196   4.615   7.088 -0.1686 -0.0248  0.2624
  125OSM   H13S13314   4.303   4.640   7.101 -1.1194  3.7051  2.3594
  125OSM   H13T13315   4.188   4.504   7.086  3.6963 -0.4136 -0.3317
  125OSM   C14S13316   4.121   4.669   7.211 -0.1967  0.8141  0.0784
  125OSM   H14S13317   4.019   4.626   7.224  0.2453  0.0130  0.9847
  125OSM   H14T13318   4.098   4.777   7.204 -2.3308  0.3469 -1.1076
  125OSM   C15S13319   4.193   4.638   7.339  0.4970 -0.4890 -0.3664
  125OSM   H15S13320   4.301   4.642   7.314  0.7028 -0.5305  0.5110
  125OSM   H15T13321   4.183   4.529   7.361  0.8655 -0.9196 -2.1476
  125OSM   C16S13322   4.154   4.719   7.458 -0.2574 -0.0554  0.0156
  125OSM   H16S13323   4.048   4.706   7.489 -0.2686  2.3483  1.2148
  125OSM   H16T13324   4.171   4.824   7.425  0.1476 -0.7970 -2.3182
  125OSM   C17S13325   4.241   4.692   7.573 -0.0965 -0.7407 -0.9932
  125OSM   H17S13326   4.343   4.726   7.545 -1.0252  3.2136 -0.1680
  125OSM   H17T13327   4.242   4.585   7.605 -2.0452 -0.2546  0.8963
  125OSM   C18S13328   4.195   4.782   7.694  0.6385 -0.1511  0.0759
  125OSM   H18S13329   4.260   4.787   7.784 -0.9750  0.2972  1.2631
  125OSM   H18T13330   4.093   4.757   7.729  0.8245  0.6183  1.2075
  125OSM   H18U13331   4.208   4.886   7.655 -1.8803  0.1139 -0.2170
  125OSM    C1F13332   4.833   4.616   6.236 -0.1188  0.0070 -0.2999
  125OSM     OF13333   4.887   4.728   6.205 -0.5312 -0.2593 -0.4412
  125OSM    C2F13334   4.881   4.540   6.355 -0.5346  0.1009  0.1623
  125OSM    H2F13335   4.913   4.436   6.336  1.4338  0.6671  0.2124
  125OSM    H2G13336   4.795   4.528   6.425 -0.0544  1.4266  1.0145
  125OSM    C3F13337   4.997   4.604   6.426 -0.2815  1.2254 -0.6435
  125OSM    H3F13338   4.978   4.700   6.479  0.9838  1.5342 -0.7361
  125OSM    H3G13339   5.082   4.609   6.355  1.8294  2.1406  1.7802
  125OSM    C4F13340   5.046   4.513   6.542 -0.0827 -1.0664  0.9784
  125OSM    H4F13341   5.142   4.549   6.584 -0.9689  0.8464  1.4951
  125OSM    H4G13342   5.064   4.411   6.501 -2.8390 -0.3426 -2.4626
  125OSM    C5F13343   4.929   4.492   6.644 -0.7287  0.3406  0.1063
  125OSM    H5F13344   4.864   4.414   6.598 -0.4886  0.1553  0.0802
  125OSM    H5G13345   4.864   4.581   6.652 -1.4539 -0.2848  1.4653
  125OSM    C6F13346   4.974   4.456   6.790 -0.2147 -0.2248 -0.8937
  125OSM    H6F13347   4.885   4.416   6.842 -0.3422  1.5439  0.3610
  125OSM    H6G13348   5.006   4.551   6.838 -0.1165 -0.5999 -0.1950
  125OSM    C7F13349   5.091   4.356   6.805  0.3037 -0.3630  0.5261
  125OSM    H7F13350   5.187   4.411   6.807 -0.7047  1.5581 -0.8313
  125OSM    H7G13351   5.101   4.303   6.708  2.1409  1.0824 -0.1375
  125OSM    C8F13352   5.077   4.268   6.928  0.4129  0.6790 -1.1673
  125OSM    H8F13353   4.984   4.210   6.913 -0.4015  2.0140 -1.5095
  125OSM    H8G13354   5.071   4.322   7.025 -1.7477 -0.4554 -0.6078
  125OSM    C9F13355   5.186   4.165   6.929 -0.0821 -0.5618 -0.6393
  125OSM    H9F13356   5.241   4.152   6.834  0.7932  0.2510 -0.2573
  125OSM   C10F13357   5.217   4.094   7.035  0.3890 -0.0937  0.6097
  125OSM   H10F13358   5.290   4.012   7.029  0.9257  0.4683 -1.8700
  125OSM   C11F13359   5.151   4.104   7.170  0.4709  0.6722  0.2912
  125OSM   H11F13360   5.093   4.009   7.182  0.9741  0.2782 -0.2901
  125OSM   H11G13361   5.083   4.191   7.172 -1.6015 -0.8651  1.8034
  125OSM   C12F13362   5.256   4.114   7.283 -0.2857  0.7516 -0.0091
  125OSM   H12F13363   5.347   4.173   7.257 -1.0413  1.1378 -1.9460
  125OSM   H12G13364   5.295   4.012   7.305 -2.8442 -0.3702 -0.3263
  125OSM   C13F13365   5.196   4.170   7.408  0.3556 -0.7909  0.0045
  125OSM   H13F13366   5.107   4.106   7.431 -0.2483 -0.2622 -0.8083
  125OSM   H13G13367   5.164   4.275   7.396  3.1296  0.1796  0.3767
  125OSM   C14F13368   5.296   4.153   7.525 -0.6683 -0.0275  0.4986
  125OSM   H14F13369   5.367   4.239   7.529 -1.7030  0.8242  3.0965
  125OSM   H14G13370   5.362   4.065   7.511 -0.4859 -0.0106  1.2045
  125OSM   C15F13371   5.222   4.144   7.663 -0.0151 -0.3561  0.6697
  125OSM   H15F13372   5.151   4.062   7.638 -1.6553  0.8420  1.2327
  125OSM   H15G13373   5.159   4.233   7.684  1.2787  0.5756  0.7585
  125OSM   C16F13374   5.312   4.133   7.790 -0.0864  0.2571  0.9495
  125OSM   H16F13375   5.386   4.216   7.786 -0.3560  0.4396 -0.6248
  125OSM   H16G13376   5.363   4.034   7.790  1.5106  0.9726 -2.2431
  125OSM   C17F13377   5.228   4.141   7.919 -0.5494 -0.3657 -0.1610
  125OSM   H17F13378   5.152   4.060   7.921  2.1648 -3.1396  0.1799
  125OSM   H17G13379   5.171   4.234   7.900  0.9862  0.5920 -0.2886
  125OSM   C18F13380   5.322   4.150   8.044  0.0562 -0.4594  0.9015
  125OSM   H18F13381   5.394   4.231   8.017 -1.4208  0.3227 -0.8940
  125OSM   H18G13382   5.366   4.052   8.072  0.1507 -1.3654 -2.0793
  125OSM   H18H13383   5.271   4.191   8.134  2.1759  2.1274  1.0593
  126OSM      N13384   6.721   3.228   5.924 -0.2539  0.3293  0.1901
  126OSM    C1513385   6.571   3.223   5.929 -0.7351 -0.0661  0.6522
  126OSM   H15A13386   6.542   3.137   5.870  0.4679 -1.0996  1.5116
  126OSM   H15B13387   6.524   3.312   5.890  0.5945 -0.4817 -2.1675
  126OSM   H15C13388   6.535   3.193   6.026  1.2628 -0.3460  1.3453
  126OSM    C1413389   6.775   3.092   5.937 -0.1024 -0.4037 -0.0945
  126OSM   H14A13390   6.784   3.061   5.834  0.8356 -1.5843  0.3221
  126OSM   H14B13391   6.720   3.022   5.998 -1.0432  0.4412  0.0551
  126OSM   H14C13392   6.877   3.100   5.970  0.5153  0.9636 -2.1328
  126OSM    C1313393   6.779   3.283   5.798  0.5755  0.0690 -0.5585
  126OSM   H13A13394   6.731   3.227   5.719 -1.0480 -0.9006  1.0262
  126OSM   H13B13395   6.884   3.258   5.790  0.3077 -1.0692 -0.7921
  126OSM   H13C13396   6.764   3.389   5.800  0.1615  0.0044  0.5886
  126OSM    C1213397   6.762   3.313   6.050  0.3319 -0.0595  0.2088
  126OSM   H12A13398   6.742   3.266   6.144  2.1810  2.3190  1.9304
  126OSM   H12B13399   6.704   3.403   6.030 -0.9862 -1.2344 -1.6133
  126OSM    C1113400   6.908   3.355   6.072 -0.0105 -0.4220 -0.1231
  126OSM   H11A13401   6.930   3.435   6.146  1.9307 -1.3093  0.3297
  126OSM   H11B13402   6.934   3.407   5.976  1.0598  0.1295  0.4439
  126OSM      P13403   6.991   3.178   6.235 -0.2483  0.3807  0.3327
  126OSM    O1313404   6.852   3.167   6.283 -0.6444  0.3978 -0.4247
  126OSM    O1413405   7.075   3.052   6.233  0.5490 -0.1547  0.4380
  126OSM    O1113406   7.068   3.286   6.327  0.2436  0.1859  0.2435
  126OSM    O1213407   6.989   3.238   6.086 -0.0126  0.3713  0.3612
  126OSM    C1S13408   7.184   3.346   6.275  0.2177  0.1084 -0.5416
  126OSM    H1S13409   7.163   3.408   6.185  0.0303 -0.8125 -1.1480
  126OSM    H1T13410   7.264   3.275   6.246 -0.1539 -0.4609 -0.2076
  126OSM     NF13411   7.362   3.519   6.342 -0.5056  0.6306  0.0696
  126OSM    HNF13412   7.451   3.511   6.385 -0.0687  0.5049 -0.8220
  126OSM    C2S13413   7.259   3.430   6.388  0.7328  0.5835  0.1285
  126OSM    H2S13414   7.182   3.487   6.444  1.8320  1.5717  0.6764
  126OSM    C3S13415   7.311   3.331   6.489  0.4337  0.0998 -0.8330
  126OSM    H3S13416   7.393   3.274   6.440  2.1363  2.4800 -0.9165
  126OSM     O313417   7.226   3.222   6.520 -0.2203 -0.4148 -0.1109
  126OSM    HO313418   7.150   3.237   6.463 -1.9815 -0.9596  1.9544
  126OSM    C4S13419   7.374   3.390   6.607 -0.3451 -0.4436 -0.4400
  126OSM    H4S13420   7.484   3.385   6.611  0.0506  4.3583  1.1927
  126OSM    C5S13421   7.315   3.427   6.726  0.0286 -0.0171  0.7551
  126OSM    H5S13422   7.206   3.413   6.733 -0.0155 -2.2878 -2.2391
  126OSM    C6S13423   7.384   3.475   6.849 -0.5266 -0.2926  0.1138
  126OSM    H6S13424   7.342   3.571   6.887  0.5116 -0.1598  0.9462
  126OSM    H6T13425   7.489   3.503   6.828 -1.3206  0.7528 -3.0323
  126OSM    C7S13426   7.383   3.375   6.964 -0.4570 -0.2007 -0.1786
  126OSM    H7S13427   7.419   3.278   6.924  0.2740 -0.1948  0.4403
  126OSM    H7T13428   7.279   3.352   6.996 -0.4791 -0.2960 -0.3175
  126OSM    C8S13429   7.463   3.422   7.086 -0.8230 -0.6427 -0.1881
  126OSM    H8S13430   7.442   3.528   7.111  1.0747 -0.2463 -0.0995
  126OSM    H8T13431   7.570   3.415   7.056 -0.6992  2.9638 -1.0524
  126OSM    C9S13432   7.444   3.319   7.200 -0.2867  0.2165 -0.0550
  126OSM    H9S13433   7.483   3.219   7.173 -2.4875 -0.1837 -2.0486
  126OSM    H9T13434   7.335   3.299   7.203 -0.2022 -0.2541 -0.1506
  126OSM   C10S13435   7.484   3.368   7.337  0.2864  0.2920  0.2014
  126OSM   H10S13436   7.441   3.470   7.348 -0.3992 -0.1417  1.7126
  126OSM   H10T13437   7.595   3.362   7.338  0.3087  0.3338  2.5449
  126OSM   C11S13438   7.425   3.281   7.445  0.2437  0.0808 -0.3688
  126OSM   H11S13439   7.428   3.175   7.412  0.7592 -0.7424  2.0649
  126OSM   H11T13440   7.322   3.313   7.473  0.7610  0.6663  0.9328
  126OSM   C12S13441   7.501   3.292   7.576 -0.5805 -0.1145  0.0295
  126OSM   H12S13442   7.510   3.395   7.618 -2.0767  0.7732 -1.6553
  126OSM   H12T13443   7.606   3.261   7.560 -0.6688  0.2356 -1.3424
  126OSM   C13S13444   7.450   3.200   7.685 -0.4560  0.3071  0.2692
  126OSM   H13S13445   7.488   3.099   7.658  0.0064  0.3009  0.9209
  126OSM   H13T13446   7.339   3.192   7.675 -0.3761 -0.0464 -0.4627
  126OSM   C14S13447   7.494   3.231   7.830  0.5153  0.9111  0.1882
  126OSM   H14S13448   7.435   3.316   7.869 -0.8087  0.4887 -0.8418
  126OSM   H14T13449   7.600   3.263   7.838  0.1076  2.2941  0.4218
  126OSM   C15S13450   7.472   3.110   7.911  0.5918  0.4570  0.1771
  126OSM   H15S13451   7.545   3.031   7.881  0.0483  0.1564 -0.3625
  126OSM   H15T13452   7.369   3.076   7.891  1.0281  0.3110 -2.0107
  126OSM   C16S13453   7.504   3.141   8.059  0.5658  0.2349 -0.5348
  126OSM   H16S13454   7.445   3.229   8.094  1.4431  0.2757  0.9517
  126OSM   H16T13455   7.609   3.169   8.081  0.9183 -0.3493 -1.4437
  126OSM   C17S13456   7.474   3.020   8.153 -0.1262  0.2343 -0.1739
  126OSM   H17S13457   7.554   2.943   8.153  0.3997  0.7534 -0.9433
  126OSM   H17T13458   7.389   2.969   8.104 -0.6384  1.8428 -1.0636
  126OSM   C18S13459   7.432   3.048   8.298  0.1066 -0.7424  0.8737
  126OSM   H18S13460   7.513   3.055   8.374  0.3025  0.5891  0.5745
  126OSM   H18T13461   7.356   2.972   8.326 -0.6456 -0.5368 -0.5178
  126OSM   H18U13462   7.382   3.148   8.303  2.4707  0.6585 -1.2020
  126OSM    C1F13463   7.332   3.617   6.258 -0.0765  0.1856  0.8509
  126OSM     OF13464   7.219   3.620   6.215 -0.2432 -0.0430  0.5284
  126OSM    C2F13465   7.441   3.711   6.202  0.5218 -1.0150  0.4757
  126OSM    H2F13466   7.447   3.704   6.092 -1.1922 -2.2553  0.4069
  126OSM    H2G13467   7.537   3.671   6.242  1.3113  0.0108 -0.3506
  126OSM    C3F13468   7.426   3.852   6.252 -0.0268  0.0884 -0.6449
  126OSM    H3F13469   7.318   3.875   6.247 -0.1249 -0.5447 -3.2415
  126OSM    H3G13470   7.465   3.921   6.174  1.9659 -0.5970 -0.3255
  126OSM    C4F13471   7.491   3.880   6.392 -0.7161 -0.0615  0.0164
  126OSM    H4F13472   7.565   3.801   6.417 -0.6039 -0.4925 -1.5994
  126OSM    H4G13473   7.414   3.864   6.470  0.0963  0.9788  1.0788
  126OSM    C5F13474   7.554   4.021   6.405 -0.0326  0.7412 -0.1013
  126OSM    H5F13475   7.489   4.109   6.429  1.5704  1.4864  1.7545
  126OSM    H5G13476   7.615   4.044   6.315  2.0461  2.7123  1.6743
  126OSM    C6F13477   7.664   4.025   6.512  0.1856 -0.2541 -0.7010
  126OSM    H6F13478   7.710   4.125   6.521  0.1404 -0.4360  2.5460
  126OSM    H6G13479   7.750   3.958   6.492 -0.1322 -1.3099  1.3082
  126OSM    C7F13480   7.607   3.993   6.649 -0.1540 -0.4539 -0.5009
  126OSM    H7F13481   7.585   3.885   6.666  0.8107 -0.5174  0.4042
  126OSM    H7G13482   7.519   4.055   6.675  1.1613  0.3359  2.4394
  126OSM    C8F13483   7.711   4.022   6.761 -0.1800 -0.3518 -0.5441
  126OSM    H8F13484   7.811   3.980   6.739  0.0357  0.3275 -0.8814
  126OSM    H8G13485   7.682   3.976   6.858 -0.2410  3.9344  1.7145
  126OSM    C9F13486   7.741   4.172   6.783  0.1037  0.1067 -0.3166
  126OSM    H9F13487   7.805   4.218   6.707  0.8328 -0.5145 -0.0814
  126OSM   C10F13488   7.682   4.242   6.882 -0.0677 -0.0482  0.5499
  126OSM   H10F13489   7.713   4.348   6.887  1.5957 -0.5004  0.4580
  126OSM   C11F13490   7.584   4.189   6.981  0.3886 -0.7579 -0.3366
  126OSM   H11F13491   7.541   4.089   6.960 -0.2105 -0.5892  0.0639
  126OSM   H11G13492   7.487   4.243   6.989  0.9790  0.2843 -0.0173
  126OSM   C12F13493   7.647   4.178   7.123  0.6556  0.4144  0.1484
  126OSM   H12F13494   7.670   4.283   7.151  2.0567  0.4283 -0.9784
  126OSM   H12G13495   7.739   4.115   7.124  0.1319 -0.3678  0.4010
  126OSM   C13F13496   7.544   4.127   7.225 -0.4528 -0.0732  0.5099
  126OSM   H13F13497   7.519   4.026   7.186 -1.3641  0.9177 -1.6374
  126OSM   H13G13498   7.446   4.177   7.209 -0.3703 -0.7665 -2.8485
  126OSM   C14F13499   7.598   4.135   7.367 -0.3235  0.6064  0.5767
  126OSM   H14F13500   7.601   4.239   7.407  2.0505  0.7956  0.0537
  126OSM   H14G13501   7.703   4.100   7.372 -0.5167 -0.8093 -2.5766
  126OSM   C15F13502   7.512   4.058   7.468 -0.0134 -0.0918 -0.0326
  126OSM   H15F13503   7.511   3.953   7.432  2.0061  0.0454 -0.6528
  126OSM   H15G13504   7.404   4.080   7.456 -0.1135  0.4831  1.6458
  126OSM   C16F13505   7.562   4.085   7.608  0.0376 -0.2662 -0.6515
  126OSM   H16F13506   7.551   4.193   7.633 -0.5559 -0.3096 -0.7151
  126OSM   H16G13507   7.670   4.060   7.620 -0.0575  0.0154  1.0412
  126OSM   C17F13508   7.491   3.998   7.718 -0.4636 -1.0053  0.4879
  126OSM   H17F13509   7.506   3.889   7.704  0.3730 -0.7757 -0.5204
  126OSM   H17G13510   7.382   4.018   7.705 -0.2924  0.6224  1.3072
  126OSM   C18F13511   7.517   4.042   7.866  0.6916 -0.3605  0.4534
  126OSM   H18F13512   7.464   4.138   7.886 -1.6416 -1.7861  1.5789
  126OSM   H18G13513   7.627   4.044   7.882  1.2466  0.3367 -2.7750
  126OSM   H18H13514   7.478   3.972   7.943  0.3673 -1.4241 -0.6430
  127OSM      N13515   5.721   6.151   6.161 -0.0946 -0.3359 -0.2176
  127OSM    C1513516   5.612   6.231   6.091 -1.1134  0.7914 -0.3505
  127OSM   H15A13517   5.534   6.270   6.155 -2.3046 -1.1640 -0.4984
  127OSM   H15B13518   5.567   6.169   6.014 -0.2962 -0.6114  0.2569
  127OSM   H15C13519   5.647   6.320   6.041  1.3850  0.2284  0.2977
  127OSM    C1413520   5.755   6.220   6.293 -0.8396 -0.0377  0.0536
  127OSM   H14A13521   5.671   6.238   6.359  0.9018  2.6059  1.7351
  127OSM   H14B13522   5.802   6.316   6.279  0.8331 -0.1469  3.7258
  127OSM   H14C13523   5.821   6.160   6.354  0.2003  1.5490  0.5721
  127OSM    C1313524   5.656   6.013   6.196  0.4192  0.2702  0.0484
  127OSM   H13A13525   5.724   5.934   6.221 -0.9329 -2.1686 -3.1700
  127OSM   H13B13526   5.593   5.980   6.114  0.1627 -1.3349  0.8689
  127OSM   H13C13527   5.610   6.017   6.294 -0.2860  1.1700 -0.2989
  127OSM    C1213528   5.846   6.124   6.078 -0.4017  0.5089  0.8389
  127OSM   H12A13529   5.895   6.217   6.056 -1.0275  0.7915  0.6159
  127OSM   H12B13530   5.816   6.076   5.986 -0.5251  0.7397  0.7586
  127OSM    C1113531   5.963   6.040   6.138  0.3077  0.5585 -0.2409
  127OSM   H11A13532   5.989   6.091   6.234 -0.8694 -1.0940  1.0089
  127OSM   H11B13533   6.045   6.052   6.064 -1.6488  1.1657 -2.4405
  127OSM      P13534   6.035   5.785   6.142 -0.4121 -0.2604  0.0197
  127OSM    O1313535   5.959   5.665   6.113 -0.5817  0.6336  0.0030
  127OSM    O1413536   6.158   5.818   6.064  0.6043 -0.1285  0.7112
  127OSM    O1113537   6.072   5.769   6.296 -0.6541  0.5310  0.1415
  127OSM    O1213538   5.928   5.900   6.152  0.4637 -0.3139 -0.6835
  127OSM    C1S13539   5.976   5.725   6.393  0.2862 -0.5075  0.1197
  127OSM    H1S13540   5.971   5.614   6.382 -0.6175 -0.6437  1.7096
  127OSM    H1T13541   5.878   5.775   6.382  1.1647  0.9825 -1.3433
  127OSM     NF13542   5.927   5.714   6.632  0.2922  0.5062  0.2949
  127OSM    HNF13543   5.863   5.778   6.675  0.5696  0.6284  0.5302
  127OSM    C2S13544   6.027   5.757   6.530 -0.1424 -1.0199 -0.2796
  127OSM    H2S13545   6.129   5.716   6.548  0.3051 -0.0400 -0.4919
  127OSM    C3S13546   6.035   5.916   6.530  0.2219  0.6275  0.0785
  127OSM    H3S13547   5.929   5.946   6.514 -0.6523  0.1874  3.9475
  127OSM     O313548   6.123   5.975   6.435 -0.5245 -0.4526  0.0431
  127OSM    HO313549   6.116   5.906   6.369 -0.4216 -0.7664  0.3529
  127OSM    C4S13550   6.066   5.966   6.665  0.8466 -0.3830 -0.1375
  127OSM    H4S13551   5.980   5.959   6.732  1.3691  2.7189  1.0158
  127OSM    C5S13552   6.178   6.017   6.709 -0.4086  0.5739 -0.7826
  127OSM    H5S13553   6.261   6.035   6.640  0.6158  2.2671  0.7839
  127OSM    C6S13554   6.194   6.066   6.846 -0.3594 -0.2403  1.0877
  127OSM    H6S13555   6.257   6.158   6.843 -0.3754 -0.2268 -1.9216
  127OSM    H6T13556   6.260   5.998   6.904  2.4562  0.6303 -0.8687
  127OSM    C7S13557   6.068   6.090   6.934 -0.0449  0.1106  0.4528
  127OSM    H7S13558   6.017   5.991   6.943  0.5390 -0.2769 -0.3248
  127OSM    H7T13559   5.997   6.144   6.868  0.1688  2.1772  1.8444
  127OSM    C8S13560   6.084   6.176   7.056  0.1089 -1.0799 -0.1602
  127OSM    H8S13561   5.981   6.190   7.095 -0.2574  0.9067 -1.6824
  127OSM    H8T13562   6.138   6.266   7.021  3.2073 -2.3295  1.0442
  127OSM    C9S13563   6.159   6.102   7.168 -0.1881 -0.3584  0.3382
  127OSM    H9S13564   6.247   6.050   7.126  0.4500  1.3466 -0.5539
  127OSM    H9T13565   6.085   6.026   7.203 -1.9441 -0.7032 -3.6506
  127OSM   C10S13566   6.231   6.182   7.272  0.0362  0.5026 -1.2311
  127OSM   H10S13567   6.155   6.245   7.323 -0.0090  0.7697 -1.6224
  127OSM   H10T13568   6.295   6.263   7.231  0.2744  0.4859 -0.9024
  127OSM   C11S13569   6.311   6.094   7.365 -0.4123  0.3047 -0.1195
  127OSM   H11S13570   6.404   6.146   7.399 -0.1822 -1.2590  1.8154
  127OSM   H11T13571   6.336   5.996   7.320 -0.1340  0.8951 -1.2842
  127OSM   C12S13572   6.228   6.068   7.492 -0.1008 -0.2127 -0.0234
  127OSM   H12S13573   6.148   5.997   7.463  0.2703 -0.2907 -0.9012
  127OSM   H12T13574   6.178   6.158   7.532 -0.8732  0.5533 -2.5483
  127OSM   C13S13575   6.312   5.990   7.599  0.1126  0.1124  0.7483
  127OSM   H13S13576   6.371   6.068   7.651  2.3030 -1.4355  0.7156
  127OSM   H13T13577   6.378   5.914   7.553 -1.3948 -1.4569  1.0505
  127OSM   C14S13578   6.217   5.926   7.698  0.4111 -0.2089  0.0988
  127OSM   H14S13579   6.277   5.863   7.767  0.1978 -1.1860 -0.5851
  127OSM   H14T13580   6.140   5.868   7.643 -0.8071  1.1724  0.2667
  127OSM   C15S13581   6.128   6.032   7.775  0.0760  0.6590  0.9826
  127OSM   H15S13582   6.056   6.076   7.703  0.0766 -0.7776  0.0477
  127OSM   H15T13583   6.187   6.114   7.820  0.6098  0.3217  0.9146
  127OSM   C16S13584   6.049   5.972   7.892 -0.4937  0.0978  0.2750
  127OSM   H16S13585   6.012   6.053   7.959  0.2422  0.0419  0.7590
  127OSM   H16T13586   6.120   5.920   7.959  4.0522  0.7839 -3.4563
  127OSM   C17S13587   5.945   5.864   7.850 -0.0167 -0.3028 -0.7601
  127OSM   H17S13588   5.996   5.782   7.794 -2.8408 -1.8427 -1.2511
  127OSM   H17T13589   5.880   5.908   7.771 -0.0846  2.0134  0.5236
  127OSM   C18S13590   5.873   5.779   7.957  0.4666  0.4805 -0.6097
  127OSM   H18S13591   5.792   5.727   7.903 -0.6285  2.8623 -1.3853
  127OSM   H18T13592   5.845   5.844   8.043 -2.0925  0.5299 -1.4135
  127OSM   H18U13593   5.946   5.703   7.994  1.4975  1.2843 -0.9248
  127OSM    C1F13594   5.909   5.587   6.656  0.3524  0.4689  0.1741
  127OSM     OF13595   5.972   5.507   6.596  0.6461  0.3291  0.0585
  127OSM    C2F13596   5.812   5.559   6.760  0.0714  0.1072 -0.4214
  127OSM    H2F13597   5.779   5.661   6.791 -0.3564  1.1977 -4.0713
  127OSM    H2G13598   5.863   5.503   6.841  2.3497 -0.2638 -2.0386
  127OSM    C3F13599   5.681   5.507   6.700 -0.9648 -0.0745 -0.7840
  127OSM    H3F13600   5.600   5.482   6.772  0.4101  1.4985  1.4408
  127OSM    H3G13601   5.708   5.413   6.647  0.1710 -1.1382  1.5470
  127OSM    C4F13602   5.614   5.608   6.605 -0.3165  0.0935 -0.3171
  127OSM    H4F13603   5.663   5.610   6.505  0.0924 -2.9685 -0.2799
  127OSM    H4G13604   5.611   5.708   6.654  0.1303  0.7132 -1.5103
  127OSM    C5F13605   5.461   5.573   6.581 -0.2999  0.4172 -0.1889
  127OSM    H5F13606   5.461   5.464   6.557  0.6027  0.2272  0.6054
  127OSM    H5G13607   5.411   5.628   6.499 -1.0928  1.6632  1.0865
  127OSM    C6F13608   5.354   5.575   6.694  0.2881  0.0285 -0.0319
  127OSM    H6F13609   5.361   5.479   6.750  0.1353 -0.1354 -0.2898
  127OSM    H6G13610   5.250   5.575   6.656  0.6551 -0.5487 -1.1027
  127OSM    C7F13611   5.363   5.701   6.785 -0.1386  0.1943  0.4924
  127OSM    H7F13612   5.323   5.786   6.727  0.4200  0.8082  0.9776
  127OSM    H7G13613   5.466   5.737   6.807 -0.3131  1.9003 -1.2935
  127OSM    C8F13614   5.274   5.696   6.908  0.1582  0.1731  0.3984
  127OSM    H8F13615   5.188   5.638   6.869  0.0360  0.8174 -0.3161
  127OSM    H8G13616   5.244   5.796   6.945 -0.8624  0.1659 -0.3698
  127OSM    C9F13617   5.350   5.618   7.017  0.5474  0.0893  0.2320
  127OSM    H9F13618   5.409   5.531   6.986 -0.3959 -1.1756  1.8037
  127OSM   C10F13619   5.360   5.654   7.143 -0.0149 -0.2211 -0.0191
  127OSM   H10F13620   5.415   5.597   7.220  0.6510 -1.9816 -1.7102
  127OSM   C11F13621   5.288   5.776   7.195  0.2322 -0.3856  0.4487
  127OSM   H11F13622   5.203   5.820   7.139 -0.1611  1.3024  2.2433
  127OSM   H11G13623   5.368   5.852   7.198  2.3977 -2.4291 -1.5750
  127OSM   C12F13624   5.219   5.761   7.335 -0.7463  0.2050  0.7769
  127OSM   H12F13625   5.139   5.685   7.321  0.3290 -0.6449 -1.1833
  127OSM   H12G13626   5.158   5.850   7.361 -1.2951 -0.1164  0.6028
  127OSM   C13F13627   5.325   5.723   7.448 -0.1884  0.1719  0.5263
  127OSM   H13F13628   5.424   5.737   7.400 -1.1143 -0.4071 -1.6984
  127OSM   H13G13629   5.319   5.615   7.474  1.4617 -0.7493 -2.4729
  127OSM   C14F13630   5.305   5.804   7.570  0.5979 -0.2243 -0.3836
  127OSM   H14F13631   5.204   5.786   7.613  0.5670  2.4451  0.9197
  127OSM   H14G13632   5.322   5.914   7.563 -1.9727  0.5269  2.9112
  127OSM   C15F13633   5.396   5.756   7.683 -0.2262  0.3483 -0.4043
  127OSM   H15F13634   5.505   5.752   7.660  0.0302  0.9231  0.6142
  127OSM   H15G13635   5.369   5.650   7.702 -0.9489  0.6267  0.1479
  127OSM   C16F13636   5.382   5.834   7.809  0.1119 -0.4327 -0.6524
  127OSM   H16F13637   5.278   5.832   7.850  0.4864 -2.1687  0.3084
  127OSM   H16G13638   5.407   5.941   7.797  0.1378 -0.3830 -0.1711
  127OSM   C17F13639   5.472   5.783   7.921  0.4020  0.6650  0.8076
  127OSM   H17F13640   5.569   5.736   7.893  0.5437  2.0200 -1.1776
  127OSM   H17G13641   5.416   5.700   7.970 -0.9770  1.1943  0.1759
  127OSM   C18F13642   5.502   5.884   8.032 -0.8306 -0.5808  0.0511
  127OSM   H18F13643   5.408   5.922   8.077 -0.6919  0.6242 -0.6397
  127OSM   H18G13644   5.560   5.964   7.982 -0.4050 -1.4116 -0.8275
  127OSM   H18H13645   5.575   5.844   8.106  0.4374 -1.3471 -1.5398
  128OSM      N13646   6.003   1.618   6.092  0.0116  0.3120 -0.7090
  128OSM    C1513647   6.036   1.712   5.988 -0.1425 -0.1771  0.5538
  128OSM   H15A13648   6.128   1.768   5.998  0.8575 -0.8343 -3.1973
  128OSM   H15B13649   5.957   1.783   5.967 -0.0366  0.4249  2.0483
  128OSM   H15C13650   6.062   1.664   5.894  0.7026  1.0124  0.1536
  128OSM    C1413651   5.885   1.533   6.052 -0.3013  0.2831  0.1749
  128OSM   H14A13652   5.841   1.495   6.143 -2.5771 -0.4991 -1.1495
  128OSM   H14B13653   5.903   1.449   5.986  0.6024  0.0195  0.7460
  128OSM   H14C13654   5.801   1.584   6.006 -1.2173 -1.4141 -0.1299
  128OSM    C1313655   6.119   1.531   6.126  0.2940 -0.4443 -0.0684
  128OSM   H13A13656   6.207   1.589   6.152 -0.8525  1.0776  0.6056
  128OSM   H13B13657   6.151   1.462   6.049 -1.4641 -0.8783 -0.4441
  128OSM   H13C13658   6.098   1.474   6.215 -0.7130  2.3121  1.6004
  128OSM    C1213659   5.973   1.704   6.211 -0.0630 -0.0555  0.1670
  128OSM   H12A13660   5.893   1.774   6.191  1.0230  1.1074 -0.2301
  128OSM   H12B13661   6.054   1.777   6.212  0.0116 -0.1396  0.2882
  128OSM    C1113662   5.938   1.645   6.350 -0.9036 -0.5792  0.5438
  128OSM   H11A13663   5.930   1.721   6.431  0.5402 -0.7096  0.8347
  128OSM   H11B13664   6.025   1.580   6.373 -0.5213 -0.9810 -1.7641
  128OSM      P13665   5.811   1.432   6.413  0.5776  0.2577 -0.2462
  128OSM    O1313666   5.684   1.364   6.398  0.0832  0.2629 -0.3303
  128OSM    O1413667   5.930   1.360   6.378 -0.2279 -0.2093  0.3704
  128OSM    O1113668   5.819   1.471   6.561  0.4884 -0.0541  0.3486
  128OSM    O1213669   5.817   1.573   6.335  0.4468 -0.0426  0.7026
  128OSM    C1S13670   5.744   1.573   6.617  0.4823 -0.4334 -1.1891
  128OSM    H1S13671   5.640   1.576   6.580  0.0972 -0.0719 -0.1213
  128OSM    H1T13672   5.787   1.674   6.600 -0.4869  0.5121  1.4862
  128OSM     NF13673   5.663   1.680   6.819  0.4698 -0.6587 -0.3362
  128OSM    HNF13674   5.724   1.753   6.848 -0.0118 -0.5114  0.3092
  128OSM    C2S13675   5.739   1.569   6.774  0.1208  0.6311  0.0051
  128OSM    H2S13676   5.690   1.474   6.805  3.6960 -1.9938 -1.6673
  128OSM    C3S13677   5.879   1.567   6.832  0.7395  0.3304 -0.5067
  128OSM    H3S13678   5.928   1.661   6.796  0.8374  1.0097  1.2942
  128OSM     O313679   5.963   1.466   6.786 -0.0858 -0.0087 -0.3153
  128OSM    HO313680   5.927   1.451   6.698 -3.1135 -0.5490  0.8762
  128OSM    C4S13681   5.868   1.585   6.986  0.7031  0.5857 -0.0959
  128OSM    H4S13682   5.885   1.687   7.023  2.1390  0.1422  0.5565
  128OSM    C5S13683   5.838   1.494   7.083  0.2959  0.6965 -0.5408
  128OSM    H5S13684   5.821   1.391   7.049  2.3413  0.3868 -0.7391
  128OSM    C6S13685   5.834   1.518   7.232 -0.0826  0.6440  0.4113
  128OSM    H6S13686   5.930   1.475   7.269 -0.0886 -0.4249 -0.7654
  128OSM    H6T13687   5.751   1.462   7.281 -0.8415  1.4333  0.0558
  128OSM    C7S13688   5.826   1.662   7.271 -0.1506  0.7151  0.4323
  128OSM    H7S13689   5.739   1.701   7.213 -0.4795 -0.6357 -0.0215
  128OSM    H7T13690   5.912   1.728   7.249 -1.2437  1.4998 -1.8177
  128OSM    C8S13691   5.788   1.683   7.420 -0.0776 -0.5453  0.0025
  128OSM    H8S13692   5.699   1.622   7.446  1.6223 -2.5629  1.3996
  128OSM    H8T13693   5.758   1.789   7.436  0.6416 -0.2276 -0.6840
  128OSM    C9S13694   5.905   1.644   7.517 -0.1870 -0.1539 -0.1915
  128OSM    H9S13695   5.989   1.715   7.498 -0.9757  0.0175 -3.8369
  128OSM    H9T13696   5.943   1.541   7.496  0.6032  0.2337 -0.7205
  128OSM   C10S13697   5.844   1.642   7.653 -0.2508 -0.5359 -0.2798
  128OSM   H10S13698   5.752   1.580   7.652 -0.6241 -0.0473  0.9821
  128OSM   H10T13699   5.810   1.747   7.667  0.4274 -0.3419 -0.0609
  128OSM   C11S13700   5.932   1.608   7.771 -0.1110  0.2437  0.6194
  128OSM   H11S13701   6.015   1.683   7.779  2.6498 -2.3569 -1.4641
  128OSM   H11T13702   5.974   1.512   7.735  0.9576  1.1652 -0.6728
  128OSM   C12S13703   5.854   1.577   7.902  0.1034  0.5640 -0.1411
  128OSM   H12S13704   5.929   1.564   7.983  0.7997  0.2111 -0.8317
  128OSM   H12T13705   5.799   1.480   7.897 -0.5113  0.8712  0.5063
  128OSM   C13S13706   5.785   1.702   7.951  0.2952  0.3854  0.1416
  128OSM   H13S13707   5.707   1.722   7.874  0.5620  0.9209  0.0071
  128OSM   H13T13708   5.847   1.793   7.962  0.1741  0.1901  3.0915
  128OSM   C14S13709   5.714   1.680   8.087 -0.2705  0.2818  0.1165
  128OSM   H14S13710   5.789   1.656   8.165  0.3842  2.3533  0.1989
  128OSM   H14T13711   5.655   1.586   8.076  0.8550 -0.8284  2.7412
  128OSM   C15S13712   5.626   1.791   8.130  1.0503 -0.2702  0.3886
  128OSM   H15S13713   5.571   1.752   8.217  0.8163 -2.0056 -0.4953
  128OSM   H15T13714   5.550   1.823   8.055  1.7455 -0.0325 -0.2394
  128OSM   C16S13715   5.706   1.913   8.187  0.0799 -0.0854  0.2655
  128OSM   H16S13716   5.759   1.961   8.102 -2.2238 -0.2810 -1.3737
  128OSM   H16T13717   5.789   1.884   8.255  0.5324  0.0184 -0.2327
  128OSM   C17S13718   5.602   2.012   8.255 -0.3465  0.5898 -0.3225
  128OSM   H17S13719   5.534   1.943   8.309 -0.6112 -0.4763 -1.9660
  128OSM   H17T13720   5.552   2.058   8.167 -1.3219 -1.4735 -0.9041
  128OSM   C18S13721   5.648   2.110   8.356  0.6426 -0.0887 -0.4501
  128OSM   H18S13722   5.677   2.072   8.456 -2.0276  1.5012  1.0576
  128OSM   H18T13723   5.556   2.168   8.375  0.9082  0.6837 -1.4696
  128OSM   H18U13724   5.733   2.174   8.324  4.0231 -3.9462 -0.0691
  128OSM    C1F13725   5.533   1.716   6.809  0.8469  0.0780 -1.1230
  128OSM     OF13726   5.449   1.649   6.748 -0.3441  0.0082  0.1654
  128OSM    C2F13727   5.506   1.851   6.870  0.2741  1.2758  0.0900
  128OSM    H2F13728   5.527   1.935   6.800  0.3048  1.7999  0.7139
  128OSM    H2G13729   5.572   1.855   6.959 -0.4020 -0.1536  0.6807
  128OSM    C3F13730   5.361   1.870   6.910  0.2776  0.4763  0.2251
  128OSM    H3F13731   5.290   1.842   6.829 -0.6546 -0.6785  1.3789
  128OSM    H3G13732   5.349   1.977   6.938  0.0775 -0.3078  3.5454
  128OSM    C4F13733   5.300   1.794   7.035 -0.4188 -0.0059  0.1892
  128OSM    H4F13734   5.262   1.696   6.998 -0.1565  0.5269 -1.6006
  128OSM    H4G13735   5.211   1.848   7.071  0.6408  0.7557  1.7774
  128OSM    C5F13736   5.403   1.765   7.152  0.0837 -0.5296 -0.1929
  128OSM    H5F13737   5.459   1.857   7.179  1.5752 -1.2828 -0.5876
  128OSM    H5G13738   5.472   1.685   7.116 -1.3298 -1.6300 -0.5284
  128OSM    C6F13739   5.331   1.710   7.273  1.0649  1.1427 -0.3555
  128OSM    H6F13740   5.311   1.603   7.249 -0.4300  1.3522 -0.1446
  128OSM    H6G13741   5.229   1.752   7.271  0.3745 -0.3660  0.8393
  128OSM    C7F13742   5.407   1.741   7.407  0.1364 -0.1433  0.0090
  128OSM    H7F13743   5.444   1.845   7.408  0.1510 -0.1521  0.4658
  128OSM    H7G13744   5.486   1.663   7.415 -1.8269 -2.1047  1.5907
  128OSM    C8F13745   5.320   1.708   7.524  0.0938  0.1170  0.8101
  128OSM    H8F13746   5.260   1.615   7.519 -0.0880  0.2751  0.0011
  128OSM    H8G13747   5.240   1.784   7.522 -0.9930 -1.0234 -0.4990
  128OSM    C9F13748   5.404   1.724   7.648 -0.1243 -0.0297 -0.2619
  128OSM    H9F13749   5.507   1.688   7.643 -0.5115 -1.0884 -0.9234
  128OSM   C10F13750   5.364   1.784   7.766 -1.1388  0.3273  0.3689
  128OSM   H10F13751   5.427   1.786   7.856  0.1171  3.2772 -0.4553
  128OSM   C11F13752   5.222   1.847   7.790 -0.5845  0.4836 -0.3264
  128OSM   H11F13753   5.158   1.819   7.705 -1.5838  1.1245  0.1934
  128OSM   H11G13754   5.227   1.958   7.787  2.4190  0.4137 -0.9297
  128OSM   C12F13755   5.174   1.808   7.934  0.7206 -0.3184 -0.5928
  128OSM   H12F13756   5.074   1.852   7.956  0.6503 -1.4688  1.6546
  128OSM   H12G13757   5.234   1.840   8.022 -1.0621  0.2978  0.4448
  128OSM   C13F13758   5.153   1.651   7.945  0.1828  0.5908  0.3604
  128OSM   H13F13759   5.225   1.600   7.877 -2.5666 -0.4665 -1.9848
  128OSM   H13G13760   5.051   1.631   7.907  0.0835  2.6924 -0.6656
  128OSM   C14F13761   5.167   1.607   8.089 -0.2894  0.0340  0.3283
  128OSM   H14F13762   5.265   1.640   8.129  0.8731 -0.6526 -1.8297
  128OSM   H14G13763   5.163   1.496   8.092  0.2642  0.0218  2.2337
  128OSM   C15F13764   5.059   1.657   8.184  0.4371  0.2518  0.8329
  128OSM   H15F13765   4.959   1.616   8.158  1.4570 -1.0986 -1.1775
  128OSM   H15G13766   5.059   1.766   8.163  2.0469  0.0454 -0.4640
  128OSM   C16F13767   5.092   1.620   8.334 -0.6743  0.2734  0.6190
  128OSM   H16F13768   5.009   1.635   8.406  0.0942  3.4856  0.9632
  128OSM   H16G13769   5.171   1.685   8.377  0.6774 -1.0892  0.3164
  128OSM   C17F13770   5.134   1.472   8.351  0.5858  0.6954  0.0855
  128OSM   H17F13771   5.243   1.455   8.351  0.3617 -0.8808 -0.0968
  128OSM   H17G13772   5.079   1.416   8.272 -3.0950  2.6041  1.0522
  128OSM   C18F13773   5.091   1.409   8.489  0.2207 -0.6972 -0.7772
  128OSM   H18F13774   5.110   1.299   8.484 -0.4171 -0.9212  0.9884
  128OSM   H18G13775   4.991   1.451   8.513  1.3030  1.9861 -0.5980
  128OSM   H18H13776   5.147   1.457   8.572 -2.1111  1.2406 -0.2147
  129OSM      N13777   4.113   3.844   5.703  0.1178  0.8921  0.2792
  129OSM    C1513778   3.998   3.769   5.640 -0.1433  0.0371  1.0372
  129OSM   H15A13779   4.013   3.664   5.664 -1.0744  0.2014  2.5012
  129OSM   H15B13780   4.000   3.767   5.532 -1.5947 -1.4266  0.9933
  129OSM   H15C13781   3.893   3.782   5.662 -1.3072 -1.2878 -2.9209
  129OSM    C1413782   4.237   3.760   5.680 -0.2759  0.3817  0.2727
  129OSM   H14A13783   4.232   3.674   5.745 -1.4917  1.0626  1.1226
  129OSM   H14B13784   4.321   3.820   5.712  0.1087 -0.2217  0.4134
  129OSM   H14C13785   4.258   3.739   5.576  0.8005  0.7802  0.3956
  129OSM    C1313786   4.121   3.977   5.641  0.3661 -0.1815 -0.0970
  129OSM   H13A13787   4.204   4.034   5.681 -0.1589 -0.1904  1.0494
  129OSM   H13B13788   4.028   4.028   5.660  1.1195  1.0463  0.4696
  129OSM   H13C13789   4.130   3.960   5.535  1.3898  1.8641 -0.4062
  129OSM    C1213790   4.093   3.857   5.851  0.0503  0.4683 -0.9582
  129OSM   H12A13791   4.000   3.910   5.864 -1.3825 -2.0101 -0.3355
  129OSM   H12B13792   4.173   3.921   5.887  0.9072 -1.7871  1.5023
  129OSM    C1113793   4.089   3.736   5.935 -0.2193 -0.3994  0.0986
  129OSM   H11A13794   4.028   3.648   5.903  3.4491 -3.4861  0.8590
  129OSM   H11B13795   4.047   3.761   6.034  0.4051  1.4461 -0.0587
  129OSM      P13796   4.329   3.746   6.048  0.3257 -0.1481 -0.0653
  129OSM    O1313797   4.453   3.666   6.033  0.1123  0.2143 -0.5410
  129OSM    O1413798   4.346   3.892   6.041 -0.0100  0.0142  0.3854
  129OSM    O1113799   4.269   3.711   6.189  0.0905  0.5270 -0.2455
  129OSM    O1213800   4.220   3.684   5.945 -0.4367 -0.2031 -0.7438
  129OSM    C1S13801   4.227   3.580   6.211 -0.0356 -0.3171 -0.6264
  129OSM    H1S13802   4.306   3.510   6.179  0.1814 -0.7846  0.8768
  129OSM    H1T13803   4.131   3.551   6.162 -0.8120  1.1105 -0.0164
  129OSM     NF13804   4.180   3.427   6.414  0.0822 -0.5971  0.9310
  129OSM    HNF13805   4.100   3.409   6.470  0.7840  2.6706  3.3048
  129OSM    C2S13806   4.208   3.568   6.363  0.2738  0.7831  0.6987
  129OSM    H2S13807   4.306   3.596   6.405  0.0293  0.5567  1.4451
  129OSM    C3S13808   4.102   3.666   6.426 -0.1218 -0.0066 -0.2629
  129OSM    H3S13809   4.000   3.659   6.381 -0.2803 -0.6889  0.1724
  129OSM     O313810   4.132   3.801   6.394 -0.2738 -0.2733 -0.5302
  129OSM    HO313811   4.185   3.801   6.314  1.2800  1.4363  0.4110
  129OSM    C4S13812   4.091   3.662   6.575  0.6250 -0.2415 -0.9175
  129OSM    H4S13813   4.191   3.670   6.620 -0.7137 -1.3066  2.5725
  129OSM    C5S13814   3.981   3.647   6.652  0.9417  0.3311  0.1388
  129OSM    H5S13815   3.883   3.641   6.603  1.2207  1.8059 -0.6342
  129OSM    C6S13816   3.991   3.644   6.808  0.6892 -0.3496  0.4188
  129OSM    H6S13817   4.032   3.544   6.833  1.4940 -0.1201  0.0325
  129OSM    H6T13818   3.891   3.652   6.856  1.2558  0.5308  1.4980
  129OSM    C7S13819   4.083   3.758   6.863  0.4710 -0.0628 -0.3524
  129OSM    H7S13820   4.040   3.850   6.817 -3.5965 -0.2584  2.4867
  129OSM    H7T13821   4.188   3.740   6.832  0.9805 -0.0481  1.2492
  129OSM    C8S13822   4.083   3.768   7.017  0.2748  0.2649  0.4140
  129OSM    H8S13823   3.979   3.761   7.055 -0.8288  0.5579 -2.3709
  129OSM    H8T13824   4.130   3.865   7.044  1.1350  0.2110 -0.8478
  129OSM    C9S13825   4.157   3.655   7.082 -0.1217 -0.4764 -0.1036
  129OSM    H9S13826   4.264   3.660   7.053 -0.0627  1.3892  0.3068
  129OSM    H9T13827   4.109   3.560   7.051  1.0313 -0.6121 -1.5880
  129OSM   C10S13828   4.136   3.651   7.233  0.2559 -1.1230 -0.1505
  129OSM   H10S13829   4.198   3.564   7.263  0.8522 -1.2883 -1.7555
  129OSM   H10T13830   4.030   3.638   7.265 -0.8315  1.5789 -2.2846
  129OSM   C11S13831   4.193   3.774   7.308  0.3595  0.5776  0.4754
  129OSM   H11S13832   4.115   3.850   7.331  1.7615  2.5272 -0.8974
  129OSM   H11T13833   4.266   3.825   7.241 -1.8932  0.6320 -2.0821
  129OSM   C12S13834   4.272   3.738   7.435  0.1927  0.7107 -0.1641
  129OSM   H12S13835   4.332   3.648   7.412 -1.4791 -0.3329 -0.6206
  129OSM   H12T13836   4.191   3.720   7.509 -0.1744  1.4226 -0.3799
  129OSM   C13S13837   4.364   3.857   7.490  0.0114  0.8622  0.2733
  129OSM   H13S13838   4.310   3.954   7.499  0.3808  1.3904 -2.3968
  129OSM   H13T13839   4.453   3.886   7.430  1.9548 -2.6315  1.2186
  129OSM   C14S13840   4.418   3.837   7.637  0.4536  0.2060  0.0005
  129OSM   H14S13841   4.472   3.933   7.656 -0.0049  0.8052 -1.5971
  129OSM   H14T13842   4.492   3.754   7.628 -1.9030 -1.8305 -1.8564
  129OSM   C15S13843   4.315   3.798   7.748  0.2121 -0.3976  0.7619
  129OSM   H15S13844   4.285   3.691   7.744  0.1165 -0.3455 -0.0023
  129OSM   H15T13845   4.225   3.859   7.723  0.3533 -0.0589  1.0672
  129OSM   C16S13846   4.367   3.822   7.892 -0.5598 -0.2195 -0.5935
  129OSM   H16S13847   4.413   3.923   7.898  0.9877 -0.8689 -0.9813
  129OSM   H16T13848   4.460   3.765   7.915 -1.5310 -2.5130 -1.9726
  129OSM   C17S13849   4.264   3.797   8.000  0.7221  0.1734  0.0379
  129OSM   H17S13850   4.182   3.744   7.948  1.0516 -1.6894  1.2976
  129OSM   H17T13851   4.213   3.893   8.021  0.0773  0.0097 -0.7448
  129OSM   C18S13852   4.320   3.729   8.120 -1.3304 -0.0495  0.0886
  129OSM   H18S13853   4.370   3.632   8.102  1.2854  1.0092  1.2471
  129OSM   H18T13854   4.244   3.722   8.200 -0.1505  0.3969  1.2793
  129OSM   H18U13855   4.401   3.795   8.158 -1.6582 -1.0492  2.6933
  129OSM    C1F13856   4.269   3.332   6.395 -0.0325  0.0970  0.4175
  129OSM     OF13857   4.384   3.358   6.345  0.3448 -0.1860 -0.3847
  129OSM    C2F13858   4.229   3.186   6.438 -0.0512  0.2539  0.1674
  129OSM    H2F13859   4.236   3.107   6.361  1.3152 -0.1742  0.6995
  129OSM    H2G13860   4.127   3.192   6.481  0.1494  0.8121  0.5745
  129OSM    C3F13861   4.331   3.140   6.551 -0.1821  0.5062 -0.0664
  129OSM    H3F13862   4.433   3.154   6.509  0.7633  2.6667  2.6674
  129OSM    H3G13863   4.310   3.040   6.594 -1.0623  1.8383  2.8880
  129OSM    C4F13864   4.332   3.232   6.673  0.0337  0.1005  0.3018
  129OSM    H4F13865   4.302   3.335   6.647 -1.2771 -0.5248 -0.7811
  129OSM    H4G13866   4.428   3.229   6.729  0.7577 -0.2446 -0.9166
  129OSM    C5F13867   4.222   3.203   6.776 -0.1788  0.2381  0.1422
  129OSM    H5F13868   4.239   3.107   6.829 -0.1323 -0.1731 -0.6052
  129OSM    H5G13869   4.125   3.212   6.723  0.1930  1.5669 -0.3613
  129OSM    C6F13870   4.231   3.303   6.896 -0.3498  0.4125  1.1638
  129OSM    H6F13871   4.130   3.313   6.942 -2.1918 -2.6045 -1.7991
  129OSM    H6G13872   4.249   3.405   6.855  0.7666  0.2330  1.1759
  129OSM    C7F13873   4.337   3.266   6.991 -0.1592  0.0247  0.5410
  129OSM    H7F13874   4.436   3.283   6.944 -0.7058  0.5219 -0.4543
  129OSM    H7G13875   4.334   3.159   7.022  0.0630 -0.3063 -0.5166
  129OSM    C8F13876   4.330   3.337   7.131 -0.3684 -0.6664  0.4903
  129OSM    H8F13877   4.226   3.343   7.169 -0.1082  0.7194  1.0914
  129OSM    H8G13878   4.362   3.443   7.115 -2.7331 -0.3823 -3.9858
  129OSM    C9F13879   4.430   3.277   7.228  0.5767  0.6884  0.6867
  129OSM    H9F13880   4.504   3.218   7.172 -0.6372  0.6280 -0.9352
  129OSM   C10F13881   4.422   3.267   7.360 -0.4954  0.0868  0.3491
  129OSM   H10F13882   4.503   3.202   7.396  0.7234  0.4707 -1.5823
  129OSM   C11F13883   4.325   3.328   7.461  0.0038 -0.3509  0.3191
  129OSM   H11F13884   4.274   3.246   7.516  1.7403 -2.4016 -0.9727
  129OSM   H11G13885   4.242   3.384   7.413 -0.2998  0.7596  2.0245
  129OSM   C12F13886   4.395   3.419   7.565 -0.1318  0.1545  0.8968
  129OSM   H12F13887   4.311   3.479   7.604 -2.1304  0.0135 -2.7377
  129OSM   H12G13888   4.459   3.495   7.514 -0.3748 -0.4549 -0.3649
  129OSM   C13F13889   4.466   3.332   7.669 -0.0819 -0.1105 -0.4692
  129OSM   H13F13890   4.543   3.271   7.617 -0.2589  0.1909 -1.0933
  129OSM   H13G13891   4.386   3.267   7.712 -0.3476 -0.8445 -2.0129
  129OSM   C14F13892   4.540   3.421   7.776 -0.8356  0.1887 -0.6066
  129OSM   H14F13893   4.460   3.472   7.834 -0.9040  0.8366 -1.2535
  129OSM   H14G13894   4.589   3.503   7.719 -2.9919 -0.0377 -2.9449
  129OSM   C15F13895   4.647   3.337   7.852 -1.0682  0.1764  0.5095
  129OSM   H15F13896   4.730   3.315   7.781  1.1023  1.2190  2.5964
  129OSM   H15G13897   4.616   3.240   7.896 -0.1476 -0.6407 -0.5839
  129OSM   C16F13898   4.721   3.411   7.961 -0.2339  0.2124  0.5408
  129OSM   H16F13899   4.728   3.517   7.928  1.3928 -0.4394 -1.5186
  129OSM   H16G13900   4.828   3.382   7.971  0.6694  1.9703 -2.4305
  129OSM   C17F13901   4.653   3.391   8.095  0.3209 -1.7887 -0.2591
  129OSM   H17F13902   4.679   3.288   8.127  0.0722 -1.1511  2.2026
  129OSM   H17G13903   4.542   3.400   8.085  0.5361 -0.3317 -1.6307
  129OSM   C18F13904   4.702   3.477   8.217  0.0028  0.6148 -0.0390
  129OSM   H18F13905   4.662   3.581   8.215 -2.5270 -0.2702  0.4354
  129OSM   H18G13906   4.813   3.488   8.219  0.1504 -0.8637  0.8164
  129OSM   H18H13907   4.667   3.424   8.308  2.3624 -0.6345  0.2218
  130OSM      N13908   3.918   5.169   5.940  0.0554  0.0662  0.0197
  130OSM    C1513909   3.871   5.282   5.859 -0.3274  1.0036  0.8239
  130OSM   H15A13910   3.782   5.323   5.903 -1.5631 -0.7828  0.1185
  130OSM   H15B13911   3.849   5.252   5.757 -0.6683  1.1735  0.8464
  130OSM   H15C13912   3.945   5.360   5.853  3.5585 -2.1907  2.4188
  130OSM    C1413913   3.814   5.063   5.918 -0.0831  0.4764  0.4341
  130OSM   H14A13914   3.837   4.972   5.972  2.2501  0.9707  0.3705
  130OSM   H14B13915   3.814   5.045   5.812  5.7321  3.0170 -0.3676
  130OSM   H14C13916   3.715   5.101   5.936 -1.1983 -1.5640 -0.9270
  130OSM    C1313917   4.052   5.125   5.906  0.8244  0.2340 -0.1038
  130OSM   H13A13918   4.125   5.198   5.938  1.6827 -0.5176 -0.3172
  130OSM   H13B13919   4.054   5.108   5.800  0.9190 -1.2354  0.1151
  130OSM   H13C13920   4.077   5.026   5.942 -0.4269  0.0609  0.3803
  130OSM    C1213921   3.920   5.210   6.087  0.4705  0.0473 -0.0169
  130OSM   H12A13922   3.986   5.296   6.087  0.4374  0.0837  1.2877
  130OSM   H12B13923   3.967   5.147   6.160 -0.9087  0.2229  1.0498
  130OSM    C1113924   3.775   5.242   6.142 -0.8546  0.1720 -0.2248
  130OSM   H11A13925   3.786   5.277   6.247  0.2101  0.0263 -0.2724
  130OSM   H11B13926   3.703   5.157   6.134 -3.1496  1.9342  0.7849
  130OSM      P13927   3.556   5.385   6.086  0.3738 -0.0848  0.0145
  130OSM    O1313928   3.514   5.499   6.000 -0.0023  0.4869 -0.0560
  130OSM    O1413929   3.465   5.271   6.060 -0.0743  0.5948  0.2337
  130OSM    O1113930   3.544   5.425   6.239  0.0274  0.4015 -0.4360
  130OSM    O1213931   3.713   5.348   6.076 -0.6062 -0.0138  0.1775
  130OSM    C1S13932   3.454   5.520   6.286  0.4065 -0.8972 -0.2841
  130OSM    H1S13933   3.354   5.474   6.271  1.0568 -2.1758 -0.8603
  130OSM    H1T13934   3.452   5.619   6.235 -2.2078 -0.3920  0.6342
  130OSM     NF13935   3.394   5.681   6.465 -0.6350 -0.0053  0.1418
  130OSM    HNF13936   3.441   5.769   6.473 -0.7248 -0.0219  1.0177
  130OSM    C2S13937   3.478   5.560   6.439 -0.1992 -0.4478 -0.2650
  130OSM    H2S13938   3.432   5.480   6.501 -0.5425  1.3483  1.8943
  130OSM    C3S13939   3.633   5.555   6.481 -0.0602  0.8566 -0.2702
  130OSM    H3S13940   3.691   5.626   6.419 -1.1506  0.2367 -2.0544
  130OSM     O313941   3.691   5.425   6.449  0.1084  0.1633 -0.0165
  130OSM    HO313942   3.629   5.399   6.380 -2.1067  1.7176  1.2661
  130OSM    C4S13943   3.656   5.588   6.624  0.0327 -0.1297 -0.4365
  130OSM    H4S13944   3.653   5.695   6.650  0.6942 -0.1149 -0.4164
  130OSM    C5S13945   3.661   5.506   6.729 -0.4076  0.6761  0.5205
  130OSM    H5S13946   3.646   5.398   6.709  0.5045  1.1434 -3.3490
  130OSM    C6S13947   3.685   5.548   6.875  0.2639 -0.0933 -0.4503
  130OSM    H6S13948   3.730   5.650   6.884  1.5179 -0.7853  2.0297
  130OSM    H6T13949   3.747   5.477   6.934 -1.0240  0.0752  1.1895
  130OSM    C7S13950   3.557   5.556   6.950  0.3458  0.5416 -0.0683
  130OSM    H7S13951   3.507   5.457   6.940  0.8976  0.2130  0.4052
  130OSM    H7T13952   3.482   5.624   6.906 -0.5290 -1.3724 -1.7086
  130OSM    C8S13953   3.586   5.587   7.099 -0.0126 -0.2320  0.0673
  130OSM    H8S13954   3.620   5.693   7.092  0.3476 -0.4146 -1.3175
  130OSM    H8T13955   3.670   5.522   7.129 -1.1093 -2.0687 -0.7039
  130OSM    C9S13956   3.470   5.575   7.202 -0.3724 -0.5933 -0.6034
  130OSM    H9S13957   3.417   5.482   7.174 -2.1523  0.0818  0.3725
  130OSM    H9T13958   3.396   5.656   7.182 -1.5743 -0.5117  3.3296
  130OSM   C10S13959   3.522   5.574   7.344  0.4707 -0.7806 -0.7524
  130OSM   H10S13960   3.589   5.661   7.358 -1.6625  0.6417  1.1726
  130OSM   H10T13961   3.578   5.482   7.371  1.4388  0.4719  1.7537
  130OSM   C11S13962   3.409   5.587   7.447 -0.0479 -0.3215 -0.8295
  130OSM   H11S13963   3.366   5.485   7.456  3.1712 -1.7355 -0.0479
  130OSM   H11T13964   3.333   5.666   7.433  0.6911  0.8613  1.3058
  130OSM   C12S13965   3.471   5.613   7.597 -0.1127 -0.0735  0.5595
  130OSM   H12S13966   3.378   5.613   7.658 -1.9894 -0.5483 -2.1322
  130OSM   H12T13967   3.522   5.711   7.606  0.9630 -0.6582  1.0460
  130OSM   C13S13968   3.564   5.505   7.645  0.3495  0.6235  0.1898
  130OSM   H13S13969   3.608   5.533   7.743 -1.3985 -0.3915  1.3365
  130OSM   H13T13970   3.648   5.488   7.575 -1.6091 -1.1058 -1.9146
  130OSM   C14S13971   3.493   5.373   7.663  0.5952  0.1507  0.1072
  130OSM   H14S13972   3.461   5.341   7.562  0.9791 -1.0376  0.3475
  130OSM   H14T13973   3.397   5.388   7.718 -0.8662  1.3754 -2.5717
  130OSM   C15S13974   3.564   5.257   7.733  0.2872  0.0031  0.1001
  130OSM   H15S13975   3.658   5.222   7.685  0.6238 -0.7733  1.2869
  130OSM   H15T13976   3.499   5.167   7.732  0.6679 -0.2752 -0.3310
  130OSM   C16S13977   3.590   5.290   7.881  0.2509  0.3762 -0.0057
  130OSM   H16S13978   3.491   5.305   7.929 -1.6084 -1.5127 -2.9235
  130OSM   H16T13979   3.644   5.387   7.888 -1.1036  1.2245 -0.9764
  130OSM   C17S13980   3.669   5.182   7.953 -0.4514 -0.5388  0.1301
  130OSM   H17S13981   3.771   5.194   7.911 -0.4038  1.5966  0.7355
  130OSM   H17T13982   3.632   5.080   7.932  1.1406 -1.0768 -0.2229
  130OSM   C18S13983   3.671   5.192   8.112 -0.6155 -0.1561  0.2279
  130OSM   H18S13984   3.565   5.175   8.142 -0.6612 -1.2150 -0.4656
  130OSM   H18T13985   3.713   5.292   8.134  1.5212 -0.7904 -0.6958
  130OSM   H18U13986   3.744   5.117   8.151  1.1621  1.4751  0.1552
  130OSM    C1F13987   3.261   5.691   6.441  0.3292  0.3213 -0.1738
  130OSM     OF13988   3.198   5.600   6.384  0.6516  0.3754 -0.5572
  130OSM    C2F13989   3.193   5.816   6.478  0.3883  0.2396  0.4993
  130OSM    H2F13990   3.153   5.855   6.382  0.6784  0.5161  0.4875
  130OSM    H2G13991   3.261   5.892   6.524 -0.0859  0.8561  0.2005
  130OSM    C3F13992   3.083   5.785   6.580  0.2923 -0.9048  0.8065
  130OSM    H3F13993   3.016   5.703   6.547 -0.0706 -0.4884  0.5101
  130OSM    H3G13994   3.013   5.871   6.586  0.2592 -0.5909 -2.3335
  130OSM    C4F13995   3.141   5.753   6.721  0.0379  0.5089 -0.2696
  130OSM    H4F13996   3.218   5.830   6.745  1.9600 -0.6895 -2.1980
  130OSM    H4G13997   3.202   5.661   6.709  0.5226  0.8908 -0.8314
  130OSM    C5F13998   3.029   5.736   6.826 -0.1711  0.0665 -1.0180
  130OSM    H5F13999   2.968   5.644   6.810  0.4812 -0.5683  0.0227
  130OSM    H5G14000   2.961   5.824   6.820 -0.1800 -0.0126 -2.5139
  130OSM    C6F14001   3.095   5.734   6.967  0.0831 -0.3558  0.0286
  130OSM    H6F14002   3.153   5.827   6.983  2.1257 -1.6079  0.1483
  130OSM    H6G14003   3.171   5.653   6.967  0.3329 -0.1229  0.3482
  130OSM    C7F14004   2.984   5.719   7.075 -0.0758  0.4493  0.1331
  130OSM    H7F14005   2.928   5.625   7.057  0.7000  0.3481 -2.0325
  130OSM    H7G14006   2.916   5.806   7.065 -0.3580  0.3867  1.3324
  130OSM    C8F14007   3.041   5.740   7.217 -0.2847  0.5478  0.6313
  130OSM    H8F14008   3.104   5.831   7.221  1.0091 -0.3459  1.2821
  130OSM    H8G14009   3.109   5.655   7.241  2.3257  1.1755 -3.5817
  130OSM    C9F14010   2.927   5.754   7.318  0.2673  0.5627  0.0085
  130OSM    H9F14011   2.828   5.774   7.276  0.7324  1.8806 -0.4998
  130OSM   C10F14012   2.933   5.770   7.449  0.6682 -0.1224  0.0103
  130OSM   H10F14013   2.842   5.778   7.511 -0.4586 -2.3206 -1.2553
  130OSM   C11F14014   3.057   5.774   7.520 -0.2215 -0.0342 -0.5353
  130OSM   H11F14015   3.147   5.781   7.455 -0.2357  2.8853 -0.3992
  130OSM   H11G14016   3.048   5.698   7.600 -1.1469  0.9739  0.3497
  130OSM   C12F14017   3.062   5.912   7.590  0.5761 -0.1975  0.0077
  130OSM   H12F14018   2.969   5.926   7.649  0.0579 -1.6394 -0.4219
  130OSM   H12G14019   3.064   5.989   7.510  0.7309 -1.2413 -1.0128
  130OSM   C13F14020   3.187   5.943   7.674  0.0995 -0.3360  0.6088
  130OSM   H13F14021   3.219   6.049   7.674  0.2414 -0.3763 -0.0436
  130OSM   H13G14022   3.273   5.878   7.649 -1.1728 -2.7901  2.1063
  130OSM   C14F14023   3.162   5.909   7.821 -0.0006  0.1471 -0.5047
  130OSM   H14F14024   3.156   5.798   7.819 -0.4465  0.1491  0.3083
  130OSM   H14G14025   3.066   5.951   7.857 -0.7879 -1.0334 -1.1947
  130OSM   C15F14026   3.277   5.945   7.923 -0.4180  0.1062  0.2648
  130OSM   H15F14027   3.254   5.875   8.007 -0.4628  0.0128  0.1757
  130OSM   H15G14028   3.265   6.046   7.966 -0.3226 -0.1276  0.8528
  130OSM   C16F14029   3.418   5.921   7.866  0.3249 -0.3454  0.0231
  130OSM   H16F14030   3.430   5.983   7.775  3.5259 -2.3040 -1.0592
  130OSM   H16G14031   3.426   5.816   7.831 -0.0534  0.4461 -2.6006
  130OSM   C17F14032   3.541   5.945   7.957  0.4561 -0.8584 -0.9151
  130OSM   H17F14033   3.535   5.894   8.056  0.8040 -0.1425 -0.5174
  130OSM   H17G14034   3.548   6.054   7.977  1.6017 -0.9217 -0.8917
  130OSM   C18F14035   3.671   5.909   7.882 -0.0454 -0.4058 -0.3397
  130OSM   H18F14036   3.695   5.802   7.870 -0.0503 -0.5000  0.4016
  130OSM   H18G14037   3.758   5.947   7.941 -0.0945 -1.0569  0.1632
  130OSM   H18H14038   3.678   5.963   7.785 -3.2484  4.1713  1.6005
  131OSM      N14039   5.809   0.538   6.113 -0.4408  0.2292 -1.0549
  131OSM    C1514040   5.846   0.412   6.186  0.1030 -0.2732 -0.0328
  131OSM   H15A14041   5.765   0.341   6.192 -0.1013 -0.4094 -2.9571
  131OSM   H15B14042   5.860   0.438   6.290 -1.1106 -0.8728  0.2997
  131OSM   H15C14043   5.935   0.374   6.138  0.3924 -2.0370  1.7550
  131OSM    C1414044   5.733   0.497   5.990  0.1269 -0.0020  0.7751
  131OSM   H14A14045   5.792   0.434   5.926 -0.3714  0.6094 -0.3083
  131OSM   H14B14046   5.710   0.581   5.926 -2.5571 -0.4423  1.0231
  131OSM   H14C14047   5.640   0.454   6.024  0.3410  0.5841  2.1693
  131OSM    C1314048   5.716   0.623   6.194  0.1215 -0.4962  0.0235
  131OSM   H13A14049   5.697   0.712   6.136  0.1253 -1.4793 -1.5511
  131OSM   H13B14050   5.760   0.652   6.288 -0.6101  1.0206 -0.0740
  131OSM   H13C14051   5.625   0.567   6.207  0.6572 -1.2921  0.4586
  131OSM    C1214052   5.938   0.618   6.082 -0.4855  0.1516 -0.1440
  131OSM   H12A14053   5.989   0.664   6.165 -1.1424  0.5571  0.0410
  131OSM   H12B14054   5.896   0.703   6.029 -1.1238 -0.2941 -0.3728
  131OSM    C1114055   6.053   0.539   6.004 -0.1961 -0.2685  0.2588
  131OSM   H11A14056   6.119   0.622   5.973 -0.0515 -0.0949  1.0030
  131OSM   H11B14057   6.025   0.481   5.913 -1.1445 -3.2551  2.3045
  131OSM      P14058   6.260   0.386   6.089 -0.3897 -0.0193 -0.2467
  131OSM    O1314059   6.277   0.286   5.981  0.3189  0.1389 -0.1246
  131OSM    O1414060   6.359   0.489   6.090 -0.2688  0.2264 -0.2784
  131OSM    O1114061   6.260   0.303   6.223  0.6075  0.6685 -0.0136
  131OSM    O1214062   6.115   0.447   6.095 -0.2025 -0.2854  0.0261
  131OSM    C1S14063   6.314   0.339   6.352 -0.4685  0.5451  0.2196
  131OSM    H1S14064   6.371   0.433   6.365 -0.1769  0.5533 -1.0119
  131OSM    H1T14065   6.388   0.259   6.374  0.6822  1.2455 -0.9952
  131OSM     NF14066   6.268   0.288   6.591  0.1873 -0.1465 -0.3297
  131OSM    HNF14067   6.265   0.200   6.638  1.4302  0.7979  1.6658
  131OSM    C2S14068   6.208   0.310   6.466 -0.0179  1.0231 -1.0922
  131OSM    H2S14069   6.144   0.400   6.481 -2.3725 -0.6013 -0.9045
  131OSM    C3S14070   6.110   0.193   6.432 -0.4076 -0.0216  0.3437
  131OSM    H3S14071   6.168   0.099   6.423 -1.0373 -0.4513  0.6658
  131OSM     O314072   6.042   0.193   6.305  0.7047  0.2169 -0.8976
  131OSM    HO314073   6.098   0.256   6.259  1.8985 -1.4391 -1.7880
  131OSM    C4S14074   6.000   0.176   6.535 -0.2218 -0.2046 -0.0777
  131OSM    H4S14075   5.916   0.246   6.523  0.2081  0.0829 -1.5394
  131OSM    C5S14076   6.007   0.089   6.641 -0.6883 -0.6283 -0.1767
  131OSM    H5S14077   6.087   0.015   6.648 -1.2036 -1.1605  0.1184
  131OSM    C6S14078   5.896   0.098   6.740  0.3774 -0.0830  0.5805
  131OSM    H6S14079   5.856  -0.005   6.750  2.2022 -0.7937  1.1599
  131OSM    H6T14080   5.814   0.168   6.714  3.3697  2.1932 -4.0953
  131OSM    C7S14081   5.944   0.140   6.884 -0.1772 -0.4491  0.3767
  131OSM    H7S14082   5.973   0.247   6.877 -0.2055 -0.3612  1.4683
  131OSM    H7T14083   6.028   0.074   6.912 -1.9769 -2.2687  1.7541
  131OSM    C8S14084   5.837   0.132   6.989 -0.0935 -0.2553 -0.3398
  131OSM    H8S14085   5.814   0.024   7.001  0.6465 -0.5089 -1.1467
  131OSM    H8T14086   5.743   0.179   6.953 -1.1158 -1.8879  0.1389
  131OSM    C9S14087   5.879   0.187   7.126  0.3034 -0.1625 -0.0384
  131OSM    H9S14088   5.811   0.260   7.175 -0.6826 -1.6464  0.8934
  131OSM    H9T14089   5.979   0.235   7.126  0.4496 -0.4387  0.7496
  131OSM   C10S14090   5.877   0.070   7.232 -0.3543  0.1512  0.6291
  131OSM   H10S14091   5.952  -0.002   7.193  0.5630  2.2457 -1.6936
  131OSM   H10T14092   5.785   0.011   7.247  0.4295 -0.9415  1.3126
  131OSM   C11S14093   5.920   0.119   7.368 -0.5143 -0.8105 -0.5912
  131OSM   H11S14094   5.865   0.212   7.393  2.9822  0.6957  2.5371
  131OSM   H11T14095   6.025   0.157   7.365 -1.1434  0.9953 -1.0760
  131OSM   C12S14096   5.906   0.030   7.497  0.3401 -0.0249 -0.2522
  131OSM   H12S14097   6.001  -0.027   7.495  1.0450  1.0590  1.1932
  131OSM   H12T14098   5.823  -0.042   7.479 -0.3047  0.5130  0.5515
  131OSM   C13S14099   5.889   0.108   7.625  0.3162  0.3796  0.5361
  131OSM   H13S14100   5.809   0.186   7.626  0.1041  0.1806 -0.1655
  131OSM   H13T14101   5.986   0.155   7.651 -0.2401  1.5238  0.6298
  131OSM   C14S14102   5.861  -0.006   7.735 -0.3622  0.1570 -0.0364
  131OSM   H14S14103   5.895  -0.103   7.695  0.3790 -0.0806  1.1279
  131OSM   H14T14104   5.750  -0.002   7.740 -0.4090  3.4671 -0.9543
  131OSM   C15S14105   5.903   0.029   7.879 -0.2435 -0.5958 -0.4488
  131OSM   H15S14106   5.872   0.129   7.917  0.1970 -1.2044  1.6707
  131OSM   H15T14107   6.013   0.041   7.872 -0.3901  1.1231 -0.2916
  131OSM   C16S14108   5.876  -0.084   7.981  0.5946 -0.3476  0.3864
  131OSM   H16S14109   5.951  -0.071   8.062  0.1571 -1.4906  0.9965
  131OSM   H16T14110   5.888  -0.184   7.933  0.2788  1.4336 -3.7399
  131OSM   C17S14111   5.743  -0.085   8.051 -0.2785 -0.7171 -0.3776
  131OSM   H17S14112   5.704  -0.189   8.055  3.0140 -2.0427  1.7567
  131OSM   H17T14113   5.671  -0.015   8.004 -0.1910  1.4058  2.3894
  131OSM   C18S14114   5.752  -0.051   8.199  0.1803  0.2106 -0.2690
  131OSM   H18S14115   5.652  -0.060   8.248  0.8707 -3.3855  0.7373
  131OSM   H18T14116   5.795   0.052   8.203  1.6543 -0.3774 -0.4797
  131OSM   H18U14117   5.825  -0.115   8.254  0.0052 -0.5886 -0.9464
  131OSM    C1F14118   6.341   0.389   6.650 -0.1134 -0.5602  2.0886
  131OSM     OF14119   6.368   0.492   6.590 -0.3820  0.0012 -0.3876
  131OSM    C2F14120   6.404   0.354   6.784 -1.2131  0.2403 -0.0379
  131OSM    H2F14121   6.512   0.342   6.762 -1.0060 -1.1179  1.5512
  131OSM    H2G14122   6.369   0.251   6.805 -1.1286  0.0778 -0.6762
  131OSM    C3F14123   6.383   0.456   6.900 -0.7922  0.1057 -0.9279
  131OSM    H3F14124   6.278   0.459   6.935 -0.9423  0.8575 -1.4123
  131OSM    H3G14125   6.425   0.553   6.865  2.1099 -1.3009 -1.6186
  131OSM    C4F14126   6.474   0.420   7.029  0.1282 -0.9447  0.3019
  131OSM    H4F14127   6.507   0.511   7.084 -0.1261 -0.2471 -0.6924
  131OSM    H4G14128   6.566   0.372   6.988  0.0616 -1.1221  0.3622
  131OSM    C5F14129   6.400   0.330   7.131 -0.5625 -0.1566 -0.1738
  131OSM    H5F14130   6.397   0.228   7.088 -1.7414 -0.4110  0.4649
  131OSM    H5G14131   6.300   0.375   7.152  0.2110  0.6671  2.1504
  131OSM    C6F14132   6.480   0.324   7.264  0.0055  0.1981  0.3762
  131OSM    H6F14133   6.590   0.315   7.255  0.0477  1.7993 -1.4686
  131OSM    H6G14134   6.455   0.231   7.319  3.0839 -0.8593  0.1772
  131OSM    C7F14135   6.452   0.447   7.352  0.4395  0.0269  0.2407
  131OSM    H7F14136   6.371   0.516   7.319  2.5450  2.5191  0.0353
  131OSM    H7G14137   6.544   0.506   7.333  0.6036  0.3936  2.0020
  131OSM    C8F14138   6.439   0.413   7.500  1.0724 -0.1988  0.6473
  131OSM    H8F14139   6.356   0.340   7.511  0.1641  0.7725  0.3903
  131OSM    H8G14140   6.407   0.501   7.559  0.0334  0.1360 -0.3627
  131OSM    C9F14141   6.571   0.365   7.558  0.2873  0.7509  0.3738
  131OSM    H9F14142   6.660   0.403   7.506 -0.5795  0.7998 -1.1389
  131OSM   C10F14143   6.582   0.272   7.655  0.3389  0.1122 -0.4146
  131OSM   H10F14144   6.683   0.235   7.677  0.4905  0.7329 -0.0465
  131OSM   C11F14145   6.466   0.204   7.729 -0.3920  0.3403 -0.1125
  131OSM   H11F14146   6.446   0.102   7.691 -1.9663 -0.0852  1.6956
  131OSM   H11G14147   6.371   0.258   7.709 -0.6984  0.6827  1.9735
  131OSM   C12F14148   6.485   0.191   7.880  0.3105 -0.3257  0.1139
  131OSM   H12F14149   6.571   0.122   7.891  1.6571  0.9653 -1.6210
  131OSM   H12G14150   6.395   0.156   7.934  0.6257 -0.1812  0.7508
  131OSM   C13F14151   6.512   0.329   7.936  0.0421 -0.2498  0.4196
  131OSM   H13F14152   6.418   0.386   7.921  0.4319 -0.0768 -1.8599
  131OSM   H13G14153   6.597   0.387   7.893 -0.4469 -0.3546 -0.7261
  131OSM   C14F14154   6.546   0.332   8.083  0.5818 -0.3704 -0.5106
  131OSM   H14F14155   6.478   0.283   8.156  0.5715  1.3437  0.6846
  131OSM   H14G14156   6.553   0.440   8.107  0.8224 -0.3224 -0.7925
  131OSM   C15F14157   6.687   0.270   8.118 -0.1631 -0.3494  0.1704
  131OSM   H15F14158   6.756   0.304   8.038  0.0623 -0.1958  0.4313
  131OSM   H15G14159   6.660   0.162   8.116 -3.4442  0.3660  0.7330
  131OSM   C16F14160   6.741   0.317   8.255 -0.3499  0.3433  0.6151
  131OSM   H16F14161   6.698   0.416   8.278  0.6243  0.3569  2.5830
  131OSM   H16G14162   6.852   0.322   8.247 -0.1063 -2.8274  0.5598
  131OSM   C17F14163   6.701   0.225   8.370 -0.2003  0.3968 -0.3256
  131OSM   H17F14164   6.592   0.206   8.359  0.0879 -1.0274 -1.0062
  131OSM   H17G14165   6.726   0.279   8.464  2.9695  0.6774 -1.1931
  131OSM   C18F14166   6.778   0.088   8.361 -0.2236  0.3306 -0.2029
  131OSM   H18F14167   6.886   0.111   8.345 -0.7683  1.9227 -2.0475
  131OSM   H18G14168   6.748   0.031   8.271  0.4195 -0.4669  0.0824
  131OSM   H18H14169   6.770   0.036   8.459  0.1017 -0.2811 -0.4953
  132OSM      N14170   6.653   0.760   6.335  0.5450 -0.0741 -0.0771
  132OSM    C1514171   6.717   0.852   6.229 -0.1997  0.3666 -0.3504
  132OSM   H15A14172   6.696   0.820   6.128  0.1025  2.2847 -1.0784
  132OSM   H15B14173   6.824   0.837   6.233  0.0185  0.9352 -2.7020
  132OSM   H15C14174   6.671   0.950   6.238  0.0968  0.3536  2.0817
  132OSM    C1414175   6.692   0.619   6.300  0.3298 -0.4233 -0.0331
  132OSM   H14A14176   6.799   0.610   6.288  0.4775 -0.9615  1.4027
  132OSM   H14B14177   6.654   0.599   6.201 -0.2983  0.1158  0.0874
  132OSM   H14C14178   6.659   0.548   6.374  2.4152 -0.4070  0.9647
  132OSM    C1314179   6.721   0.790   6.466 -0.0485 -0.6395  0.3043
  132OSM   H13A14180   6.691   0.891   6.490  0.3049 -0.8450  1.7361
  132OSM   H13B14181   6.828   0.794   6.454  0.1136  0.0211  1.7184
  132OSM   H13C14182   6.690   0.718   6.540 -2.7812 -0.3335 -0.4375
  132OSM    C1214183   6.503   0.775   6.350 -0.8880  0.4053  0.3437
  132OSM   H12A14184   6.464   0.713   6.429  0.0888  0.7418  1.0996
  132OSM   H12B14185   6.457   0.750   6.255  2.0153 -1.0790 -0.8017
  132OSM    C1114186   6.452   0.917   6.397  0.7500  0.6770 -0.3280
  132OSM   H11A14187   6.508   0.945   6.489 -1.6713  1.9802  0.8162
  132OSM   H11B14188   6.350   0.895   6.434  0.6347  2.0598  0.2396
  132OSM      P14189   6.383   1.143   6.276 -0.2697 -0.0890 -0.2589
  132OSM    O1314190   6.463   1.221   6.179  0.3020  0.2426 -0.3047
  132OSM    O1414191   6.243   1.121   6.235 -0.0236  0.3090  1.0501
  132OSM    O1114192   6.400   1.212   6.415 -0.2774  0.1086 -0.2034
  132OSM    O1214193   6.469   1.012   6.297 -0.7596  0.5652 -0.3883
  132OSM    C1S14194   6.285   1.213   6.505  0.4679  0.0106 -0.2979
  132OSM    H1S14195   6.269   1.114   6.553 -2.2680  0.4612 -0.1045
  132OSM    H1T14196   6.185   1.228   6.460 -0.9043  0.7764  2.7663
  132OSM     NF14197   6.213   1.319   6.727 -0.5982  0.2065 -0.2313
  132OSM    HNF14198   6.142   1.387   6.741 -0.5177  0.1081  0.7157
  132OSM    C2S14199   6.297   1.331   6.610  0.4844  0.3365 -0.8342
  132OSM    H2S14200   6.399   1.329   6.654  0.0438  0.2523  0.2159
  132OSM    C3S14201   6.286   1.470   6.546  0.1979 -0.1217 -0.2865
  132OSM    H3S14202   6.177   1.474   6.521 -0.9211 -0.9472  3.7500
  132OSM     O314203   6.367   1.483   6.433 -0.3507 -0.3501  0.6327
  132OSM    HO314204   6.396   1.393   6.419 -0.1266 -0.4309  1.5402
  132OSM    C4S14205   6.309   1.594   6.632  0.1650  0.0932 -0.3216
  132OSM    H4S14206   6.412   1.604   6.668 -0.4325  1.6990  1.0461
  132OSM    C5S14207   6.229   1.703   6.649  0.2222 -0.2231  0.2544
  132OSM    H5S14208   6.151   1.711   6.572  1.8962 -0.0039 -1.5043
  132OSM    C6S14209   6.261   1.836   6.711 -0.3029 -0.2757 -0.9198
  132OSM    H6S14210   6.225   1.915   6.642  1.1704  0.1543 -1.2424
  132OSM    H6T14211   6.372   1.844   6.704 -0.4167  0.2502 -2.3250
  132OSM    C7S14212   6.205   1.848   6.856 -0.3353 -0.2667 -1.3756
  132OSM    H7S14213   6.251   1.774   6.925 -3.0595  1.2613  2.4106
  132OSM    H7T14214   6.094   1.836   6.857 -0.3430 -0.5843  1.4728
  132OSM    C8S14215   6.222   1.989   6.914 -0.1271 -0.9052  0.2815
  132OSM    H8S14216   6.148   2.062   6.873 -0.6695 -0.7802  1.4384
  132OSM    H8T14217   6.315   2.031   6.871 -0.0725  0.3022  1.5057
  132OSM    C9S14218   6.229   2.010   7.065  0.1386  0.9298 -0.1247
  132OSM    H9S14219   6.290   2.101   7.086  1.7926 -0.3728  0.9209
  132OSM    H9T14220   6.283   1.933   7.123  0.7122  1.8391  0.5885
  132OSM   C10S14221   6.084   2.028   7.120 -0.5900  0.0743 -0.6528
  132OSM   H10S14222   6.042   1.926   7.103  3.4222 -2.1214  1.0569
  132OSM   H10T14223   6.039   2.112   7.064  1.9390  2.0790  0.1284
  132OSM   C11S14224   6.071   2.066   7.267  0.5984 -0.6704  0.2247
  132OSM   H11S14225   5.964   2.079   7.295  1.0388  0.7621  1.4296
  132OSM   H11T14226   6.137   2.155   7.276  1.3345 -1.1915  0.0609
  132OSM   C12S14227   6.129   1.960   7.371 -0.2455  0.5017 -0.0326
  132OSM   H12S14228   6.240   1.951   7.360 -0.2579  1.2902 -0.9194
  132OSM   H12T14229   6.094   1.859   7.339  3.0409 -0.4545 -1.1072
  132OSM   C13S14230   6.080   1.998   7.514  0.4802 -0.5002 -0.8502
  132OSM   H13S14231   5.971   1.981   7.519  0.4429  0.0863  2.0371
  132OSM   H13T14232   6.098   2.107   7.526  2.0676 -0.9555  1.9728
  132OSM   C14S14233   6.148   1.929   7.633 -0.5406  0.7896 -0.5906
  132OSM   H14S14234   6.254   1.960   7.642 -0.5220  0.3255  1.2337
  132OSM   H14T14235   6.142   1.818   7.629 -2.0708  0.7674  1.0417
  132OSM   C15S14236   6.092   1.978   7.766 -0.2654 -0.6147 -0.9120
  132OSM   H15S14237   5.990   1.938   7.782 -0.2624  0.7378  3.7330
  132OSM   H15T14238   6.109   2.088   7.771  3.3558 -1.1112  0.6915
  132OSM   C16S14239   6.179   1.928   7.883  0.2067  0.5786  0.4468
  132OSM   H16S14240   6.285   1.935   7.851 -1.0274  2.6398 -4.0576
  132OSM   H16T14241   6.159   1.820   7.902  0.0391  0.5841  0.3047
  132OSM   C17S14242   6.165   2.015   8.015  0.6483 -0.0269 -0.1738
  132OSM   H17S14243   6.175   2.126   8.009 -1.4511  0.3281  1.4291
  132OSM   H17T14244   6.244   1.980   8.084  2.2526 -3.0474 -3.2219
  132OSM   C18S14245   6.029   1.996   8.083  0.2269  0.7477  0.0081
  132OSM   H18S14246   5.950   1.994   8.006 -0.1940 -0.1390  0.4493
  132OSM   H18T14247   6.005   2.080   8.152 -0.3089  0.1449  0.5619
  132OSM   H18U14248   6.037   1.900   8.138  0.3778  0.4321 -0.5637
  132OSM    C1F14249   6.225   1.227   6.825  0.8868 -0.1300  0.7849
  132OSM     OF14250   6.284   1.123   6.806 -0.3064 -0.4709  0.4797
  132OSM    C2F14251   6.160   1.262   6.952 -0.1721  0.6311  0.7004
  132OSM    H2F14252   6.057   1.301   6.936 -0.3557 -0.7293 -1.9797
  132OSM    H2G14253   6.226   1.339   6.996 -0.5780  0.7700  1.0686
  132OSM    C3F14254   6.153   1.146   7.048  0.1262 -0.3590 -0.0041
  132OSM    H3F14255   6.255   1.110   7.073  0.0677 -0.6294 -0.1586
  132OSM    H3G14256   6.102   1.063   6.996 -0.0256  0.6260 -1.4834
  132OSM    C4F14257   6.086   1.189   7.181 -0.5854 -0.1838  0.4567
  132OSM    H4F14258   5.980   1.214   7.155 -0.9484 -1.7000  0.4073
  132OSM    H4G14259   6.141   1.282   7.206  2.3296 -1.3257 -1.1994
  132OSM    C5F14260   6.084   1.094   7.299  0.8739  0.7049  0.6068
  132OSM    H5F14261   6.177   1.033   7.305  0.2507 -0.4187 -0.5373
  132OSM    H5G14262   6.011   1.016   7.267 -0.4405  2.9411 -2.2889
  132OSM    C6F14263   6.052   1.155   7.436  0.3714  0.5795 -0.2857
  132OSM    H6F14264   5.965   1.215   7.403 -0.3533  0.3150  1.0305
  132OSM    H6G14265   6.126   1.227   7.477 -1.3493  1.2491  1.8197
  132OSM    C7F14266   6.021   1.050   7.547 -0.8859 -0.0654  0.2215
  132OSM    H7F14267   6.108   1.008   7.601 -1.2650  2.0320  2.6364
  132OSM    H7G14268   5.970   0.963   7.501 -0.2801 -0.6431  0.6243
  132OSM    C8F14269   5.927   1.103   7.658 -0.3793  0.6278  0.0952
  132OSM    H8F14270   5.878   1.015   7.704  0.4516  0.6352  1.0339
  132OSM    H8G14271   5.840   1.151   7.609 -0.8438  2.6983  2.7094
  132OSM    C9F14272   5.996   1.174   7.773 -0.3789  1.2180  0.4912
  132OSM    H9F14273   6.005   1.284   7.768  2.9318  1.1456  1.9587
  132OSM   C10F14274   6.067   1.105   7.875  0.7913  0.6570 -0.3080
  132OSM   H10F14275   6.119   1.177   7.940  1.8347 -0.4671  0.1355
  132OSM   C11F14276   6.091   0.958   7.891  0.5982  0.5652  0.1256
  132OSM   H11F14277   6.200   0.943   7.906  0.0336 -1.4581  3.4869
  132OSM   H11G14278   6.062   0.898   7.802  1.9902  0.2377 -0.1326
  132OSM   C12F14279   6.030   0.886   8.019  0.1370 -0.1577 -0.1098
  132OSM   H12F14280   6.057   0.779   8.033  0.7258  0.0596  0.5194
  132OSM   H12G14281   5.920   0.893   8.011  0.2126 -0.6068 -1.9438
  132OSM   C13F14282   6.064   0.963   8.151  0.0591 -0.3131  0.5753
  132OSM   H13F14283   6.060   1.071   8.126  1.1802 -0.3699  0.1362
  132OSM   H13G14284   6.167   0.938   8.183  0.8959  1.6897 -0.3701
  132OSM   C14F14285   5.980   0.921   8.276  0.0188 -0.7466 -0.3618
  132OSM   H14F14286   6.011   0.815   8.286  0.2957 -0.6686 -0.3867
  132OSM   H14G14287   5.871   0.911   8.258 -0.4893 -0.4086  2.1402
  132OSM   C15F14288   6.006   0.996   8.409 -0.3564 -0.0225 -0.4766
  132OSM   H15F14289   5.911   1.041   8.445 -0.3946 -0.4032 -0.0970
  132OSM   H15G14290   6.082   1.077   8.400 -0.9097  0.2717 -3.2770
  132OSM   C16F14291   6.052   0.903   8.519 -0.2996 -1.3335 -0.3536
  132OSM   H16F14292   5.976   0.823   8.512 -0.6593 -0.8798 -2.0179
  132OSM   H16G14293   6.051   0.945   8.622 -1.3040 -1.4667 -0.2947
  132OSM   C17F14294   6.192   0.849   8.509 -0.6026  0.1393  0.5730
  132OSM   H17F14295   6.222   0.854   8.402 -0.7614  0.3074  0.5365
  132OSM   H17G14296   6.187   0.744   8.547 -1.5760  0.3823  1.1458
  132OSM   C18F14297   6.288   0.923   8.597  0.5350  0.1194  0.1462
  132OSM   H18F14298   6.323   1.017   8.548  0.3265  0.4946  0.6937
  132OSM   H18G14299   6.373   0.865   8.638  0.7038  0.5864  0.4754
  132OSM   H18H14300   6.245   0.959   8.694  2.7993  1.2833  0.8040
  133SAPE     N14301   2.242   6.738  10.888 -0.1993 -0.5422 -0.6674
  133SAPE   HN114302   2.342   6.766  10.878 -0.7906  2.1234  0.2244
  133SAPE   HN214303   2.225   6.763  10.987  1.8543  0.2151 -0.4481
  133SAPE   HN314304   2.221   6.638  10.869 -0.5387 -0.4934 -0.5511
  133SAPE   C1214305   2.156   6.820  10.797 -0.2492  0.5354 -0.1943
  133SAPE  H12A14306   2.167   6.784  10.692 -3.6877  1.0814 -0.8770
  133SAPE  H12B14307   2.185   6.927  10.812  2.3075  0.0346 -1.0456
  133SAPE   C1114308   2.009   6.813  10.843  0.3666  0.4064 -0.4212
  133SAPE  H11A14309   1.972   6.712  10.815  1.3171  0.0569 -0.4541
  133SAPE  H11B14310   1.949   6.890  10.789 -2.2854  0.8284  2.7733
  133SAPE     P14311   1.848   6.852  11.051 -0.7112  0.1493  0.0887
  133SAPE   O1314312   1.788   6.723  11.087 -0.1869 -0.7290 -0.2253
  133SAPE   O1414313   1.859   6.963  11.153  0.3939  0.1679  0.1365
  133SAPE   O1214314   1.989   6.826  10.984 -0.4091  0.6679 -0.1730
  133SAPE   O1114315   1.767   6.902  10.929 -0.4777  0.0172  0.2995
  133SAPE    C114316   1.771   7.042  10.891  0.8562 -0.5725  0.2392
  133SAPE    HA14317   1.721   7.102  10.970  0.8379  0.7939 -0.7725
  133SAPE    HB14318   1.874   7.078  10.872  0.9665 -1.4718 -0.9822
  133SAPE    C214319   1.677   7.062  10.764 -0.6405 -0.8145  0.0456
  133SAPE    HS14320   1.578   7.029  10.803  0.7430 -0.7405  4.0014
  133SAPE   O2114321   1.739   6.995  10.652  0.2875 -0.2690 -0.1531
  133SAPE   C2114322   1.685   6.872  10.631  0.5498  0.3438  0.1275
  133SAPE   O2214323   1.576   6.840  10.672 -0.3827  0.0754  0.1092
  133SAPE   C2214324   1.785   6.793  10.545 -0.3819 -0.0956  0.1785
  133SAPE   H2R14325   1.798   6.854  10.453 -3.0607  0.4869  0.1056
  133SAPE   H2S14326   1.884   6.788  10.595 -0.1817 -2.1956 -0.3204
  133SAPE    C314327   1.645   7.210  10.725 -0.6910 -0.2537 -0.2274
  133SAPE    HX14328   1.743   7.262  10.720 -0.7284 -0.1113  0.4200
  133SAPE    HY14329   1.588   7.263  10.804 -0.3984 -0.4819  0.1395
  133SAPE   O3114330   1.572   7.215  10.598  0.4610 -0.2546 -0.0900
  133SAPE   C3114331   1.624   7.273  10.493  0.3077 -0.5126  0.2551
  133SAPE   O3214332   1.728   7.333  10.499 -0.1402 -0.1230  0.1867
  133SAPE   C3214333   1.551   7.226  10.372 -0.1036  0.3739  0.1982
  133SAPE   H2X14334   1.452   7.187  10.404 -0.6622 -0.3129 -2.1756
  133SAPE   H2Y14335   1.603   7.131  10.348  0.8317  1.0478 -0.5084
  133SAPE   C2314336   1.731   6.657  10.498  0.5224 -0.4198 -0.4767
  133SAPE   H3R14337   1.624   6.677  10.475  0.0802 -0.9329  1.0324
  133SAPE   H3S14338   1.738   6.584  10.581  1.3083 -1.0191 -1.0570
  133SAPE   C2414339   1.803   6.603  10.373 -0.3499  0.6370  0.2535
  133SAPE   H4R14340   1.816   6.686  10.301  0.8811  0.8845  0.7221
  133SAPE   H4S14341   1.742   6.532  10.314  1.7411 -0.0919 -1.1337
  133SAPE   C2514342   1.933   6.529  10.417  0.2840 -0.4613  0.5686
  133SAPE   H5R14343   1.921   6.442  10.483 -2.3151 -2.0304 -1.7515
  133SAPE   C2614344   2.055   6.564  10.381 -0.3722 -0.0724  0.8223
  133SAPE   H6R14345   2.134   6.492  10.409  0.5708  0.6862  0.1845
  133SAPE   C2714346   2.088   6.671  10.283 -0.7157 -0.0082  0.4667
  133SAPE   H7R14347   2.091   6.766  10.340 -0.2283 -0.1922  0.7545
  133SAPE   H7S14348   2.011   6.684  10.204 -0.4812 -1.2527  0.0130
  133SAPE   C2814349   2.220   6.643  10.211  0.6676  0.2340  0.2414
  133SAPE   H8R14350   2.295   6.601  10.280 -0.9639 -0.5518  1.5997
  133SAPE   C2914351   2.253   6.688  10.088  0.2445  0.8452 -0.1810
  133SAPE   H9R14352   2.355   6.673  10.049  0.1838  0.3108 -0.1445
  133SAPE  C21014353   2.166   6.758   9.987 -0.0791 -0.9438 -0.0141
  133SAPE  H10R14354   2.220   6.839   9.934  2.6981 -1.8862  1.2155
  133SAPE  H10S14355   2.078   6.801  10.041 -0.8371 -0.7853 -1.3229
  133SAPE  C21114356   2.108   6.660   9.890  0.1211  0.5305  0.1674
  133SAPE  H11R14357   2.111   6.554   9.918  1.6366  0.2036 -1.0764
  133SAPE  C21214358   2.060   6.683   9.764  0.2641 -0.9901  0.3953
  133SAPE  H12R14359   2.036   6.599   9.698  0.0382 -0.4662 -0.2060
  133SAPE  C21314360   2.044   6.819   9.692  0.2427 -0.6763  0.2416
  133SAPE  H13R14361   2.109   6.900   9.729 -2.2546  1.5886 -0.0394
  133SAPE  H13S14362   1.940   6.852   9.713  0.8656  0.2089  2.2186
  133SAPE  C21414363   2.085   6.821   9.546 -0.5367  0.2653 -0.4239
  133SAPE  H14R14364   2.191   6.798   9.531 -0.4701  0.4725 -0.2818
  133SAPE  C21514365   2.010   6.845   9.434 -0.1276  0.0044 -0.0344
  133SAPE  H15R14366   2.061   6.863   9.339 -1.4544  0.7421 -0.6375
  133SAPE  C21614367   1.867   6.898   9.433 -0.1654 -0.6295  0.8285
  133SAPE  H16R14368   1.855   6.982   9.505  1.9977 -0.5801  1.2107
  133SAPE  H16S14369   1.789   6.819   9.432 -0.9005  0.0297 -2.1468
  133SAPE  C21714370   1.842   6.987   9.307  0.0352  0.2363 -0.1723
  133SAPE  H17R14371   1.932   7.048   9.288 -0.5797  1.7025  1.3323
  133SAPE  H17S14372   1.760   7.061   9.322 -0.7812 -0.7278  0.3079
  133SAPE  C21814373   1.811   6.909   9.174  0.1274  0.3408  0.3485
  133SAPE  H18R14374   1.730   6.836   9.197  0.8426 -0.0016  1.8159
  133SAPE  H18S14375   1.898   6.860   9.126  0.1777  0.3538  0.4258
  133SAPE  C21914376   1.748   6.997   9.063 -0.1414  0.0596 -1.0000
  133SAPE  H19R14377   1.752   6.935   8.970 -0.0903 -1.6017  0.0558
  133SAPE  H19S14378   1.820   7.080   9.070 -1.5831  1.2026  1.8701
  133SAPE  C22014379   1.602   7.046   9.092 -0.8998  0.0118 -0.1673
  133SAPE  H20R14380   1.580   7.070   9.198 -0.0454 -0.0429  0.0331
  133SAPE  H20S14381   1.534   6.962   9.065 -1.4135  0.5750 -0.6634
  133SAPE  H20T14382   1.577   7.129   9.022 -0.6896 -1.2313 -1.7613
  133SAPE   C3314383   1.549   7.315  10.242  0.3605 -0.3798 -0.5272
  133SAPE   H3X14384   1.653   7.338  10.211  0.4065 -0.2231 -0.2592
  133SAPE   H3Y14385   1.486   7.403  10.269  2.7247  1.0046  0.8113
  133SAPE   C3414386   1.475   7.257  10.122 -0.0483  0.2048 -0.2924
  133SAPE   H4X14387   1.375   7.217  10.148 -0.2679 -0.1936 -1.6772
  133SAPE   H4Y14388   1.530   7.170  10.082 -0.2051  0.1098 -0.3025
  133SAPE   C3514389   1.463   7.373  10.020  0.6273  0.5686  0.0120
  133SAPE   H5X14390   1.413   7.460  10.067  1.2553  0.5038  0.8181
  133SAPE   H5Y14391   1.397   7.333   9.939 -1.7401 -0.4738  2.2941
  133SAPE   C3614392   1.599   7.402   9.957  0.2059  0.1140  0.7393
  133SAPE   H6X14393   1.645   7.311   9.913  2.6285  0.8864  1.5241
  133SAPE   H6Y14394   1.666   7.447  10.034  3.2923 -0.5658 -1.3544
  133SAPE   C3714395   1.586   7.503   9.842 -0.1546 -0.3281  0.0709
  133SAPE   H7X14396   1.558   7.455   9.746  0.3755 -0.9696  0.2338
  133SAPE   H7Y14397   1.689   7.542   9.823  0.2057 -1.8371 -1.2327
  133SAPE   C3814398   1.494   7.625   9.864  0.2792  0.0055 -0.0199
  133SAPE   H8X14399   1.519   7.686   9.954  1.2578 -2.3870  1.4634
  133SAPE   H8Y14400   1.394   7.581   9.882  0.9926 -1.4807  0.5592
  133SAPE   C3914401   1.486   7.706   9.736 -0.3039  0.0533 -0.7658
  133SAPE   H9X14402   1.472   7.638   9.650 -0.0201 -0.7224 -0.2099
  133SAPE   H9Y14403   1.583   7.758   9.724 -0.3651  0.4441  0.3130
  133SAPE  C31014404   1.377   7.818   9.733 -0.1635  0.0745  0.5164
  133SAPE  H10X14405   1.391   7.874   9.828 -0.3366 -1.7651  1.6726
  133SAPE  H10Y14406   1.276   7.773   9.735  0.1245 -0.5891  0.5378
  133SAPE  C31114407   1.393   7.936   9.626  0.3583  0.7044 -0.0003
  133SAPE  H11X14408   1.497   7.969   9.648  1.2975 -3.0414  2.1716
  133SAPE  H11Y14409   1.314   8.012   9.642  0.7456  0.9845  0.6431
  133SAPE  C31214410   1.392   7.868   9.488  0.0175  0.2276 -0.1448
  133SAPE  H12X14411   1.303   7.802   9.494 -2.1669  3.0629  1.2117
  133SAPE  H12Y14412   1.481   7.801   9.479  1.7443  2.3783 -0.0182
  133SAPE  C31314413   1.382   7.972   9.376  0.2637 -0.0840  0.4391
  133SAPE  H13X14414   1.478   8.026   9.369  0.7950 -0.7408  2.0404
  133SAPE  H13Y14415   1.299   8.041   9.402  0.4318  0.5969 -0.7638
  133SAPE  C31414416   1.364   7.914   9.236  0.8973  0.9849  0.0677
  133SAPE  H14X14417   1.258   7.925   9.206  0.6342  0.0550  0.6143
  133SAPE  H14Y14418   1.398   7.808   9.248  0.1992  0.9418  1.8863
  133SAPE  C31514419   1.454   7.968   9.118 -0.1751 -0.4475  0.3952
  133SAPE  H15X14420   1.562   7.979   9.143 -0.6517 -2.2949  3.9071
  133SAPE  H15Y14421   1.415   8.071   9.105  1.3931  0.4403  2.1375
  133SAPE  C31614422   1.423   7.895   8.983  0.0304  0.2775 -0.2533
  133SAPE  H16X14423   1.322   7.918   8.944  0.4113 -1.2992 -2.3553
  133SAPE  H16Y14424   1.406   7.788   9.006 -1.3782  0.7234  0.9267
  133SAPE  C31714425   1.534   7.910   8.883 -0.2386  0.2005 -0.4489
  133SAPE  H17X14426   1.632   7.871   8.920 -0.8105 -2.6887 -1.7076
  133SAPE  H17Y14427   1.544   8.017   8.855  2.4616 -0.3504 -2.0783
  133SAPE  C31814428   1.489   7.838   8.758  0.2661  0.1042  0.1601
  133SAPE  H18X14429   1.573   7.842   8.686  1.5409  1.3244  1.6471
  133SAPE  H18Y14430   1.402   7.885   8.706  0.6542 -0.6754 -1.2556
  133SAPE  H18Z14431   1.465   7.734   8.787 -0.9487  0.3612  0.1366
  134SAPE     N14432   4.530   5.504  10.628  0.5594 -0.7553  0.3014
  134SAPE   HN114433   4.561   5.567  10.705  2.1951 -0.2099 -0.7562
  134SAPE   HN214434   4.429   5.486  10.648  0.2393 -2.5277 -2.4466
  134SAPE   HN314435   4.575   5.411  10.640 -0.9693 -1.3754  1.6895
  134SAPE   C1214436   4.535   5.566  10.488  0.5209 -0.1130 -0.2048
  134SAPE  H12A14437   4.496   5.490  10.417  0.6290 -0.4608  0.1013
  134SAPE  H12B14438   4.640   5.592  10.465  0.8445 -0.4764  0.7792
  134SAPE   C1114439   4.445   5.692  10.473 -0.5723 -0.2252  0.1038
  134SAPE  H11A14440   4.337   5.675  10.454 -0.3032  0.7696 -2.7783
  134SAPE  H11B14441   4.479   5.748  10.383 -2.3210 -1.7092 -1.5585
  134SAPE     P14442   4.578   5.888  10.607 -0.3886  0.1735 -0.1391
  134SAPE   O1314443   4.523   5.982  10.706  0.1484  0.1140 -0.3419
  134SAPE   O1414444   4.717   5.835  10.638 -0.9188 -0.3937  0.0544
  134SAPE   O1214445   4.469   5.776  10.583 -0.6645 -0.8775  0.0212
  134SAPE   O1114446   4.582   5.962  10.466 -0.1430 -0.8246 -0.2846
  134SAPE    C114447   4.505   6.081  10.442 -0.3039 -0.3464 -0.0187
  134SAPE    HA14448   4.397   6.058  10.445 -0.2545 -0.5731  0.0061
  134SAPE    HB14449   4.541   6.162  10.510  2.6329 -0.6899 -1.0057
  134SAPE    C214450   4.527   6.151  10.298 -0.9495  0.1723  0.1889
  134SAPE    HS14451   4.453   6.232  10.283  1.0759  2.4381  1.5433
  134SAPE   O2114452   4.519   6.041  10.200 -0.4064 -0.6037  0.1186
  134SAPE   C2114453   4.396   6.008  10.175  0.1135 -0.8235  0.3581
  134SAPE   O2214454   4.298   6.066  10.220  0.0126 -0.1703 -0.0909
  134SAPE   C2214455   4.391   5.894  10.071 -0.0416 -0.1647 -0.1759
  134SAPE   H2R14456   4.407   5.799  10.125 -2.7796 -1.1276 -0.8983
  134SAPE   H2S14457   4.291   5.906  10.022 -0.1622  2.0238  0.4705
  134SAPE    C314458   4.667   6.206  10.291  0.1431  0.5629  0.0160
  134SAPE    HX14459   4.745   6.146  10.343  1.4980  2.4674  0.2798
  134SAPE    HY14460   4.667   6.297  10.355  0.3834 -0.5007  1.5860
  134SAPE   O3114461   4.716   6.232  10.159  0.1974  0.0868  0.0683
  134SAPE   C3114462   4.804   6.157  10.111  0.3457 -0.2257  0.9617
  134SAPE   O3214463   4.838   6.045  10.153  0.0068 -0.1029  0.1512
  134SAPE   C3214464   4.858   6.214   9.983 -0.4964 -0.4895  0.2639
  134SAPE   H2X14465   4.953   6.160   9.961 -0.3935  0.4275 -1.7319
  134SAPE   H2Y14466   4.879   6.321  10.004 -2.7804 -0.0583  0.5849
  134SAPE   C2314467   4.512   5.892   9.971  0.5912  0.3162  0.0507
  134SAPE   H3R14468   4.585   5.811   9.988 -0.8150 -0.8875  0.5660
  134SAPE   H3S14469   4.555   5.995   9.977 -1.7773  1.3654  0.1423
  134SAPE   C2414470   4.462   5.872   9.829  0.0482 -0.4233 -0.1623
  134SAPE   H4R14471   4.400   5.780   9.832  0.1618 -0.4798  1.3844
  134SAPE   H4S14472   4.555   5.853   9.771 -0.1064 -3.7600  0.4774
  134SAPE   C2514473   4.395   5.982   9.760  0.1615  0.2307  0.4447
  134SAPE   H5R14474   4.343   6.054   9.824  0.3341  0.8267 -0.0737
  134SAPE   C2614475   4.397   5.998   9.628 -1.1868 -0.1424  0.0541
  134SAPE   H6R14476   4.355   6.093   9.592 -1.8056 -0.5626 -0.3496
  134SAPE   C2714477   4.462   5.911   9.523 -0.8275  0.1090 -0.0775
  134SAPE   H7R14478   4.479   5.807   9.559 -1.1041  0.1122  0.0645
  134SAPE   H7S14479   4.565   5.951   9.506 -0.6996  0.9404  2.2290
  134SAPE   C2814480   4.387   5.911   9.390 -0.5575  0.0673  0.4490
  134SAPE   H8R14481   4.294   5.853   9.399 -0.4968  0.0792  1.2253
  134SAPE   C2914482   4.416   5.971   9.274 -0.0756 -0.0795  0.4411
  134SAPE   H9R14483   4.340   5.968   9.195 -0.1750 -0.1322  0.5392
  134SAPE  C21014484   4.543   6.046   9.234 -0.5154 -0.2389 -0.1661
  134SAPE  H10R14485   4.635   6.022   9.291 -0.4230  1.4976  0.4586
  134SAPE  H10S14486   4.526   6.155   9.246  1.0591 -0.0477  0.5083
  134SAPE  C21114487   4.590   6.012   9.090  0.1771 -0.4606  0.5688
  134SAPE  H11R14488   4.608   5.908   9.058 -0.8180 -0.0973 -1.3063
  134SAPE  C21214489   4.625   6.103   9.001 -0.0295  0.3863 -0.0048
  134SAPE  H12R14490   4.648   6.061   8.901 -0.9988  0.7603 -0.3984
  134SAPE  C21314491   4.629   6.250   9.000 -0.1498 -0.2828 -0.3681
  134SAPE  H13R14492   4.611   6.300   9.098 -1.1027  0.0608 -0.7117
  134SAPE  H13S14493   4.546   6.289   8.938 -1.9377  0.5890  2.3857
  134SAPE  C21414494   4.760   6.303   8.946 -0.1930  0.4359  0.0362
  134SAPE  H14R14495   4.844   6.295   9.017  1.2099  0.2535 -1.5682
  134SAPE  C21514496   4.785   6.356   8.826 -0.4330 -0.3647 -0.2453
  134SAPE  H15R14497   4.885   6.400   8.811 -0.7195 -0.0022 -1.1625
  134SAPE  C21614498   4.684   6.367   8.710  0.0783 -0.0238  0.6861
  134SAPE  H16R14499   4.690   6.471   8.674 -2.6515  0.3193  1.0129
  134SAPE  H16S14500   4.579   6.359   8.746 -0.4815  0.8266 -0.6763
  134SAPE  C21714501   4.703   6.264   8.598  0.0183 -0.1406  0.0977
  134SAPE  H17R14502   4.800   6.281   8.547 -0.3017  1.2263 -0.0840
  134SAPE  H17S14503   4.623   6.281   8.522 -0.0682 -2.0518 -0.3086
  134SAPE  C21814504   4.677   6.115   8.642 -0.3249  0.3406  0.1424
  134SAPE  H18R14505   4.570   6.117   8.674 -0.6331  0.3043 -0.8604
  134SAPE  H18S14506   4.744   6.090   8.727  0.2607 -0.3738 -0.5228
  134SAPE  C21914507   4.703   6.024   8.523 -0.7219  0.7765  0.5467
  134SAPE  H19R14508   4.803   6.045   8.480  0.0164 -0.8150  1.3832
  134SAPE  H19S14509   4.641   6.039   8.432  0.8663 -1.1894 -0.9424
  134SAPE  C22014510   4.700   5.877   8.558 -0.3783  0.3744  0.2631
  134SAPE  H20R14511   4.598   5.833   8.557  0.5358 -1.9451  1.1402
  134SAPE  H20S14512   4.730   5.862   8.664 -1.6594  0.1377  0.6131
  134SAPE  H20T14513   4.769   5.823   8.491  1.2674 -0.4670  2.5150
  134SAPE   C3314514   4.759   6.213   9.862 -0.2739  0.1251 -0.3844
  134SAPE   H3X14515   4.652   6.197   9.884 -0.6849  0.5953 -1.9080
  134SAPE   H3Y14516   4.786   6.133   9.790 -0.0010 -1.6735  1.6358
  134SAPE   C3414517   4.764   6.342   9.785  0.0206 -0.0998 -0.5115
  134SAPE   H4X14518   4.862   6.349   9.733  1.6647  2.0268  2.5308
  134SAPE   H4Y14519   4.741   6.429   9.851  0.2468 -1.3097  1.2389
  134SAPE   C3514520   4.659   6.339   9.678 -0.0323  0.2177 -0.1308
  134SAPE   H5X14521   4.552   6.357   9.704 -0.5323 -1.5599 -0.8532
  134SAPE   H5Y14522   4.653   6.238   9.634 -0.8698  0.1841  0.0450
  134SAPE   C3614523   4.698   6.432   9.561  0.0277 -1.1343 -0.0414
  134SAPE   H6X14524   4.660   6.379   9.472 -0.4287 -2.6319  1.0031
  134SAPE   H6Y14525   4.808   6.432   9.545  0.1557 -1.3769  0.7621
  134SAPE   C3714526   4.643   6.576   9.570 -0.1367 -0.5969  0.8314
  134SAPE   H7X14527   4.656   6.632   9.665 -2.6425 -1.6996  1.9309
  134SAPE   H7Y14528   4.534   6.591   9.554  0.5031  1.9293 -2.3419
  134SAPE   C3814529   4.689   6.672   9.453 -0.1135  0.4156 -0.1357
  134SAPE   H8X14530   4.789   6.713   9.479 -0.1051 -0.6555  1.6741
  134SAPE   H8Y14531   4.622   6.760   9.444  0.5601  0.8599 -0.9896
  134SAPE   C3914532   4.702   6.604   9.312 -0.5433  0.1942  0.4119
  134SAPE   H9X14533   4.618   6.533   9.293  1.5551 -2.0217 -1.2989
  134SAPE   H9Y14534   4.794   6.542   9.321  1.0176  1.6988 -3.1305
  134SAPE  C31014535   4.711   6.695   9.193  0.1738  0.2128 -0.0082
  134SAPE  H10X14536   4.819   6.720   9.187  0.1087  0.5710  0.2382
  134SAPE  H10Y14537   4.671   6.799   9.199  2.1981  1.0159  0.7932
  134SAPE  C31114538   4.655   6.634   9.063  0.0503  0.2167 -0.4278
  134SAPE  H11X14539   4.566   6.569   9.078  1.4355 -1.3055  1.6173
  134SAPE  H11Y14540   4.738   6.564   9.041  0.9610  0.7740  1.1275
  134SAPE  C31214541   4.630   6.734   8.940 -0.0394 -0.0579  0.3205
  134SAPE  H12X14542   4.543   6.803   8.942 -0.7737 -0.9685  0.3774
  134SAPE  H12Y14543   4.619   6.671   8.850  3.0702 -0.4904  0.1507
  134SAPE  C31314544   4.764   6.808   8.897  0.1734 -0.1500 -0.9877
  134SAPE  H13X14545   4.843   6.731   8.885  0.2493 -0.0852 -0.9039
  134SAPE  H13Y14546   4.786   6.871   8.985 -0.5563  0.3917 -1.1817
  134SAPE  C31414547   4.764   6.879   8.764  0.7364  0.5705 -0.2482
  134SAPE  H14X14548   4.683   6.955   8.763  1.0459  0.9768  1.6347
  134SAPE  H14Y14549   4.749   6.801   8.686  1.1078  0.9848 -0.7350
  134SAPE  C31514550   4.897   6.945   8.740 -0.2009  0.2180  0.5409
  134SAPE  H15X14551   4.976   6.869   8.757  0.2009  0.6619  0.6971
  134SAPE  H15Y14552   4.914   7.032   8.807 -2.2415  0.7106  0.4891
  134SAPE  C31614553   4.907   6.994   8.593  0.3820  0.5699  0.0406
  134SAPE  H16X14554   4.814   7.044   8.559 -1.1413 -2.3198 -0.4418
  134SAPE  H16Y14555   4.902   6.894   8.544 -0.9557  1.3620 -1.5271
  134SAPE  C31714556   5.042   7.054   8.555  0.0019 -0.2059  0.8778
  134SAPE  H17X14557   5.048   7.033   8.446 -1.2167 -1.2009  0.9791
  134SAPE  H17Y14558   5.124   7.006   8.612 -1.4723  1.0008  4.3388
  134SAPE  C31814559   5.043   7.201   8.557  0.2212  0.0340 -0.2893
  134SAPE  H18X14560   5.143   7.241   8.530  0.5921 -0.5519  0.1893
  134SAPE  H18Y14561   5.018   7.236   8.660 -1.0134  1.2471 -0.9728
  134SAPE  H18Z14562   4.970   7.249   8.489  0.1950 -0.7567 -0.8422
  135SAPE     N14563   4.722   3.392  10.826  0.2446 -0.3248  0.8644
  135SAPE   HN114564   4.623   3.420  10.818 -0.0818 -1.6373  0.0279
  135SAPE   HN214565   4.735   3.289  10.818  1.8821 -0.1124  0.3857
  135SAPE   HN314566   4.751   3.421  10.922  0.8030  0.5071  0.4576
  135SAPE   C1214567   4.808   3.467  10.724  0.8686 -0.9210  0.1960
  135SAPE  H12A14568   4.908   3.420  10.718  1.4579  0.3820 -0.9480
  135SAPE  H12B14569   4.832   3.562  10.776  0.5911 -1.3510  1.1370
  135SAPE   C1114570   4.749   3.489  10.577  0.2393 -0.7364 -0.6763
  135SAPE  H11A14571   4.752   3.391  10.524 -2.3975 -1.6800  0.7292
  135SAPE  H11B14572   4.818   3.553  10.518  1.0067  0.0460  1.0130
  135SAPE     P14573   4.592   3.700  10.593  0.5620  0.1384 -0.5099
  135SAPE   O1314574   4.456   3.728  10.645  0.1216  0.0440  0.3055
  135SAPE   O1414575   4.713   3.755  10.657  0.2821 -0.1465 -0.3869
  135SAPE   O1214576   4.611   3.542  10.575 -0.0756  0.4420 -0.0576
  135SAPE   O1114577   4.593   3.741  10.439 -0.5887 -0.1017 -0.2422
  135SAPE    C114578   4.506   3.687  10.340 -0.0630 -0.6651 -1.1879
  135SAPE    HA14579   4.538   3.584  10.314 -0.3448 -0.3296 -2.9867
  135SAPE    HB14580   4.400   3.687  10.372 -0.4483 -2.1721 -2.3900
  135SAPE    C214581   4.513   3.763  10.203 -0.3876  0.8993 -0.5732
  135SAPE    HS14582   4.499   3.872  10.220 -1.3301  0.7858 -0.5908
  135SAPE   O2114583   4.411   3.724  10.111  0.8033 -0.4412  0.2934
  135SAPE   C2114584   4.303   3.808  10.098 -0.1108 -0.1968  0.3749
  135SAPE   O2214585   4.281   3.898  10.177 -0.4942  0.2234 -0.4174
  135SAPE   C2214586   4.211   3.778   9.977 -0.5154 -0.3570 -0.1510
  135SAPE   H2R14587   4.246   3.829   9.884  0.1626 -1.7824 -0.7153
  135SAPE   H2S14588   4.208   3.667   9.966 -1.2584 -0.6369  2.4158
  135SAPE    C314589   4.659   3.749  10.138  0.5775  0.0520 -1.0547
  135SAPE    HX14590   4.666   3.638  10.135  2.1491  0.0009  1.3517
  135SAPE    HY14591   4.732   3.782  10.214 -0.6735  1.4141 -0.3945
  135SAPE   O3114592   4.679   3.811  10.013 -0.3128 -0.2285  0.1029
  135SAPE   C3114593   4.702   3.951  10.017  0.1054  0.1019  0.4344
  135SAPE   O3214594   4.696   4.024  10.113 -0.2233  0.4207  0.3390
  135SAPE   C3214595   4.728   4.002   9.876 -0.0424 -0.0037 -0.9005
  135SAPE   H2X14596   4.626   4.008   9.834 -0.3563  0.1649 -0.1363
  135SAPE   H2Y14597   4.791   3.927   9.823 -0.5671 -0.6122 -0.6798
  135SAPE   C2314598   4.062   3.841   9.994 -0.2389 -0.5443 -0.2432
  135SAPE   H3R14599   4.048   3.917   9.914  0.8378  2.1533  1.9548
  135SAPE   H3S14600   4.047   3.895  10.090  0.6492  1.9865 -1.4512
  135SAPE   C2414601   3.963   3.731   9.992 -0.8787  0.3433  0.0369
  135SAPE   H4R14602   3.986   3.669   9.903 -2.0251 -0.0561  0.0070
  135SAPE   H4S14603   3.858   3.766   9.985 -0.4594  1.9058  1.1933
  135SAPE   C2514604   3.959   3.653  10.120 -0.2959 -0.2896 -0.0788
  135SAPE   H5R14605   3.972   3.711  10.212 -3.2859 -0.3963  0.5101
  135SAPE   C2614606   3.946   3.518  10.121  0.4117  0.5300 -0.3363
  135SAPE   H6R14607   3.948   3.462  10.216  0.6416  0.5730 -0.3142
  135SAPE   C2714608   3.945   3.420  10.004  0.2027 -0.0633  0.1168
  135SAPE   H7R14609   3.967   3.314  10.030  0.7785 -0.6742 -2.5617
  135SAPE   H7S14610   4.027   3.448   9.934 -0.6556 -0.3511 -1.0318
  135SAPE   C2814611   3.818   3.426   9.924  0.1771  0.7788 -0.0959
  135SAPE   H8R14612   3.730   3.431   9.990 -0.3596 -4.5053  0.0335
  135SAPE   C2914613   3.797   3.400   9.796 -0.3947 -0.1667  0.4015
  135SAPE   H9R14614   3.692   3.405   9.763 -0.7761 -1.5113  1.3538
  135SAPE  C21014615   3.900   3.356   9.689 -0.6726 -0.0923  0.6791
  135SAPE  H10R14616   3.853   3.294   9.609 -0.1348  1.2677 -0.7547
  135SAPE  H10S14617   3.989   3.304   9.731  1.0097  1.0727 -1.2338
  135SAPE  C21114618   3.945   3.487   9.629  0.0549  0.3010  0.0740
  135SAPE  H11R14619   3.970   3.567   9.700  4.5724 -0.3228 -0.4925
  135SAPE  C21214620   3.983   3.517   9.505  0.2742  0.2971  1.1528
  135SAPE  H12R14621   4.012   3.622   9.490 -1.0993  0.7975  1.7951
  135SAPE  C21314622   3.985   3.423   9.388  0.1293  0.6778  0.4698
  135SAPE  H13R14623   3.973   3.476   9.291 -1.1037  1.0754  0.8257
  135SAPE  H13S14624   3.900   3.353   9.404  2.3842 -2.6123 -0.7582
  135SAPE  C21414625   4.102   3.320   9.384 -0.0976 -0.7982  0.3490
  135SAPE  H14R14626   4.115   3.272   9.483  2.0722 -0.1006  0.4623
  135SAPE  C21514627   4.202   3.310   9.287  0.5937  0.3030 -0.1996
  135SAPE  H15R14628   4.283   3.239   9.311  0.2145  0.3929  1.4776
  135SAPE  C21614629   4.221   3.377   9.157  0.5540  0.4213  0.5290
  135SAPE  H16R14630   4.310   3.444   9.149  0.3522  0.5472 -0.9254
  135SAPE  H16S14631   4.126   3.432   9.143  0.1230 -0.1772  1.0576
  135SAPE  C21714632   4.230   3.271   9.040 -0.2889 -0.7348 -0.3647
  135SAPE  H17R14633   4.134   3.217   9.047 -1.2709  1.0545  0.9233
  135SAPE  H17S14634   4.322   3.211   9.054  1.1817  1.4846  0.0665
  135SAPE  C21814635   4.234   3.347   8.906 -0.3074 -0.1650 -1.0498
  135SAPE  H18R14636   4.242   3.274   8.823  1.4279 -0.9729 -0.2203
  135SAPE  H18S14637   4.319   3.419   8.903 -1.7619  1.6438 -1.1252
  135SAPE  C21914638   4.111   3.431   8.876  0.0659 -0.3549 -0.1272
  135SAPE  H19R14639   4.134   3.526   8.926  3.1059 -0.9545 -0.2310
  135SAPE  H19S14640   4.013   3.394   8.915 -0.9794  2.5803  0.2273
  135SAPE  C22014641   4.097   3.435   8.725 -0.2392 -0.2925  0.5945
  135SAPE  H20R14642   4.024   3.515   8.699 -2.3175 -2.5290 -0.7899
  135SAPE  H20S14643   4.056   3.339   8.687  0.2412 -1.4696  2.8497
  135SAPE  H20T14644   4.190   3.461   8.670 -2.1569  2.6252 -1.6371
  135SAPE   C3314645   4.795   4.145   9.862 -0.1889  0.1320 -0.2350
  135SAPE   H3X14646   4.894   4.155   9.910  0.2183 -0.5902 -0.8951
  135SAPE   H3Y14647   4.724   4.219   9.905  0.2968  0.3513  0.1858
  135SAPE   C3414648   4.813   4.174   9.716 -0.4346 -0.5047  0.7862
  135SAPE   H4X14649   4.876   4.102   9.659  1.5933  2.1160 -0.4789
  135SAPE   H4Y14650   4.866   4.271   9.719 -0.6490 -0.3913  0.9162
  135SAPE   C3514651   4.685   4.192   9.639  0.6752  0.5086 -0.1931
  135SAPE   H5X14652   4.624   4.265   9.695 -1.6702 -0.8290 -0.8841
  135SAPE   H5Y14653   4.618   4.103   9.633  1.5751 -0.2483  0.5349
  135SAPE   C3614654   4.709   4.254   9.494  0.0859  0.1834  0.6499
  135SAPE   H6X14655   4.782   4.192   9.438  0.3682 -0.5117  1.7601
  135SAPE   H6Y14656   4.771   4.343   9.522  1.6255 -0.7117  0.2380
  135SAPE   C3714657   4.584   4.296   9.412 -0.0540  0.0857 -0.1024
  135SAPE   H7X14658   4.496   4.342   9.462  1.1176  0.6017  1.5803
  135SAPE   H7Y14659   4.531   4.201   9.390  2.1066 -1.3358  0.5227
  135SAPE   C3814660   4.606   4.347   9.271 -0.6625  0.4729  0.8585
  135SAPE   H8X14661   4.678   4.289   9.210 -0.6238  1.8351 -0.4613
  135SAPE   H8Y14662   4.648   4.450   9.269  0.5895  0.0332  2.5547
  135SAPE   C3914663   4.472   4.332   9.199  0.3314  0.3077  0.3482
  135SAPE   H9X14664   4.408   4.418   9.228 -2.1919 -0.3673 -2.6396
  135SAPE   H9Y14665   4.418   4.238   9.227 -0.7997  0.2693 -1.7396
  135SAPE  C31014666   4.473   4.336   9.042 -0.1316 -0.4954 -0.0969
  135SAPE  H10X14667   4.372   4.316   9.001  0.5096  0.4497 -2.2783
  135SAPE  H10Y14668   4.542   4.258   9.002 -1.3023 -1.0046 -1.1906
  135SAPE  C31114669   4.512   4.472   8.981  0.1144  0.7365  0.5377
  135SAPE  H11X14670   4.611   4.496   9.026 -0.6313  1.0756  2.0742
  135SAPE  H11Y14671   4.447   4.549   9.028 -0.6519  0.1583  0.4581
  135SAPE  C31214672   4.513   4.491   8.825 -0.0714  0.1157 -0.2778
  135SAPE  H12X14673   4.571   4.583   8.801  0.3997 -0.4681 -1.4257
  135SAPE  H12Y14674   4.408   4.508   8.792 -0.2057  0.0805  0.1180
  135SAPE  C31314675   4.596   4.382   8.746  0.1828  0.4777  0.1337
  135SAPE  H13X14676   4.557   4.278   8.747 -0.9582  0.8914  1.4994
  135SAPE  H13Y14677   4.695   4.384   8.796  0.0306 -0.0147  0.4551
  135SAPE  C31414678   4.615   4.423   8.597 -0.0234  0.1270 -0.2544
  135SAPE  H14X14679   4.611   4.534   8.591  1.3705  0.3108  1.5668
  135SAPE  H14Y14680   4.531   4.383   8.535  1.2071  1.6669 -3.1109
  135SAPE  C31514681   4.728   4.359   8.521 -0.8967 -0.2109 -0.3538
  135SAPE  H15X14682   4.720   4.249   8.527  0.4193 -0.3858 -1.3527
  135SAPE  H15Y14683   4.817   4.381   8.584 -0.5343 -1.0257 -0.5731
  135SAPE  C31614684   4.742   4.411   8.378  0.4498  0.2223  0.2512
  135SAPE  H16X14685   4.741   4.520   8.396 -1.1588  0.2527  0.1755
  135SAPE  H16Y14686   4.657   4.386   8.311 -0.1341 -0.8929  1.3580
  135SAPE  C31714687   4.877   4.381   8.307 -0.1548 -0.6938 -0.2734
  135SAPE  H17X14688   4.954   4.452   8.344 -1.4892  0.1144  1.0616
  135SAPE  H17Y14689   4.853   4.390   8.199 -0.7722 -1.7150 -0.2400
  135SAPE  C31814690   4.922   4.234   8.309 -0.4284 -0.3686 -0.5479
  135SAPE  H18X14691   4.949   4.204   8.413 -0.5596  1.9109  0.2086
  135SAPE  H18Y14692   5.004   4.225   8.236 -0.4711  3.2361 -1.2425
  135SAPE  H18Z14693   4.830   4.183   8.272 -2.0829  3.1334 -1.7523
  136SAPE     N14694   1.615   4.723  10.543  0.1329 -0.3059  0.5824
  136SAPE   HN114695   1.663   4.804  10.499  0.6194  0.2234  2.0354
  136SAPE   HN214696   1.623   4.721  10.646 -0.3535 -2.8799  0.6362
  136SAPE   HN314697   1.660   4.635  10.511  0.7134  0.5413 -1.0381
  136SAPE   C1214698   1.469   4.729  10.507  0.0120 -0.1450  0.2109
  136SAPE  H12A14699   1.422   4.812  10.564 -0.5385 -0.0548 -0.3630
  136SAPE  H12B14700   1.424   4.633  10.541 -0.9385 -0.5601 -2.0686
  136SAPE   C1114701   1.452   4.738  10.355  0.4520  0.4504 -0.5454
  136SAPE  H11A14702   1.352   4.703  10.320  1.8335 -1.6412 -2.6923
  136SAPE  H11B14703   1.524   4.672  10.303  0.1271 -0.6801  0.3850
  136SAPE     P14704   1.587   4.955  10.269  0.7935 -0.2113 -0.0819
  136SAPE   O1314705   1.561   5.098  10.290  0.0435  0.0932 -0.0528
  136SAPE   O1414706   1.697   4.900  10.351 -0.1671  0.7536 -0.1723
  136SAPE   O1214707   1.458   4.877  10.329  0.0687 -0.1690  0.0778
  136SAPE   O1114708   1.592   4.916  10.124 -0.5832 -0.2312 -0.5597
  136SAPE    C114709   1.467   4.925  10.050  0.3868  0.8056  0.1309
  136SAPE    HA14710   1.432   4.828  10.008 -0.0678  0.4828  1.2225
  136SAPE    HB14711   1.377   4.954  10.108  1.2579  2.6043  0.6605
  136SAPE    C214712   1.481   5.029   9.933  0.1833  0.1076 -0.0580
  136SAPE    HS14713   1.381   5.063   9.900 -0.6012 -1.2765  0.7909
  136SAPE   O2114714   1.574   4.972   9.832  0.3831 -0.8974  0.5154
  136SAPE   C2114715   1.518   4.902   9.735 -0.7618 -0.4695 -0.2543
  136SAPE   O2214716   1.402   4.874   9.721 -0.5939  0.2762  1.2838
  136SAPE   C2214717   1.628   4.862   9.634 -0.4493  0.0378 -0.3973
  136SAPE   H2R14718   1.725   4.861   9.688 -0.5548  1.6102 -0.1271
  136SAPE   H2S14719   1.593   4.760   9.606 -0.1261  0.0429 -0.8339
  136SAPE    C314720   1.537   5.168   9.977 -0.0200  1.1778 -0.3198
  136SAPE    HX14721   1.642   5.141  10.003  0.1042  2.2052  0.2509
  136SAPE    HY14722   1.490   5.198  10.072 -1.0002 -2.5077  0.5299
  136SAPE   O3114723   1.517   5.251   9.864  0.7323  0.5501  0.0703
  136SAPE   C3114724   1.629   5.296   9.805  0.3831 -0.1703 -0.2191
  136SAPE   O3214725   1.744   5.258   9.822 -0.1712  0.2031  0.0791
  136SAPE   C3214726   1.583   5.388   9.691  0.3032  0.3582 -0.1617
  136SAPE   H2X14727   1.616   5.492   9.716 -0.5949  0.9691 -1.4051
  136SAPE   H2Y14728   1.472   5.385   9.685  0.2692 -0.7978  0.7444
  136SAPE   C2314729   1.627   4.973   9.520  0.6804  0.2053 -0.0126
  136SAPE   H3R14730   1.682   5.066   9.545 -0.6781  0.9877  0.1470
  136SAPE   H3S14731   1.521   4.995   9.498  0.8994  0.8139 -0.4775
  136SAPE   C2414732   1.685   4.921   9.387 -0.1892  0.1155 -0.5426
  136SAPE   H4R14733   1.786   4.881   9.413  1.5214  2.4228 -3.0070
  136SAPE   H4S14734   1.690   5.012   9.324  1.4302 -0.2094 -0.9424
  136SAPE   C2514735   1.613   4.800   9.327 -0.7337 -0.0693 -0.3337
  136SAPE   H5R14736   1.602   4.713   9.392 -1.9910 -0.9912 -1.7198
  136SAPE   C2614737   1.567   4.791   9.200  0.3175  0.4757  0.1028
  136SAPE   H6R14738   1.511   4.700   9.174  0.0035  0.3568  1.1603
  136SAPE   C2714739   1.580   4.893   9.089 -0.9215  0.0943 -0.2791
  136SAPE   H7R14740   1.644   4.982   9.111  0.5658 -0.8448 -0.6792
  136SAPE   H7S14741   1.483   4.947   9.081 -1.2870 -0.4804  0.1927
  136SAPE   C2814742   1.626   4.835   8.955  0.4865  0.3395 -0.8029
  136SAPE   H8R14743   1.736   4.826   8.948  0.7089  0.9156  1.3034
  136SAPE   C2914744   1.558   4.798   8.842  0.6920  0.0583 -0.0759
  136SAPE   H9R14745   1.599   4.763   8.746 -2.0093  0.2106 -1.4104
  136SAPE  C21014746   1.407   4.800   8.826  0.0050  0.1691  0.3904
  136SAPE  H10R14747   1.385   4.855   8.731  0.9209  1.4881  0.9077
  136SAPE  H10S14748   1.358   4.860   8.905 -1.3754  0.2087 -0.4604
  136SAPE  C21114749   1.360   4.663   8.824  0.0953 -0.4526 -0.3202
  136SAPE  H11R14750   1.357   4.621   8.925  1.5266 -0.6004 -0.3141
  136SAPE  C21214751   1.315   4.593   8.720  0.3189 -0.1233 -0.0961
  136SAPE  H12R14752   1.267   4.498   8.749  0.1512 -0.3044 -0.9304
  136SAPE  C21314753   1.310   4.635   8.576  0.3263 -1.0458  0.0862
  136SAPE  H13R14754   1.414   4.667   8.556 -0.2911  0.6382 -0.6509
  136SAPE  H13S14755   1.247   4.726   8.561  0.9613 -0.1419  2.3615
  136SAPE  C21414756   1.285   4.519   8.489 -0.0224 -0.4030  0.0099
  136SAPE  H14R14757   1.178   4.508   8.465  0.5687 -0.0950 -3.2532
  136SAPE  C21514758   1.362   4.414   8.464 -0.3181 -0.3139 -0.0175
  136SAPE  H15R14759   1.319   4.339   8.396 -0.4593  0.1281 -0.4175
  136SAPE  C21614760   1.505   4.384   8.507 -0.0961  0.0665 -0.5513
  136SAPE  H16R14761   1.511   4.283   8.551 -1.8442  0.0085 -0.3569
  136SAPE  H16S14762   1.526   4.457   8.589 -1.0847 -0.8435  0.5451
  136SAPE  C21714763   1.607   4.408   8.389  0.0387  0.6014 -0.3675
  136SAPE  H17R14764   1.703   4.435   8.438 -1.7353  0.8472  3.3035
  136SAPE  H17S14765   1.583   4.495   8.324  0.4282  1.6419  0.8420
  136SAPE  C21814766   1.628   4.269   8.316  0.3743 -0.8055 -0.4046
  136SAPE  H18R14767   1.684   4.298   8.225  0.8401  2.2592  0.7174
  136SAPE  H18S14768   1.531   4.222   8.290  0.4268 -0.9862 -0.2701
  136SAPE  C21914769   1.719   4.174   8.388 -0.3743 -0.1208 -0.1087
  136SAPE  H19R14770   1.669   4.157   8.486 -2.0303 -0.8355 -1.0526
  136SAPE  H19S14771   1.817   4.224   8.407 -0.6018  0.1801  0.2954
  136SAPE  C22014772   1.737   4.045   8.314 -0.2594 -0.1591  0.0012
  136SAPE  H20R14773   1.672   3.961   8.347  1.1476 -1.7689 -1.1127
  136SAPE  H20S14774   1.843   4.012   8.316 -0.3016 -0.2633  1.8627
  136SAPE  H20T14775   1.720   4.078   8.209 -1.4331  2.1957  0.8661
  136SAPE   C3314776   1.648   5.344   9.553  0.0258  0.0810 -0.1687
  136SAPE   H3X14777   1.611   5.242   9.532  1.1748 -0.3418 -0.1848
  136SAPE   H3Y14778   1.759   5.336   9.551  0.1363  1.1200  0.7067
  136SAPE   C3414779   1.626   5.449   9.441  0.2845  0.8469 -0.4658
  136SAPE   H4X14780   1.697   5.533   9.452  2.2306 -0.8360  0.5235
  136SAPE   H4Y14781   1.521   5.486   9.449  0.6607  1.5900  1.7931
  136SAPE   C3514782   1.653   5.393   9.301  0.5990 -0.5785  0.3847
  136SAPE   H5X14783   1.590   5.302   9.289  0.1567 -0.1995 -0.1968
  136SAPE   H5Y14784   1.760   5.364   9.291  1.1207  0.8863  1.2971
  136SAPE   C3614785   1.605   5.490   9.189 -0.2475 -0.1379 -0.4007
  136SAPE   H6X14786   1.646   5.592   9.208  0.1447 -0.7655  2.5723
  136SAPE   H6Y14787   1.495   5.504   9.202 -0.3906 -1.4038 -0.1587
  136SAPE   C3714788   1.638   5.454   9.050 -0.4295  0.1766  0.2583
  136SAPE   H7X14789   1.603   5.351   9.028  0.5966 -0.5631  1.8864
  136SAPE   H7Y14790   1.744   5.454   9.018 -1.0497 -0.4419 -2.0064
  136SAPE   C3814791   1.562   5.554   8.960  0.4179  0.1279  0.1063
  136SAPE   H8X14792   1.593   5.659   8.982  1.7159  0.0142 -1.0432
  136SAPE   H8Y14793   1.452   5.570   8.966 -0.1212 -2.7045 -0.7024
  136SAPE   C3914794   1.605   5.524   8.817  0.3365  0.5754  0.0283
  136SAPE   H9X14795   1.562   5.425   8.791  1.4856  0.3132 -0.9643
  136SAPE   H9Y14796   1.716   5.521   8.808  0.4858 -1.8433  1.5733
  136SAPE  C31014797   1.564   5.632   8.715  0.2691  0.3727 -0.2872
  136SAPE  H10X14798   1.608   5.717   8.772  0.6720 -1.0667  1.6422
  136SAPE  H10Y14799   1.455   5.649   8.711  0.4670  1.8218 -0.1409
  136SAPE  C31114800   1.615   5.595   8.577 -0.3063 -0.4777  0.3608
  136SAPE  H11X14801   1.577   5.503   8.526 -3.1954 -0.0324  1.4926
  136SAPE  H11Y14802   1.725   5.604   8.584  0.0248 -1.9480 -1.9247
  136SAPE  C31214803   1.562   5.701   8.479 -0.7435  0.0952 -0.7884
  136SAPE  H12X14804   1.604   5.800   8.504 -1.4825  0.0824  0.5744
  136SAPE  H12Y14805   1.451   5.711   8.487 -0.4146  3.3396  1.1896
  136SAPE  C31314806   1.620   5.671   8.340 -0.2631  0.4771 -0.4880
  136SAPE  H13X14807   1.575   5.579   8.296 -2.4650  1.3002 -0.0590
  136SAPE  H13Y14808   1.729   5.656   8.352 -0.5278 -0.6031  0.8624
  136SAPE  C31414809   1.585   5.787   8.249  0.4025 -0.0394 -0.5900
  136SAPE  H14X14810   1.617   5.887   8.285  3.0514 -0.7727 -0.6450
  136SAPE  H14Y14811   1.474   5.784   8.250  0.4109 -1.0204  0.3531
  136SAPE  C31514812   1.611   5.767   8.100 -0.0399  0.4667  0.1670
  136SAPE  H15X14813   1.566   5.671   8.065  1.1330  0.6135 -1.8720
  136SAPE  H15Y14814   1.721   5.758   8.090 -0.1806 -1.6637  0.1302
  136SAPE  C31614815   1.562   5.872   8.004  0.3086  0.5631  0.5165
  136SAPE  H16X14816   1.592   5.975   8.032  0.2050  0.5387  0.7247
  136SAPE  H16Y14817   1.454   5.898   7.994  1.0027  2.9372 -2.2878
  136SAPE  C31714818   1.612   5.827   7.864  0.1697 -0.2966 -0.1138
  136SAPE  H17X14819   1.549   5.876   7.787 -1.0368 -1.0700  0.3535
  136SAPE  H17Y14820   1.586   5.719   7.864  0.4050 -0.3737  1.2286
  136SAPE  C31814821   1.759   5.846   7.839 -0.1351 -0.2626  0.2438
  136SAPE  H18X14822   1.782   5.954   7.853  2.2059 -0.9058  1.8800
  136SAPE  H18Y14823   1.792   5.823   7.736  0.3860  1.1098  0.0753
  136SAPE  H18Z14824   1.816   5.779   7.907 -1.4617 -2.4368 -0.6809
  137SAPE     N14825   3.984   6.501  10.707 -0.3660 -0.1989 -0.2649
  137SAPE   HN114826   3.982   6.572  10.783 -0.0005 -0.3644 -0.0943
  137SAPE   HN214827   3.953   6.411  10.751 -0.5963  0.2519  0.5205
  137SAPE   HN314828   4.082   6.512  10.673 -0.0371  1.6578  1.1011
  137SAPE   C1214829   3.892   6.537  10.589  0.7533 -0.0281 -0.3232
  137SAPE  H12A14830   3.786   6.524  10.617  0.4811  0.7043 -0.9618
  137SAPE  H12B14831   3.923   6.483  10.497 -0.4869  1.5669 -1.7564
  137SAPE   C1114832   3.915   6.683  10.567 -0.6114 -0.4929  0.3968
  137SAPE  H11A14833   3.848   6.709  10.482  3.0410  3.5858 -1.6376
  137SAPE  H11B14834   4.017   6.703  10.529 -0.4429 -1.0075  0.5766
  137SAPE     P14835   3.829   6.911  10.655  0.1611 -0.2437  0.0143
  137SAPE   O1314836   3.698   6.885  10.595  0.6655 -0.4977 -0.1843
  137SAPE   O1414837   3.829   6.984  10.781 -0.6748 -0.4895 -0.5661
  137SAPE   O1214838   3.895   6.770  10.679 -0.6484  0.8378  1.1544
  137SAPE   O1114839   3.931   6.981  10.554 -0.4697 -0.1746 -0.1311
  137SAPE    C114840   3.918   7.113  10.510 -0.1313  0.4192 -0.6648
  137SAPE    HA14841   3.862   7.170  10.587 -1.1468 -0.7233 -0.5099
  137SAPE    HB14842   4.016   7.165  10.517  0.5925 -0.9427 -0.2263
  137SAPE    C214843   3.862   7.131  10.368  0.2137  0.2545  0.4996
  137SAPE    HS14844   3.786   7.051  10.355  0.7442 -0.0120 -1.2315
  137SAPE   O2114845   3.965   7.116  10.269 -0.0111 -0.6198  0.1031
  137SAPE   C2114846   3.990   6.989  10.236 -0.5355  0.3669 -0.5429
  137SAPE   O2214847   3.916   6.898  10.247 -0.2697  0.3544 -0.4275
  137SAPE   C2214848   4.129   6.989  10.176 -1.1091  0.7892 -0.0188
  137SAPE   H2R14849   4.172   7.091  10.168 -0.9172  0.7709  0.7957
  137SAPE   H2S14850   4.195   6.915  10.225  2.5196  1.5720 -3.2037
  137SAPE    C314851   3.791   7.270  10.334  0.2005 -0.6243 -0.3603
  137SAPE    HX14852   3.870   7.348  10.349  0.9477 -1.5311  0.5561
  137SAPE    HY14853   3.722   7.295  10.417  0.0879  0.7911 -0.8541
  137SAPE   O3114854   3.729   7.278  10.201 -0.2356  0.6077 -0.1875
  137SAPE   C3114855   3.614   7.209  10.192  0.0117  0.0600  0.1645
  137SAPE   O3214856   3.568   7.142  10.284 -0.3594 -0.1895 -0.2509
  137SAPE   C3214857   3.537   7.233  10.069  0.3907 -0.7080  0.0035
  137SAPE   H2X14858   3.544   7.340  10.042  4.7789 -0.7114  0.3612
  137SAPE   H2Y14859   3.433   7.200  10.090 -0.0026  1.0645  0.9329
  137SAPE   C2314860   4.147   6.945  10.031 -0.2995  0.1231  0.1032
  137SAPE   H3R14861   4.072   6.872   9.996  0.6812 -1.1226  0.5322
  137SAPE   H3S14862   4.241   6.889  10.014  1.1755  1.8672  2.0446
  137SAPE   C2414863   4.146   7.068   9.932 -0.0548 -0.2809 -0.0713
  137SAPE   H4R14864   4.196   7.036   9.838  0.2930 -1.0544  0.3638
  137SAPE   H4S14865   4.216   7.144   9.973  0.7921 -1.5080  0.8556
  137SAPE   C2514866   4.012   7.126   9.906 -0.2110  0.1662 -0.1448
  137SAPE   H5R14867   3.969   7.183   9.990  1.0941 -0.3723  0.9203
  137SAPE   C2614868   3.947   7.130   9.785  0.5887  0.2964  0.1585
  137SAPE   H6R14869   3.851   7.185   9.781 -0.6435 -1.6850  0.7722
  137SAPE   C2714870   3.992   7.067   9.653 -0.1373 -0.1190 -0.3136
  137SAPE   H7R14871   3.903   7.046   9.590  0.8989  0.5983 -2.0981
  137SAPE   H7S14872   4.056   6.979   9.673 -0.9830 -0.5797  0.4328
  137SAPE   C2814873   4.059   7.174   9.566 -0.1200 -0.8607 -0.0265
  137SAPE   H8R14874   4.058   7.275   9.609  0.5759 -0.3432 -1.1803
  137SAPE   C2914875   4.101   7.143   9.440 -0.2968  0.0833 -0.2393
  137SAPE   H9R14876   4.154   7.224   9.388  0.2515 -0.5379 -0.6519
  137SAPE  C21014877   4.084   7.015   9.356 -0.3216 -0.9762  0.4529
  137SAPE  H10R14878   4.068   7.058   9.254  0.2053  0.5573  0.9859
  137SAPE  H10S14879   3.990   6.961   9.378 -1.5874 -0.1000 -2.2581
  137SAPE  C21114880   4.208   6.927   9.369  0.8059 -0.0940  0.4048
  137SAPE  H11R14881   4.265   6.934   9.462 -0.3171  0.6800  1.0525
  137SAPE  C21214882   4.260   6.848   9.276 -0.0399 -0.0536  0.7346
  137SAPE  H12R14883   4.341   6.780   9.307  0.0045 -0.4331 -0.1848
  137SAPE  C21314884   4.203   6.814   9.136  0.5791  0.3347  0.4512
  137SAPE  H13R14885   4.092   6.808   9.144  0.3894 -0.9753 -2.2102
  137SAPE  H13S14886   4.239   6.717   9.097 -1.3534 -0.1939 -0.1181
  137SAPE  C21414887   4.236   6.928   9.035 -0.2599  0.0561 -0.6045
  137SAPE  H14R14888   4.273   7.020   9.082 -0.9047 -0.4492  0.9726
  137SAPE  C21514889   4.202   6.930   8.910  0.4372  0.1890  0.2151
  137SAPE  H15R14890   4.248   7.010   8.851 -0.0343 -0.5918 -1.2863
  137SAPE  C21614891   4.134   6.822   8.831 -0.0533 -0.2817  0.4195
  137SAPE  H16R14892   4.034   6.866   8.808  0.2696  0.2001 -0.0782
  137SAPE  H16S14893   4.121   6.725   8.884 -1.6356 -0.6096 -0.5064
  137SAPE  C21714894   4.194   6.791   8.687 -0.0472 -0.3955 -0.7086
  137SAPE  H17R14895   4.193   6.889   8.635 -0.1360 -0.0278 -0.0218
  137SAPE  H17S14896   4.124   6.726   8.631 -0.4047  0.6899 -1.5509
  137SAPE  C21814897   4.331   6.719   8.698 -0.4317 -0.3683 -0.0567
  137SAPE  H18R14898   4.317   6.627   8.760 -1.6148 -0.7789 -0.8948
  137SAPE  H18S14899   4.399   6.779   8.762 -0.2572 -1.0426  0.4011
  137SAPE  C21914900   4.401   6.706   8.565 -0.8446  0.0284 -0.3801
  137SAPE  H19R14901   4.498   6.655   8.586 -1.4793 -0.7806  0.7082
  137SAPE  H19S14902   4.415   6.811   8.532 -0.8668 -0.1839 -1.0944
  137SAPE  C22014903   4.327   6.626   8.464 -0.1634  0.4070  0.1422
  137SAPE  H20R14904   4.384   6.634   8.370 -0.6231 -0.6259 -0.2417
  137SAPE  H20S14905   4.225   6.668   8.450 -0.4557 -0.0957  0.6847
  137SAPE  H20T14906   4.308   6.520   8.494 -0.3700 -0.1130 -1.7113
  137SAPE   C3314907   3.582   7.151   9.952  0.0244 -0.3696 -0.0513
  137SAPE   H3X14908   3.610   7.049   9.986 -1.2993 -0.3067  1.3719
  137SAPE   H3Y14909   3.663   7.197   9.893  0.8369  0.5488  1.6909
  137SAPE   C3414910   3.462   7.117   9.866 -0.3724  0.5894  0.7342
  137SAPE   H4X14911   3.412   7.212   9.839 -0.9748 -0.4480 -2.2244
  137SAPE   H4Y14912   3.402   7.034   9.910  1.6674 -1.0590  0.5751
  137SAPE   C3514913   3.501   7.052   9.729 -0.0431 -0.1546  0.4662
  137SAPE   H5X14914   3.415   7.008   9.675  0.3267 -0.5406  0.1841
  137SAPE   H5Y14915   3.569   6.968   9.758 -0.2676 -0.1546  0.9995
  137SAPE   C3614916   3.581   7.125   9.624  0.2444 -0.1955  0.2723
  137SAPE   H6X14917   3.677   7.153   9.672 -0.6324  2.6336  0.5820
  137SAPE   H6Y14918   3.527   7.218   9.595  2.4592  1.9965  2.6226
  137SAPE   C3714919   3.594   7.042   9.496  0.4152 -0.4407 -0.5233
  137SAPE   H7X14920   3.569   6.936   9.521  0.9760 -0.4376  0.0817
  137SAPE   H7Y14921   3.697   7.037   9.455 -0.4323  0.7318 -2.9326
  137SAPE   C3814922   3.505   7.083   9.378 -0.3267 -0.2020  0.0632
  137SAPE   H8X14923   3.548   7.172   9.326  2.4789 -1.6105 -0.2195
  137SAPE   H8Y14924   3.402   7.097   9.416 -0.5044 -0.9004 -0.1611
  137SAPE   C3914925   3.495   6.975   9.274 -0.8188  0.6880  1.0708
  137SAPE   H9X14926   3.483   6.875   9.320 -0.9679  0.9846  1.6974
  137SAPE   H9Y14927   3.589   6.976   9.216 -1.4014  0.5781  0.0956
  137SAPE  C31014928   3.376   7.000   9.177 -0.0031 -0.1693  0.1988
  137SAPE  H10X14929   3.374   7.107   9.146 -0.3949 -0.7960 -2.1894
  137SAPE  H10Y14930   3.279   6.979   9.226 -1.9662  1.0423 -2.8337
  137SAPE  C31114931   3.388   6.920   9.044  0.2265 -0.4232 -0.3722
  137SAPE  H11X14932   3.413   6.812   9.053  2.0925 -0.2685 -2.7086
  137SAPE  H11Y14933   3.469   6.971   8.988  0.2180  1.2279  1.0500
  137SAPE  C31214934   3.266   6.930   8.958  0.5521 -0.3353  0.4834
  137SAPE  H12X14935   3.171   6.957   9.008 -0.3245 -1.1806 -0.6923
  137SAPE  H12Y14936   3.251   6.836   8.900  1.3774  0.3467 -0.8791
  137SAPE  C31314937   3.290   7.052   8.859  0.1078  1.0022  0.1411
  137SAPE  H13X14938   3.375   7.041   8.788 -1.4024  2.7248 -2.0838
  137SAPE  H13Y14939   3.291   7.140   8.926 -0.5963  0.1582  1.3064
  137SAPE  C31414940   3.153   7.057   8.773 -0.4869  0.0639  0.5187
  137SAPE  H14X14941   3.061   7.056   8.835 -1.7949  2.3146 -1.2351
  137SAPE  H14Y14942   3.150   6.962   8.714 -0.1886 -0.0127  0.6240
  137SAPE  C31514943   3.145   7.183   8.683 -0.6489  0.4692 -0.1824
  137SAPE  H15X14944   3.250   7.195   8.650 -0.5424  1.1095  0.3793
  137SAPE  H15Y14945   3.122   7.269   8.750  0.4068 -0.1357  0.9953
  137SAPE  C31614946   3.055   7.181   8.559  0.0729 -0.1647 -0.0628
  137SAPE  H16X14947   3.043   7.284   8.519 -0.9513 -1.2663 -2.8956
  137SAPE  H16Y14948   2.957   7.150   8.600  0.8091 -0.1436  1.7991
  137SAPE  C31714949   3.092   7.089   8.447  0.0011  0.3328  0.1441
  137SAPE  H17X14950   3.088   6.985   8.484  1.6573  0.5101  0.8914
  137SAPE  H17Y14951   3.196   7.103   8.411  0.3712 -1.5613  0.4101
  137SAPE  C31814952   3.000   7.101   8.320 -0.1353 -0.5893 -0.0844
  137SAPE  H18X14953   3.005   7.007   8.261  0.1313  0.6610 -2.1780
  137SAPE  H18Y14954   3.047   7.183   8.260 -1.2281  0.0322 -0.1093
  137SAPE  H18Z14955   2.900   7.132   8.357  0.9025  1.2662  1.3737
  138SAPE     N14956   0.819   0.579  10.963 -0.4140 -0.0261  0.1306
  138SAPE   HN114957   0.817   0.493  10.905  1.4416 -1.0818  1.5039
  138SAPE   HN214958   0.885   0.557  11.040 -0.1921 -0.6846 -0.2368
  138SAPE   HN314959   0.725   0.596  11.004 -1.4994 -2.1366 -1.2917
  138SAPE   C1214960   0.874   0.696  10.877 -0.1275 -0.1193 -0.4270
  138SAPE  H12A14961   0.835   0.786  10.929 -2.4090 -1.7964  0.9718
  138SAPE  H12B14962   0.821   0.683  10.781 -0.3548 -0.9564 -0.1973
  138SAPE   C1114963   1.021   0.675  10.845  0.3530 -0.5559 -0.0044
  138SAPE  H11A14964   1.058   0.770  10.801 -0.0137 -0.1907  0.4700
  138SAPE  H11B14965   1.029   0.597  10.766  1.4676  0.8052 -1.2975
  138SAPE     P14966   1.254   0.603  10.951  0.4289 -0.1434 -0.2900
  138SAPE   O1314967   1.321   0.652  11.076  0.4465 -0.3192 -0.1663
  138SAPE   O1414968   1.266   0.457  10.922  0.4778 -0.3990  0.7169
  138SAPE   O1214969   1.107   0.644  10.959 -0.2553 -0.2906 -0.0445
  138SAPE   O1114970   1.306   0.691  10.830 -0.4412 -0.1189 -0.3641
  138SAPE    C114971   1.438   0.744  10.830 -0.3085  0.0655 -0.1990
  138SAPE    HA14972   1.450   0.819  10.912 -0.0500 -1.3618  1.1180
  138SAPE    HB14973   1.518   0.669  10.851  0.3823  0.9480  0.4283
  138SAPE    C214974   1.471   0.798  10.685 -0.7873  0.2110  0.3672
  138SAPE    HS14975   1.431   0.902  10.678 -1.3047 -0.0768 -1.3456
  138SAPE   O2114976   1.415   0.705  10.589 -0.0287 -1.2210  0.1764
  138SAPE   C2114977   1.291   0.729  10.546  0.1605  0.5586  0.2754
  138SAPE   O2214978   1.238   0.838  10.555 -1.1579  0.7953 -0.5377
  138SAPE   C2214979   1.227   0.608  10.477 -0.1836 -0.5438 -0.4048
  138SAPE   H2R14980   1.307   0.555  10.422  0.3517  1.0155 -1.1780
  138SAPE   H2S14981   1.190   0.541  10.558  1.8552 -0.7918  0.3736
  138SAPE    C314982   1.621   0.799  10.659  0.1890 -1.2665 -0.0257
  138SAPE    HX14983   1.660   0.696  10.676  1.4819 -1.0526 -1.5238
  138SAPE    HY14984   1.669   0.865  10.733  1.3483 -3.0515  0.8904
  138SAPE   O3114985   1.652   0.844  10.528 -0.5848  0.0354  0.2413
  138SAPE   C3114986   1.783   0.850  10.492  0.2023  0.1645 -0.3733
  138SAPE   O3214987   1.874   0.818  10.561  0.2218 -0.3540  0.0553
  138SAPE   C3214988   1.803   0.899  10.349  0.3302  0.1987 -0.2009
  138SAPE   H2X14989   1.755   0.999  10.348  0.0559  0.0837  0.5194
  138SAPE   H2Y14990   1.757   0.837  10.270  0.1522 -2.5079  1.8847
  138SAPE   C2314991   1.117   0.647  10.375 -0.4863  0.0505  0.0626
  138SAPE   H3R14992   1.148   0.690  10.278 -1.3553 -0.4152 -0.4299
  138SAPE   H3S14993   1.037   0.713  10.417 -1.3146  1.2734 -3.1850
  138SAPE   C2414994   1.036   0.523  10.329  0.5117 -0.0612 -0.5344
  138SAPE   H4R14995   1.106   0.440  10.309  0.7981 -0.4377  1.7233
  138SAPE   H4S14996   0.978   0.558  10.241 -2.5016  0.5613  1.5320
  138SAPE   C2514997   0.937   0.483  10.438 -0.4892  0.1580 -0.2802
  138SAPE   H5R14998   0.981   0.446  10.532 -0.7172  0.2753 -0.1263
  138SAPE   C2614999   0.801   0.488  10.426  0.3979  0.4650 -0.1721
  138SAPE   H6R15000   0.742   0.440  10.506  0.8666 -0.9601 -0.6465
  138SAPE   C2715001   0.716   0.516  10.308  0.0569 -0.4583 -0.0897
  138SAPE   H7R15002   0.686   0.417  10.268 -0.3897 -0.2085 -0.3855
  138SAPE   H7S15003   0.780   0.546  10.222 -2.9063 -0.2090 -2.3566
  138SAPE   C2815004   0.592   0.601  10.321  0.0435  0.1048  0.1998
  138SAPE   H8R15005   0.569   0.646  10.418 -1.6855 -1.2021  0.4319
  138SAPE   C2915006   0.505   0.616  10.215 -0.1339 -0.2339 -0.5446
  138SAPE   H9R15007   0.412   0.674  10.227 -0.8683 -1.6221  0.7236
  138SAPE  C21015008   0.539   0.549  10.078  0.0950 -0.3609 -0.0479
  138SAPE  H10R15009   0.454   0.477  10.066 -0.4713  0.3810 -0.5436
  138SAPE  H10S15010   0.634   0.493  10.066  1.6125  2.1408 -0.2941
  138SAPE  C21115011   0.535   0.658   9.975  0.4512 -0.3233 -0.0270
  138SAPE  H11R15012   0.517   0.758  10.017  1.9570  0.9298 -2.1539
  138SAPE  C21215013   0.552   0.647   9.841 -0.7581  0.0555  0.2312
  138SAPE  H12R15014   0.553   0.739   9.781  0.8016 -0.7131 -1.0013
  138SAPE  C21315015   0.582   0.517   9.773  0.3104  0.7079  0.1589
  138SAPE  H13R15016   0.574   0.521   9.662  1.5465  2.1261  0.0972
  138SAPE  H13S15017   0.505   0.446   9.810 -0.1550 -0.5452 -2.8827
  138SAPE  C21415018   0.715   0.471   9.806 -0.1895 -0.3347 -0.3122
  138SAPE  H14R15019   0.761   0.512   9.897  0.2009 -1.2748 -0.0759
  138SAPE  C21515020   0.778   0.362   9.753  0.4244 -0.7067 -0.1594
  138SAPE  H15R15021   0.878   0.332   9.788  1.2155  1.2140 -0.6376
  138SAPE  C21615022   0.712   0.279   9.646 -0.7421 -0.1940 -0.2576
  138SAPE  H16R15023   0.602   0.299   9.646 -0.7574 -0.1895 -1.7939
  138SAPE  H16S15024   0.730   0.173   9.672  1.1656 -0.0191 -0.7340
  138SAPE  C21715025   0.767   0.313   9.501 -0.4633  0.1358 -0.6614
  138SAPE  H17R15026   0.769   0.422   9.480  1.0143  0.0656 -0.9903
  138SAPE  H17S15027   0.694   0.266   9.432 -0.6627 -0.5813  0.0189
  138SAPE  C21815028   0.897   0.245   9.460 -0.8609  0.5037 -0.0632
  138SAPE  H18R15029   0.896   0.134   9.458  1.3287  0.4460 -1.2406
  138SAPE  H18S15030   0.966   0.285   9.537 -0.6613  0.0487 -0.0072
  138SAPE  C21915031   0.936   0.285   9.317 -0.4776  0.2492 -0.5206
  138SAPE  H19R15032   0.965   0.392   9.328  0.3092  0.1036 -1.0130
  138SAPE  H19S15033   0.845   0.268   9.256 -0.8638  0.7676 -0.0877
  138SAPE  C22015034   1.049   0.203   9.262 -0.1663  0.2046 -0.3155
  138SAPE  H20R15035   1.017   0.097   9.259 -1.6320  0.6311 -0.6595
  138SAPE  H20S15036   1.142   0.217   9.321 -0.8070  2.1223  0.3116
  138SAPE  H20T15037   1.055   0.233   9.155 -0.4085 -1.2996 -0.7696
  138SAPE   C3315038   1.948   0.937  10.314  0.2838  0.1232 -0.0554
  138SAPE   H3X15039   2.012   0.847  10.305  0.8250  0.4743  0.2650
  138SAPE   H3Y15040   1.997   0.995  10.395  0.7078 -0.3669  0.0432
  138SAPE   C3415041   1.966   1.022  10.189 -0.9152  0.7405  0.1991
  138SAPE   H4X15042   2.075   1.043  10.188 -1.1685  2.1390 -0.4601
  138SAPE   H4Y15043   1.911   1.118  10.199  0.3896  1.5914 -0.5467
  138SAPE   C3515044   1.930   0.950  10.060  0.1755 -0.4354 -0.0832
  138SAPE   H5X15045   1.821   0.930  10.057  0.1248 -0.4420  1.1526
  138SAPE   H5Y15046   1.977   0.849  10.057 -1.2823 -1.1389  0.1058
  138SAPE   C3615047   1.957   1.030   9.938 -0.5112 -0.1736  0.0389
  138SAPE   H6X15048   2.062   1.001   9.920 -1.0253 -2.2937  0.1966
  138SAPE   H6Y15049   1.941   1.137   9.964  4.2741  0.5201  0.9933
  138SAPE   C3715050   1.874   0.991   9.820 -0.3082  0.7377 -0.2022
  138SAPE   H7X15051   1.768   0.978   9.851 -0.1215 -0.3686  0.0073
  138SAPE   H7Y15052   1.915   0.888   9.806  0.6903  1.0131  0.5886
  138SAPE   C3815053   1.896   1.088   9.701  0.0884 -0.5946  0.5048
  138SAPE   H8X15054   2.007   1.087   9.696  0.0753  0.1449  0.0739
  138SAPE   H8Y15055   1.846   1.184   9.725 -1.3624 -1.0280 -0.6358
  138SAPE   C3915056   1.843   1.036   9.565 -0.4722 -0.2230  0.5251
  138SAPE   H9X15057   1.736   1.060   9.547  0.4881  3.4740 -1.2395
  138SAPE   H9Y15058   1.851   0.926   9.556  0.9583 -0.0219 -1.2936
  138SAPE  C31015059   1.927   1.087   9.443  0.1117 -0.3081 -0.5264
  138SAPE  H10X15060   2.033   1.068   9.470  0.5873 -0.3508 -2.2975
  138SAPE  H10Y15061   1.893   1.192   9.430  0.3412  0.0429  1.3815
  138SAPE  C31115062   1.908   1.001   9.325 -0.1032  0.2514  0.2989
  138SAPE  H11X15063   1.802   0.997   9.292  0.3795 -1.4154 -1.2230
  138SAPE  H11Y15064   1.932   0.896   9.354  1.5845  0.6052  0.2799
  138SAPE  C31215065   1.986   1.063   9.204 -0.3394  0.0747  0.8356
  138SAPE  H12X15066   2.093   1.036   9.218 -0.5326 -1.4504 -0.3275
  138SAPE  H12Y15067   1.986   1.174   9.207 -2.1799  0.2776 -2.0784
  138SAPE  C31315068   1.949   1.026   9.061  0.1149  0.6486  0.2953
  138SAPE  H13X15069   1.998   1.103   8.998 -0.5707  0.4270 -0.5415
  138SAPE  H13Y15070   1.840   1.031   9.041  0.1288 -0.7255 -0.2760
  138SAPE  C31415071   1.998   0.887   9.019  0.0145  0.0751 -0.6359
  138SAPE  H14X15072   1.966   0.815   9.098  0.4228 -0.2883 -0.7998
  138SAPE  H14Y15073   2.108   0.903   9.018 -0.3225  3.1545  0.3084
  138SAPE  C31515074   1.946   0.858   8.876  0.0797 -0.7832  0.1636
  138SAPE  H15X15075   1.984   0.940   8.812  1.3522 -1.3908  0.1020
  138SAPE  H15Y15076   1.836   0.867   8.890  0.3939  2.5812  1.3845
  138SAPE  C31615077   1.978   0.716   8.813 -0.1121 -0.3468 -0.1668
  138SAPE  H16X15078   1.968   0.640   8.893  2.0875  0.2527  0.7714
  138SAPE  H16Y15079   2.084   0.707   8.780  0.1423 -1.1496  0.8385
  138SAPE  C31715080   1.886   0.687   8.695  0.2429  0.4078  0.1151
  138SAPE  H17X15081   1.922   0.753   8.614  1.2838  0.7962  0.8668
  138SAPE  H17Y15082   1.780   0.712   8.716  0.0793 -0.4141  0.2947
  138SAPE  C31815083   1.893   0.541   8.654 -0.6353  0.0868 -0.4777
  138SAPE  H18X15084   1.836   0.477   8.724 -0.7934  0.8002  0.0548
  138SAPE  H18Y15085   1.995   0.496   8.649 -1.1555 -1.6513  2.2799
  138SAPE  H18Z15086   1.847   0.533   8.553 -1.8098  1.0604 -0.0249
  139SAPE     N15087   6.343   1.521  11.373 -0.7378  0.4388  0.0311
  139SAPE   HN115088   6.262   1.469  11.334  1.8850 -1.3322 -3.6543
  139SAPE   HN215089   6.352   1.523  11.476  1.3440  3.8775 -0.0394
  139SAPE   HN315090   6.326   1.620  11.345 -2.0137 -0.0210 -0.9239
  139SAPE   C1215091   6.464   1.460  11.309  0.3874 -0.7512 -0.0028
  139SAPE  H12A15092   6.473   1.358  11.351 -0.7943 -1.3808 -1.1731
  139SAPE  H12B15093   6.550   1.527  11.329 -0.4648  1.1875 -2.1831
  139SAPE   C1115094   6.448   1.446  11.159  0.1670  0.7073 -0.3653
  139SAPE  H11A15095   6.541   1.398  11.123  1.0624  2.6623 -0.7622
  139SAPE  H11B15096   6.448   1.541  11.102  0.0352  0.8106 -0.1945
  139SAPE     P15097   6.341   1.244  11.033 -0.3562  0.0695  0.5398
  139SAPE   O1315098   6.404   1.126  11.101  0.5250  0.3072  0.1498
  139SAPE   O1415099   6.203   1.228  10.993  0.1778 -0.3111 -0.6331
  139SAPE   O1215100   6.331   1.370  11.136  0.3240 -0.5299 -0.1502
  139SAPE   O1115101   6.426   1.287  10.910  0.9193 -0.4245 -0.0077
  139SAPE    C115102   6.362   1.360  10.805  0.2780  0.1401 -0.1894
  139SAPE    HA15103   6.271   1.412  10.840 -0.1939 -0.4487 -0.5068
  139SAPE    HB15104   6.427   1.440  10.764  0.7733 -0.3778 -0.4329
  139SAPE    C215105   6.310   1.271  10.688  0.6526  0.1607  0.0113
  139SAPE    HS15106   6.241   1.191  10.722  0.7131 -0.3424 -1.0022
  139SAPE   O2115107   6.419   1.209  10.620 -0.0409  0.4122 -0.0213
  139SAPE   C2115108   6.463   1.103  10.676 -0.0670  0.2399  0.5831
  139SAPE   O2215109   6.423   1.045  10.778  0.3892 -0.2261 -0.0553
  139SAPE   C2215110   6.586   1.048  10.593  0.2056 -0.1640  0.1630
  139SAPE   H2R15111   6.669   1.116  10.622  0.3744 -0.5623  0.6352
  139SAPE   H2S15112   6.593   0.946  10.636 -0.2575  0.0046  0.6537
  139SAPE    C315113   6.219   1.352  10.590  0.5199 -0.6635  1.0566
  139SAPE    HX15114   6.278   1.440  10.559  0.6416 -0.5444  1.6219
  139SAPE    HY15115   6.125   1.400  10.627  0.3510  0.7832 -1.0521
  139SAPE   O3115116   6.182   1.274  10.473 -0.7500 -0.1373  0.2452
  139SAPE   C3115117   6.080   1.192  10.492  0.1750 -0.4852  0.0574
  139SAPE   O3215118   6.020   1.183  10.599  0.3821  0.1289  0.0670
  139SAPE   C3215119   6.076   1.097  10.370  0.3039  0.0249  0.1672
  139SAPE   H2X15120   6.179   1.057  10.357  0.2311  0.3257 -1.7431
  139SAPE   H2Y15121   6.058   1.157  10.278  1.1609 -0.1181 -0.1003
  139SAPE   C2315122   6.566   1.055  10.435 -0.2487  0.1606 -0.3765
  139SAPE   H3R15123   6.666   1.091  10.401  0.2015  0.5812  1.2909
  139SAPE   H3S15124   6.487   1.129  10.412 -0.3190  0.2104  0.0247
  139SAPE   C2415125   6.528   0.918  10.378  0.0086  0.3955  0.3079
  139SAPE   H4R15126   6.417   0.921  10.376  0.0357  1.3934 -1.5410
  139SAPE   H4S15127   6.554   0.837  10.450 -0.9561 -0.9206 -0.7552
  139SAPE   C2515128   6.597   0.906  10.249  0.3739 -0.7196 -0.1342
  139SAPE   H5R15129   6.707   0.911  10.258  0.4588 -3.2774  0.9297
  139SAPE   C2615130   6.552   0.872  10.126 -0.8883 -0.1384 -0.2565
  139SAPE   H6R15131   6.627   0.873  10.045 -0.2182 -3.2872  0.1960
  139SAPE   C2715132   6.415   0.853  10.074  0.3704 -0.0948  0.4636
  139SAPE   H7R15133   6.343   0.793  10.134 -0.5396  0.0689 -0.4327
  139SAPE   H7S15134   6.414   0.789   9.983 -2.9218 -0.2447  0.4754
  139SAPE   C2815135   6.368   0.993  10.046 -0.1575  0.1705 -0.0419
  139SAPE   H8R15136   6.354   1.057  10.134  0.2429 -2.2519  1.8948
  139SAPE   C2915137   6.355   1.052   9.921 -1.3336 -0.5285 -0.8939
  139SAPE   H9R15138   6.341   1.160   9.906  4.4162  0.4605 -1.0994
  139SAPE  C21015139   6.388   0.973   9.793 -0.2577 -0.5316 -0.3854
  139SAPE  H10R15140   6.344   0.872   9.802 -0.8896 -0.0945  2.3883
  139SAPE  H10S15141   6.497   0.952   9.789  0.2348  1.8618 -1.9945
  139SAPE  C21115142   6.356   1.028   9.658 -1.4665 -0.3285 -0.4596
  139SAPE  H11R15143   6.283   1.109   9.668 -1.5674 -0.4616 -0.0754
  139SAPE  C21215144   6.404   0.993   9.537  0.2184 -1.1079  0.3046
  139SAPE  H12R15145   6.369   1.040   9.444  1.1991 -1.1237 -0.0802
  139SAPE  C21315146   6.507   0.884   9.519  0.2978 -0.6518  0.5997
  139SAPE  H13R15147   6.484   0.799   9.587  1.4497 -1.5646 -0.1099
  139SAPE  H13S15148   6.606   0.925   9.550 -0.3813  1.4474  0.1279
  139SAPE  C21415149   6.505   0.822   9.379 -0.6649  0.4461  0.9634
  139SAPE  H14R15150   6.476   0.716   9.372  2.3908 -0.5390  1.5448
  139SAPE  C21515151   6.574   0.865   9.271 -0.3685  0.2781  0.3433
  139SAPE  H15R15152   6.571   0.798   9.183  0.5494 -0.0417  0.5435
  139SAPE  C21615153   6.644   0.994   9.250  0.5755 -0.8642  0.1252
  139SAPE  H16R15154   6.672   1.034   9.350  2.5131 -5.3766  1.7030
  139SAPE  H16S15155   6.582   1.068   9.197  1.5438  1.0057  1.4996
  139SAPE  C21715156   6.769   0.968   9.167  0.3331  0.4836  0.3880
  139SAPE  H17R15157   6.744   0.941   9.062 -1.2994  0.6164  0.7042
  139SAPE  H17S15158   6.821   0.878   9.206 -0.8784 -0.3077  0.2342
  139SAPE  C21815159   6.868   1.087   9.190 -0.6075  0.0936  0.1627
  139SAPE  H18R15160   6.916   1.070   9.288  0.6050 -1.3036 -0.6322
  139SAPE  H18S15161   6.814   1.184   9.196 -2.7412 -0.9026 -1.2638
  139SAPE  C21915162   6.972   1.106   9.080 -0.2439 -0.2722 -0.2872
  139SAPE  H19R15163   7.028   1.011   9.070  2.1261  1.0189 -0.0456
  139SAPE  H19S15164   7.044   1.180   9.121  0.2014 -1.2338  0.7371
  139SAPE  C22015165   6.927   1.151   8.935 -0.4960 -0.2051  0.1026
  139SAPE  H20R15166   6.833   1.210   8.931 -0.4124 -0.0947 -0.3371
  139SAPE  H20S15167   6.914   1.058   8.875  0.0869  1.0289 -2.0188
  139SAPE  H20T15168   7.009   1.204   8.883  0.5198 -1.5956  0.2145
  139SAPE   C3315169   5.965   0.986  10.384  0.5168  0.0516 -0.3935
  139SAPE   H3X15170   5.865   1.033  10.370 -1.5138 -2.9715  2.3619
  139SAPE   H3Y15171   5.972   0.927  10.478 -0.3140  0.6240  0.0438
  139SAPE   C3415172   5.995   0.882  10.273  0.6986 -0.3266  0.0394
  139SAPE   H4X15173   5.946   0.788  10.306  0.1796 -0.1117 -0.1129
  139SAPE   H4Y15174   6.105   0.868  10.276  0.5450 -2.3672 -1.9169
  139SAPE   C3515175   5.980   0.926  10.121 -0.3553 -0.0273  0.0574
  139SAPE   H5X15176   6.043   1.018  10.109  0.7866 -0.7514  0.3408
  139SAPE   H5Y15177   5.872   0.948  10.110 -0.0623  0.8585 -1.2891
  139SAPE   C3615178   6.007   0.813  10.032  0.3932 -0.0116  0.1442
  139SAPE   H6X15179   5.959   0.718  10.066 -1.0028  0.4447 -0.4908
  139SAPE   H6Y15180   6.115   0.807  10.008  0.4288 -1.4859  0.5481
  139SAPE   C3715181   5.934   0.829   9.900 -0.6004 -0.0661 -1.1859
  139SAPE   H7X15182   5.828   0.858   9.914 -0.4926  0.1525 -0.8026
  139SAPE   H7Y15183   5.928   0.725   9.860 -0.5351 -0.1389 -1.0101
  139SAPE   C3815184   6.010   0.920   9.803  0.3816 -0.3847 -0.4611
  139SAPE   H8X15185   6.117   0.897   9.784  0.5638 -0.3534  0.4786
  139SAPE   H8Y15186   6.014   1.024   9.843 -0.6023 -1.1482  1.7868
  139SAPE   C3915187   5.945   0.905   9.665  0.1295  0.2300 -0.2559
  139SAPE   H9X15188   5.839   0.941   9.660  0.0353 -0.1055 -0.7366
  139SAPE   H9Y15189   5.948   0.795   9.650  3.2696  0.4171 -1.5906
  139SAPE  C31015190   6.024   0.954   9.546 -0.9693 -0.0377 -0.3927
  139SAPE  H10X15191   6.127   0.920   9.524 -0.4919  0.6492  0.7298
  139SAPE  H10Y15192   6.022   1.064   9.555  0.3770 -0.1056  1.0259
  139SAPE  C31115193   5.972   0.928   9.403  0.2147 -0.5564  0.2083
  139SAPE  H11X15194   5.867   0.964   9.407  0.2876 -0.4525  1.3314
  139SAPE  H11Y15195   5.964   0.818   9.391  0.2828 -0.8498  2.4739
  139SAPE  C31215196   6.045   1.013   9.293  0.0780 -0.0486 -0.0324
  139SAPE  H12X15197   6.152   0.993   9.312 -0.3590 -0.6387  1.9993
  139SAPE  H12Y15198   6.016   1.119   9.309 -0.4133 -0.5364  2.8122
  139SAPE  C31315199   6.000   0.981   9.149  0.6385  0.6249 -0.4224
  139SAPE  H13X15200   5.898   1.025   9.137  0.1066 -0.0336  1.4387
  139SAPE  H13Y15201   5.993   0.871   9.138 -0.1088  0.6364 -0.0749
  139SAPE  C31415202   6.098   1.035   9.042 -1.0184 -0.2058  0.3424
  139SAPE  H14X15203   6.129   1.135   9.080  0.2291 -0.1473 -0.7287
  139SAPE  H14Y15204   6.051   1.063   8.945 -0.1556 -1.5152 -0.4755
  139SAPE  C31515205   6.220   0.945   9.021 -0.4882 -0.1397  0.4909
  139SAPE  H15X15206   6.208   0.849   8.967 -2.1534  1.5013 -2.2322
  139SAPE  H15Y15207   6.263   0.924   9.122  0.4124  0.3026  0.2129
  139SAPE  C31615208   6.337   1.023   8.951  0.2071 -0.0347 -0.5461
  139SAPE  H16X15209   6.295   1.054   8.853  4.1398 -0.8901 -2.7060
  139SAPE  H16Y15210   6.367   1.116   9.004  0.3016 -1.0820  1.3091
  139SAPE  C31715211   6.462   0.938   8.917 -0.7462 -0.8146 -0.0298
  139SAPE  H17X15212   6.411   0.856   8.861  1.6794 -1.4546 -1.4230
  139SAPE  H17Y15213   6.521   0.904   9.005  0.2930  4.6298  1.7312
  139SAPE  C31815214   6.560   1.018   8.821 -0.8753 -0.5494  0.1312
  139SAPE  H18X15215   6.624   0.940   8.773  1.2503 -0.2031  2.1993
  139SAPE  H18Y15216   6.624   1.086   8.882 -0.9585  1.1006 -1.5336
  139SAPE  H18Z15217   6.521   1.082   8.739  0.6492 -1.3676 -1.2942
  140SAPE     N15218   4.977   2.826  11.128 -0.0311 -1.0941 -0.1246
  140SAPE   HN115219   5.001   2.928  11.121 -0.9614 -0.8730 -0.1902
  140SAPE   HN215220   5.015   2.796  11.220  0.3835 -0.0795  0.0609
  140SAPE   HN315221   5.022   2.782  11.045 -2.5440 -0.9083 -1.6861
  140SAPE   C1215222   4.830   2.805  11.106 -0.6584  0.4156  0.0792
  140SAPE  H12A15223   4.779   2.822  11.203 -1.5421  0.1957 -0.3310
  140SAPE  H12B15224   4.820   2.697  11.081  1.4830  0.3266 -0.5994
  140SAPE   C1115225   4.771   2.903  11.005  0.1536 -0.2508  0.1713
  140SAPE  H11A15226   4.776   3.006  11.046  0.3963 -0.0030 -0.4542
  140SAPE  H11B15227   4.662   2.881  11.001 -0.5385  1.8168  3.8321
  140SAPE     P15228   4.850   3.015  10.782  0.4303  0.2109  0.6208
  140SAPE   O1315229   4.772   3.133  10.830  0.6129 -0.5468  0.2505
  140SAPE   O1415230   4.990   3.037  10.738 -0.8543  0.4400 -0.4309
  140SAPE   O1215231   4.840   2.890  10.883 -0.3937 -0.2508  0.8623
  140SAPE   O1115232   4.769   2.966  10.658 -0.5477  0.9416 -0.0592
  140SAPE    C115233   4.824   2.880  10.557  0.1375  0.1092  0.0739
  140SAPE    HA15234   4.926   2.849  10.589  1.6411  3.2988 -1.1632
  140SAPE    HB15235   4.769   2.784  10.555  0.4173 -0.0758  0.8062
  140SAPE    C215236   4.823   2.936  10.407 -0.0452  0.2117 -0.3471
  140SAPE    HS15237   4.895   3.020  10.409 -1.8752  1.8511  2.4168
  140SAPE   O2115238   4.691   2.983  10.373  0.3169  0.4509 -0.4154
  140SAPE   C2115239   4.689   3.090  10.303 -0.1519  0.0802 -0.0346
  140SAPE   O2215240   4.789   3.159  10.277  0.7559  0.3549 -0.2348
  140SAPE   C2215241   4.549   3.125  10.250  0.2273  0.6741 -0.3624
  140SAPE   H2R15242   4.534   3.078  10.150  0.2820 -0.5789  0.1894
  140SAPE   H2S15243   4.483   3.078  10.326  2.4864 -2.3031 -0.0316
  140SAPE    C315244   4.878   2.825  10.301 -0.2090  0.4397 -0.3440
  140SAPE    HX15245   4.807   2.739  10.302 -1.2954  1.3104  1.1651
  140SAPE    HY15246   4.970   2.773  10.334 -0.3178 -2.1453 -3.6228
  140SAPE   O3115247   4.892   2.876  10.169 -0.5782 -0.0691  0.3658
  140SAPE   C3115248   4.983   2.966  10.160  0.4609  0.1667  0.1466
  140SAPE   O3215249   5.072   2.995  10.241  0.0179 -0.0972  0.4414
  140SAPE   C3215250   4.977   3.028  10.016  0.3350  0.5145 -0.1600
  140SAPE   H2X15251   5.057   3.104  10.009 -1.8230  2.8848 -0.7831
  140SAPE   H2Y15252   4.888   3.090   9.992 -0.5821 -0.6317  0.1587
  140SAPE   C2315253   4.542   3.281  10.250  0.2488  0.1014 -0.4037
  140SAPE   H3R15254   4.598   3.306  10.158  0.9145 -1.3396 -0.4156
  140SAPE   H3S15255   4.593   3.332  10.335  0.4795 -1.9434  0.7647
  140SAPE   C2415256   4.402   3.343  10.246  0.1032 -0.2256 -0.1099
  140SAPE   H4R15257   4.409   3.452  10.223  1.9853 -0.5631 -1.3309
  140SAPE   H4S15258   4.357   3.340  10.348 -0.0732  1.5426 -0.0943
  140SAPE   C2515259   4.313   3.266  10.152  0.8899 -0.7108 -0.8688
  140SAPE   H5R15260   4.279   3.176  10.205  0.5574  1.1214  2.3258
  140SAPE   C2615261   4.293   3.283  10.019  0.0785  0.3329  0.8751
  140SAPE   H6R15262   4.228   3.211   9.966  0.7046  1.2982 -1.3420
  140SAPE   C2715263   4.354   3.401   9.948 -0.1875  0.0527  0.4673
  140SAPE   H7R15264   4.464   3.389   9.954 -0.1210  1.1220  2.1442
  140SAPE   H7S15265   4.336   3.498  10.001  1.2068  1.4030 -1.3877
  140SAPE   C2815266   4.316   3.407   9.808 -0.4802 -0.2566  0.0711
  140SAPE   H8R15267   4.215   3.374   9.780 -0.1181 -1.9696  0.6170
  140SAPE   C2915268   4.390   3.450   9.704 -0.4490 -0.0490 -0.8541
  140SAPE   H9R15269   4.335   3.451   9.608  0.1909 -0.9225 -1.2365
  140SAPE  C21015270   4.534   3.496   9.707 -0.1854  0.5993  0.3531
  140SAPE  H10R15271   4.589   3.472   9.613  1.5165  1.2264  1.1476
  140SAPE  H10S15272   4.594   3.443   9.784  0.2964  0.4401 -0.1231
  140SAPE  C21115273   4.550   3.644   9.733  0.2927 -0.0212 -1.0331
  140SAPE  H11R15274   4.510   3.690   9.825  2.8538  1.2269 -0.4290
  140SAPE  C21215275   4.610   3.732   9.645  1.0646 -0.0817 -0.8705
  140SAPE  H12R15276   4.609   3.837   9.676  1.2595 -0.7142  1.4295
  140SAPE  C21315277   4.667   3.722   9.507  0.1644  0.0079  0.0511
  140SAPE  H13R15278   4.699   3.621   9.474  1.0819  0.4973 -0.6070
  140SAPE  H13S15279   4.751   3.793   9.490  0.1848 -0.1777 -0.6360
  140SAPE  C21415280   4.557   3.769   9.414 -1.0718 -0.3322 -0.7503
  140SAPE  H14R15281   4.493   3.849   9.454 -0.6087 -0.2103 -0.2521
  140SAPE  C21515282   4.562   3.737   9.281  0.2770 -0.6327  0.2078
  140SAPE  H15R15283   4.488   3.782   9.213 -1.9024 -0.7123  2.3963
  140SAPE  C21615284   4.651   3.637   9.228  0.4092  0.0776  0.6260
  140SAPE  H16R15285   4.645   3.537   9.276  2.8109 -0.4152  0.0588
  140SAPE  H16S15286   4.757   3.668   9.239  1.7943 -4.3676  1.8975
  140SAPE  C21715287   4.623   3.608   9.080 -0.3547  0.6055 -0.1520
  140SAPE  H17R15288   4.530   3.553   9.056  0.1841 -0.1622 -0.5096
  140SAPE  H17S15289   4.704   3.546   9.037 -0.2970  0.4788  0.1364
  140SAPE  C21815290   4.610   3.737   8.991 -0.4261  0.0847  0.2564
  140SAPE  H18R15291   4.706   3.792   8.997  0.7815 -1.5221 -2.4903
  140SAPE  H18S15292   4.524   3.802   9.019  0.7972  2.4314 -1.1200
  140SAPE  C21915293   4.593   3.699   8.844  0.0724 -0.4983  0.0841
  140SAPE  H19R15294   4.511   3.624   8.839  1.1744 -1.7369  0.1600
  140SAPE  H19S15295   4.679   3.637   8.813 -0.0905 -0.4324 -0.5133
  140SAPE  C22015296   4.577   3.813   8.749  0.6207 -0.2553 -0.3283
  140SAPE  H20R15297   4.677   3.857   8.725  1.3131 -1.1533  0.8390
  140SAPE  H20S15298   4.509   3.886   8.798  1.6186  1.4927 -1.4049
  140SAPE  H20T15299   4.519   3.776   8.661  0.4432  1.8259 -1.1552
  140SAPE   C3315300   4.988   2.917   9.901 -0.7402 -0.2382 -0.0027
  140SAPE   H3X15301   4.881   2.890   9.884 -0.3719 -1.2233 -0.8743
  140SAPE   H3Y15302   5.045   2.830   9.939  3.7540  1.7970 -1.4246
  140SAPE   C3415303   5.060   2.979   9.773  0.5013 -0.0270  0.7784
  140SAPE   H4X15304   5.158   3.019   9.805 -0.3016  0.6582  2.5103
  140SAPE   H4Y15305   4.985   3.051   9.735  0.7279  0.6198  1.5501
  140SAPE   C3515306   5.083   2.874   9.660  0.4551 -0.2866  0.0978
  140SAPE   H5X15307   5.013   2.795   9.692  1.0939 -0.9880 -0.2069
  140SAPE   H5Y15308   5.188   2.838   9.661  1.3069  2.0009  1.7763
  140SAPE   C3615309   5.059   2.937   9.523 -0.2901 -0.5446  0.5477
  140SAPE   H6X15310   5.133   3.018   9.505 -0.3816 -0.5515  0.1223
  140SAPE   H6Y15311   4.965   2.991   9.543 -0.6476 -0.9587  0.0249
  140SAPE   C3715312   5.043   2.836   9.406 -0.2953  0.1442 -0.0643
  140SAPE   H7X15313   4.966   2.769   9.450  1.6047 -1.1755  1.4227
  140SAPE   H7Y15314   5.138   2.787   9.375  0.0100 -0.1982  1.3248
  140SAPE   C3815315   4.992   2.902   9.283  0.3675  0.3887  0.9216
  140SAPE   H8X15316   4.906   2.967   9.309  0.3422  1.0883 -0.8018
  140SAPE   H8Y15317   4.956   2.823   9.213  0.4634  0.8079  0.3981
  140SAPE   C3915318   5.105   2.988   9.221  0.1110 -0.3120 -0.5921
  140SAPE   H9X15319   5.156   2.920   9.149  1.9873 -1.4550  1.6596
  140SAPE   H9Y15320   5.176   3.021   9.300 -0.6011  1.2044 -0.5440
  140SAPE  C31015321   5.065   3.115   9.148 -0.8400  0.9567  0.1959
  140SAPE  H10X15322   5.145   3.181   9.108 -1.2622  2.1438  1.2336
  140SAPE  H10Y15323   5.016   3.178   9.227  1.5988  1.4325  1.4095
  140SAPE  C31115324   4.956   3.085   9.038 -0.6775  0.5095  0.1005
  140SAPE  H11X15325   4.883   3.005   9.064 -1.0037  1.2073  1.4505
  140SAPE  H11Y15326   5.021   3.052   8.955  0.9131  2.8654  0.3173
  140SAPE  C31215327   4.893   3.218   8.990 -0.0916 -0.2743  0.3384
  140SAPE  H12X15328   4.963   3.305   8.995 -0.5225  0.2496 -1.7055
  140SAPE  H12Y15329   4.819   3.253   9.065 -0.3289 -0.1288  0.0395
  140SAPE  C31315330   4.835   3.219   8.845  0.1344 -0.0839  0.0652
  140SAPE  H13X15331   4.775   3.125   8.844 -0.1876  0.1123  0.6782
  140SAPE  H13Y15332   4.925   3.203   8.781  0.1924 -0.7317  0.2992
  140SAPE  C31415333   4.755   3.341   8.812  0.1711 -0.1571 -0.4250
  140SAPE  H14X15334   4.817   3.432   8.825  1.8526 -0.8904 -2.5124
  140SAPE  H14Y15335   4.668   3.342   8.881 -0.7755  0.3527 -1.5977
  140SAPE  C31515336   4.680   3.329   8.679 -0.1950 -0.1683  0.2792
  140SAPE  H15X15337   4.753   3.335   8.595  1.9696  1.4272  2.1585
  140SAPE  H15Y15338   4.627   3.426   8.687  0.6257  0.2543  0.6468
  140SAPE  C31615339   4.576   3.213   8.666  0.3190  0.4438 -0.2553
  140SAPE  H16X15340   4.502   3.228   8.748  1.5423  0.1903  0.9179
  140SAPE  H16Y15341   4.618   3.111   8.677 -0.0296  0.3836  0.5878
  140SAPE  C31715342   4.491   3.224   8.544 -0.0652  0.1894 -0.3062
  140SAPE  H17X15343   4.562   3.218   8.459 -0.8898  0.0271 -0.9998
  140SAPE  H17Y15344   4.447   3.326   8.543 -2.3820 -0.7493  0.0815
  140SAPE  C31815345   4.376   3.121   8.528  0.3051  0.0995 -0.2062
  140SAPE  H18X15346   4.407   3.015   8.509 -0.8542 -0.3058  0.1020
  140SAPE  H18Y15347   4.313   3.153   8.442 -1.3239  0.4672  1.0969
  140SAPE  H18Z15348   4.309   3.125   8.616  0.9678 -0.5657  0.3365
  141SAPE     N15349   5.973   4.654  10.758  0.4766  0.4138 -0.2917
  141SAPE   HN115350   5.915   4.739  10.741  0.9348  1.3250  2.3038
  141SAPE   HN215351   5.986   4.662  10.861 -1.8337  2.5118 -0.0799
  141SAPE   HN315352   6.067   4.659  10.713  1.8752 -1.1372  2.2607
  141SAPE   C1215353   5.896   4.523  10.727 -0.1721 -0.7286 -0.5254
  141SAPE  H12A15354   5.837   4.506  10.820  0.0164 -0.5900 -0.3795
  141SAPE  H12B15355   5.979   4.449  10.715  1.1334  0.5333  0.3924
  141SAPE   C1115356   5.824   4.540  10.588 -0.0667 -0.1017 -0.3438
  141SAPE  H11A15357   5.775   4.444  10.565 -1.5771  1.0900 -2.4770
  141SAPE  H11B15358   5.893   4.552  10.502 -1.6746  1.2654 -1.5208
  141SAPE     P15359   5.744   4.765  10.482  0.1146  0.3708 -0.0276
  141SAPE   O1315360   5.621   4.845  10.471  0.6691 -0.1466 -0.2638
  141SAPE   O1415361   5.871   4.831  10.513 -0.0383  0.2059 -0.2889
  141SAPE   O1215362   5.725   4.650  10.588  0.5234  0.4155 -0.2055
  141SAPE   O1115363   5.762   4.682  10.346  0.8344 -0.0841  0.7363
  141SAPE    C115364   5.646   4.611  10.290  0.5885  0.0497 -0.0867
  141SAPE    HA15365   5.586   4.576  10.377  1.2326  1.7274  1.0844
  141SAPE    HB15366   5.572   4.666  10.228 -3.0294 -3.3174  0.8392
  141SAPE    C215367   5.699   4.488  10.207  0.2731  0.4379 -0.1755
  141SAPE    HS15368   5.784   4.445  10.264  1.0141  0.6212 -1.1158
  141SAPE   O2115369   5.742   4.529  10.080  0.4463  0.2240 -0.3966
  141SAPE   C2115370   5.830   4.460  10.018 -0.5765  0.2351 -0.1569
  141SAPE   O2215371   5.909   4.377  10.065  0.3029  0.0253  0.3639
  141SAPE   C2215372   5.836   4.511   9.875  0.3715 -0.4947  0.1351
  141SAPE   H2R15373   5.744   4.566   9.845  0.4738 -0.0832  0.5742
  141SAPE   H2S15374   5.914   4.590   9.878 -1.0929  1.0217 -0.4575
  141SAPE    C315375   5.589   4.380  10.189 -0.0450 -0.0633  0.0110
  141SAPE    HX15376   5.517   4.432  10.123  2.3089  0.8310 -2.0231
  141SAPE    HY15377   5.531   4.351  10.279 -0.4680 -0.8366 -0.4948
  141SAPE   O3115378   5.638   4.265  10.115 -0.3135  0.4338 -0.3522
  141SAPE   C3115379   5.594   4.147  10.158 -0.6360  0.4134  0.2286
  141SAPE   O3215380   5.519   4.129  10.252  0.5270  0.1887  0.4482
  141SAPE   C3215381   5.646   4.042  10.055 -0.1769  0.0520  0.1220
  141SAPE   H2X15382   5.578   3.957  10.079 -0.5995  0.3031 -0.1744
  141SAPE   H2Y15383   5.748   4.001  10.070 -0.2955  0.3000  1.6750
  141SAPE   C2315384   5.873   4.402   9.776 -0.1642 -0.3217 -0.3296
  141SAPE   H3R15385   5.799   4.320   9.784 -1.1445  0.3430 -2.0473
  141SAPE   H3S15386   5.967   4.354   9.812 -0.9389 -1.3583  0.3522
  141SAPE   C2415387   5.867   4.446   9.633  0.1163 -0.0045  0.7872
  141SAPE   H4R15388   5.941   4.524   9.605 -0.7296  0.0654 -1.4903
  141SAPE   H4S15389   5.766   4.489   9.617 -0.0691 -0.3570  1.0023
  141SAPE   C2515390   5.901   4.330   9.542  0.5251 -0.2959 -0.5450
  141SAPE   H5R15391   5.937   4.244   9.601  0.1262 -0.0818  0.0227
  141SAPE   C2615392   5.900   4.329   9.406 -0.7692 -0.0518 -0.8710
  141SAPE   H6R15393   5.932   4.245   9.343 -0.3913  1.3293 -2.6048
  141SAPE   C2715394   5.852   4.439   9.311 -0.9487 -0.4705 -0.1418
  141SAPE   H7R15395   5.843   4.529   9.375  1.9587  0.9093 -1.4933
  141SAPE   H7S15396   5.745   4.420   9.285 -1.9153  0.6875  2.5893
  141SAPE   C2815397   5.928   4.472   9.183  0.2312 -0.4212  0.2080
  141SAPE   H8R15398   6.029   4.515   9.195 -0.3665  1.2006 -0.3170
  141SAPE   C2915399   5.890   4.469   9.053  0.2281 -0.1484  0.3030
  141SAPE   H9R15400   5.963   4.505   8.979  1.4147  1.2176  2.0521
  141SAPE  C21015401   5.755   4.414   8.997  0.1974 -0.0941  0.1980
  141SAPE  H10R15402   5.719   4.478   8.913 -1.3202 -1.0985  0.0476
  141SAPE  H10S15403   5.671   4.404   9.068 -1.9358  0.1495 -2.1250
  141SAPE  C21115404   5.779   4.283   8.930  0.2597  0.1398 -0.1193
  141SAPE  H11R15405   5.758   4.200   8.999 -1.7780 -0.4514 -1.3435
  141SAPE  C21215406   5.816   4.251   8.802 -0.3619  0.3745  0.4944
  141SAPE  H12R15407   5.837   4.148   8.770  2.7770  1.4834 -1.4689
  141SAPE  C21315408   5.861   4.355   8.693  0.2269  0.6368  0.2589
  141SAPE  H13R15409   5.968   4.377   8.711  0.8665 -1.6985 -0.3386
  141SAPE  H13S15410   5.805   4.450   8.699 -0.0011  0.5926 -0.9645
  141SAPE  C21415411   5.843   4.296   8.557  0.0331  0.9878  0.3785
  141SAPE  H14R15412   5.741   4.317   8.519 -0.3603 -0.5194  0.5271
  141SAPE  C21515413   5.939   4.266   8.465  0.1051  0.6041 -0.2655
  141SAPE  H15R15414   5.909   4.226   8.367  0.2188 -0.6400  0.1976
  141SAPE  C21615415   6.091   4.281   8.483  0.4216 -0.6189 -0.2016
  141SAPE  H16R15416   6.143   4.199   8.429 -0.3811 -0.1174 -1.8164
  141SAPE  H16S15417   6.120   4.266   8.589  0.2029  2.4265  0.3806
  141SAPE  C21715418   6.148   4.418   8.431  0.0862  0.9247  0.8620
  141SAPE  H17R15419   6.100   4.502   8.486  0.0346  2.2513 -1.0989
  141SAPE  H17S15420   6.115   4.430   8.326 -0.3063 -1.9245  0.5927
  141SAPE  C21815421   6.294   4.427   8.443  0.9439  0.3445 -0.2548
  141SAPE  H18R15422   6.341   4.336   8.400 -0.0009 -1.3394  2.0632
  141SAPE  H18S15423   6.330   4.428   8.548  1.4239  1.0555 -0.4163
  141SAPE  C21915424   6.352   4.556   8.385 -0.2091  0.6523  0.4461
  141SAPE  H19R15425   6.339   4.569   8.275  0.2333  1.3576  0.4736
  141SAPE  H19S15426   6.461   4.537   8.393 -0.4562 -0.4130  1.5560
  141SAPE  C22015427   6.324   4.689   8.447  0.1611 -0.2254  0.3787
  141SAPE  H20R15428   6.384   4.755   8.382  1.7601  0.2621  2.2626
  141SAPE  H20S15429   6.350   4.687   8.555 -1.1417 -1.7927  0.7154
  141SAPE  H20T15430   6.221   4.724   8.425 -1.4258 -4.6048 -0.3007
  141SAPE   C3315431   5.620   4.080   9.904 -0.2105  0.4566 -0.9625
  141SAPE   H3X15432   5.715   4.128   9.871 -0.3167  0.1209 -1.7743
  141SAPE   H3Y15433   5.530   4.145   9.894 -2.4823 -2.1431  1.1392
  141SAPE   C3415434   5.601   3.948   9.826  0.2798 -0.0641 -0.6488
  141SAPE   H4X15435   5.508   3.899   9.861  0.7428 -0.7768 -0.3767
  141SAPE   H4Y15436   5.687   3.883   9.853 -0.7316 -1.2876 -0.2990
  141SAPE   C3515437   5.592   3.961   9.670  0.1175 -0.1466  0.3520
  141SAPE   H5X15438   5.671   4.032   9.639 -0.9411  0.3913 -1.2463
  141SAPE   H5Y15439   5.506   4.022   9.635 -0.6139 -1.1961  0.2890
  141SAPE   C3615440   5.600   3.824   9.601 -0.3890 -0.2159  0.5214
  141SAPE   H6X15441   5.535   3.742   9.638  0.8115 -1.7995 -0.7636
  141SAPE   H6Y15442   5.705   3.791   9.615 -0.1330  0.4157  0.1645
  141SAPE   C3715443   5.580   3.826   9.447  0.1153  0.2342  0.9655
  141SAPE   H7X15444   5.642   3.907   9.402 -1.5688  0.5007 -1.0801
  141SAPE   H7Y15445   5.475   3.861   9.432 -0.3802 -0.8713  1.7051
  141SAPE   C3815446   5.613   3.691   9.385  0.3001  0.2473 -0.4318
  141SAPE   H8X15447   5.550   3.608   9.425  0.1875 -0.8585 -2.7585
  141SAPE   H8Y15448   5.721   3.667   9.392 -0.0486 -1.6356 -0.7820
  141SAPE   C3915449   5.592   3.686   9.228 -0.4725  0.1119 -0.1814
  141SAPE   H9X15450   5.667   3.751   9.177 -0.8181 -0.2172 -1.1337
  141SAPE   H9Y15451   5.489   3.724   9.215 -0.1591  2.1729  2.3377
  141SAPE  C31015452   5.606   3.541   9.172 -0.5709 -0.3440  0.0196
  141SAPE  H10X15453   5.547   3.469   9.233 -2.5243  2.9675  2.3764
  141SAPE  H10Y15454   5.714   3.516   9.161 -0.9240 -2.3045  0.6486
  141SAPE  C31115455   5.560   3.533   9.033  0.8534  0.1164  0.7964
  141SAPE  H11X15456   5.622   3.608   8.979  2.0283 -0.9173  0.6554
  141SAPE  H11Y15457   5.456   3.571   9.036  1.9920  3.8232 -0.7577
  141SAPE  C31215458   5.587   3.395   8.968 -0.1547  0.4151  0.5545
  141SAPE  H12X15459   5.500   3.326   8.978 -1.3767  1.2273 -2.9710
  141SAPE  H12Y15460   5.682   3.349   9.001  0.2086 -1.9137 -3.1452
  141SAPE  C31315461   5.604   3.399   8.816  0.3652  0.2497 -0.0989
  141SAPE  H13X15462   5.530   3.460   8.759  0.3889 -0.5057 -0.9719
  141SAPE  H13Y15463   5.576   3.299   8.775 -2.8458  0.8286  0.4053
  141SAPE  C31415464   5.732   3.456   8.762 -0.0066  0.1208 -0.2152
  141SAPE  H14X15465   5.729   3.560   8.799  1.2823  0.1162 -0.0683
  141SAPE  H14Y15466   5.713   3.454   8.653  0.1120  2.0859 -0.2944
  141SAPE  C31515467   5.857   3.373   8.794 -0.0428 -0.3719 -0.0087
  141SAPE  H15X15468   5.845   3.274   8.745 -0.0406 -0.5385  0.3241
  141SAPE  H15Y15469   5.858   3.363   8.904  1.0202 -1.8658 -0.1215
  141SAPE  C31615470   5.989   3.438   8.753 -0.2054 -0.1442  0.7359
  141SAPE  H16X15471   5.988   3.453   8.643  0.6562 -2.0956  0.4260
  141SAPE  H16Y15472   6.073   3.369   8.775 -0.8963  0.0810  4.7574
  141SAPE  C31715473   6.022   3.572   8.814  0.0819 -0.0050 -0.1698
  141SAPE  H17X15474   5.978   3.592   8.914  0.5592 -1.0889  0.2680
  141SAPE  H17Y15475   5.987   3.652   8.745  0.2213 -0.5653 -0.8925
  141SAPE  C31815476   6.174   3.596   8.834  0.5585 -0.3554 -0.1636
  141SAPE  H18X15477   6.226   3.520   8.897 -0.6501 -3.1960 -2.4060
  141SAPE  H18Y15478   6.197   3.690   8.890 -2.0233  0.8336 -0.9458
  141SAPE  H18Z15479   6.221   3.585   8.734 -0.7057 -0.8006 -0.7268
  142SAPE     N15480   6.749   3.418  10.861 -0.4521  0.0860 -0.4510
  142SAPE   HN115481   6.672   3.473  10.904 -1.5035 -1.8665  0.2981
  142SAPE   HN215482   6.750   3.324  10.905 -0.7601  0.1395 -0.3317
  142SAPE   HN315483   6.837   3.470  10.881 -0.5269 -0.5861  1.8693
  142SAPE   C1215484   6.746   3.415  10.708  0.4811 -0.2258 -0.8844
  142SAPE  H12A15485   6.736   3.523  10.681  0.9254 -0.4559 -2.0423
  142SAPE  H12B15486   6.655   3.357  10.682  0.0811  0.9114 -2.1491
  142SAPE   C1115487   6.868   3.348  10.651 -0.4762 -0.4152 -1.1632
  142SAPE  H11A15488   6.861   3.354  10.540 -1.2146 -1.5103 -1.1962
  142SAPE  H11B15489   6.873   3.239  10.672  0.6998 -0.0286  0.7879
  142SAPE     P15490   7.060   3.529  10.619 -0.1279  0.3091 -0.0112
  142SAPE   O1315491   6.958   3.640  10.622 -0.1412 -0.0196  0.1405
  142SAPE   O1415492   7.194   3.551  10.681 -0.3717 -0.0546 -0.0442
  142SAPE   O1215493   6.991   3.414  10.697  0.1765 -0.0648 -0.2273
  142SAPE   O1115494   7.083   3.462  10.480 -0.8861  0.1873  0.5297
  142SAPE    C115495   7.106   3.537  10.360  0.5683 -0.4192  0.6891
  142SAPE    HA15496   7.075   3.643  10.367 -1.3346 -0.9048  0.2156
  142SAPE    HB15497   7.212   3.536  10.326  0.2978  1.3096 -0.2842
  142SAPE    C215498   7.021   3.473  10.252 -0.3680  0.2886  0.4830
  142SAPE    HS15499   7.042   3.530  10.159  0.2276  1.5103  1.3354
  142SAPE   O2115500   6.884   3.467  10.296  0.1193 -0.4413  0.0749
  142SAPE   C2115501   6.811   3.575  10.308 -0.6933  0.0622 -0.2420
  142SAPE   O2215502   6.839   3.686  10.278  0.0736 -0.4945  0.1033
  142SAPE   C2215503   6.675   3.549  10.372 -0.4027  0.3115 -0.4142
  142SAPE   H2R15504   6.680   3.441  10.397  0.4258  0.2675 -0.7090
  142SAPE   H2S15505   6.675   3.618  10.459  1.0769 -0.5192  0.2965
  142SAPE    C315506   7.071   3.327  10.218  0.4319  0.0048  0.0358
  142SAPE    HX15507   7.077   3.257  10.305 -0.5924 -0.2622 -0.1013
  142SAPE    HY15508   7.177   3.357  10.200 -0.1678  1.0679 -1.8977
  142SAPE   O3115509   7.015   3.270  10.098 -0.0481  0.2721 -0.4748
  142SAPE   C3115510   6.910   3.186  10.124  0.0457  0.5804  0.2141
  142SAPE   O3215511   6.857   3.173  10.234  0.3969 -0.1162 -0.0698
  142SAPE   C3215512   6.858   3.128   9.997  0.3360 -0.2875 -0.1779
  142SAPE   H2X15513   6.913   3.175   9.912 -0.2909  1.2905  0.2469
  142SAPE   H2Y15514   6.753   3.163   9.987  0.3313 -0.2222  0.0988
  142SAPE   C2315515   6.551   3.578  10.289  0.0187  0.0641 -0.0935
  142SAPE   H3R15516   6.572   3.662  10.219 -0.6914 -0.7715 -1.3347
  142SAPE   H3S15517   6.472   3.612  10.360  0.1852  1.7132 -0.6366
  142SAPE   C2415518   6.507   3.460  10.212 -0.5379 -0.1540 -0.7631
  142SAPE   H4R15519   6.399   3.482  10.199 -0.7566  1.9119  3.1303
  142SAPE   H4S15520   6.501   3.364  10.268 -3.5080  1.3930  1.9098
  142SAPE   C2515521   6.582   3.457  10.083  1.1056  0.9305  0.3315
  142SAPE   H5R15522   6.686   3.425  10.101  0.4468 -0.5061  1.8602
  142SAPE   C2615523   6.546   3.481   9.958  0.1080  0.2828  0.2548
  142SAPE   H6R15524   6.619   3.462   9.878 -1.0413 -0.1816 -0.7184
  142SAPE   C2715525   6.403   3.520   9.916  0.3687 -0.4284 -0.3388
  142SAPE   H7R15526   6.327   3.486   9.990 -0.0373 -2.0875 -1.4484
  142SAPE   H7S15527   6.384   3.462   9.823  0.9940 -3.0080  1.0581
  142SAPE   C2815528   6.378   3.669   9.888  0.4905 -0.5556 -0.0823
  142SAPE   H8R15529   6.392   3.740   9.971 -1.0029  0.4856 -0.6631
  142SAPE   C2915530   6.353   3.730   9.770 -0.6758 -0.4631  0.9164
  142SAPE   H9R15531   6.330   3.837   9.787  0.8740 -0.3331  2.5367
  142SAPE  C21015532   6.320   3.670   9.635  0.5055 -0.2235  0.3823
  142SAPE  H10R15533   6.288   3.749   9.564  1.3263 -0.8886 -0.7610
  142SAPE  H10S15534   6.235   3.601   9.653  0.9826 -0.5820  1.3157
  142SAPE  C21115535   6.428   3.588   9.567  0.0139  0.6167 -0.2060
  142SAPE  H11R15536   6.485   3.521   9.633  0.0261  0.0038 -0.8233
  142SAPE  C21215537   6.451   3.591   9.434 -0.3599  0.1689 -0.1273
  142SAPE  H12R15538   6.522   3.515   9.397  1.7369  2.3895 -0.9478
  142SAPE  C21315539   6.380   3.668   9.324 -0.2996 -0.1627 -0.0820
  142SAPE  H13R15540   6.278   3.698   9.357 -0.1272 -0.8831  1.1919
  142SAPE  H13S15541   6.382   3.601   9.235  1.6576 -0.2237 -0.0244
  142SAPE  C21415542   6.455   3.796   9.294 -0.0286 -0.2271 -0.1539
  142SAPE  H14R15543   6.490   3.855   9.380  0.0515 -0.4203 -0.0530
  142SAPE  C21515544   6.506   3.844   9.176  0.3670 -0.3694  0.6057
  142SAPE  H15R15545   6.557   3.942   9.185 -2.0290  1.0027  0.1828
  142SAPE  C21615546   6.489   3.786   9.041 -0.1049  0.0992 -0.1353
  142SAPE  H16R15547   6.461   3.868   8.972 -0.0436  0.4805  0.2817
  142SAPE  H16S15548   6.403   3.717   9.036 -0.6633  0.8667 -2.3379
  142SAPE  C21715549   6.624   3.727   9.001 -0.0739 -0.1744  0.6046
  142SAPE  H17R15550   6.673   3.653   9.068  2.5960 -0.7162 -1.7806
  142SAPE  H17S15551   6.693   3.810   8.980  0.5175 -1.0549 -1.1517
  142SAPE  C21815552   6.599   3.636   8.876  0.5906 -0.6103 -0.5774
  142SAPE  H18R15553   6.506   3.583   8.905  0.3486  0.2284  0.2057
  142SAPE  H18S15554   6.675   3.557   8.858  0.6461 -0.4223 -1.1785
  142SAPE  C21915555   6.586   3.717   8.747  0.3764 -0.7738  0.6215
  142SAPE  H19R15556   6.687   3.756   8.721 -0.2495  0.0333 -0.7432
  142SAPE  H19S15557   6.511   3.798   8.753 -0.4190 -1.5513  1.4070
  142SAPE  C22015558   6.530   3.625   8.637 -0.6981  0.4579  0.3535
  142SAPE  H20R15559   6.429   3.601   8.676 -0.6675  1.1274  0.8636
  142SAPE  H20S15560   6.580   3.528   8.616 -0.9007  0.2981  0.5995
  142SAPE  H20T15561   6.525   3.688   8.545  1.5941  0.9632  0.5301
  142SAPE   C3315562   6.853   2.976  10.006  0.3184  1.2375  0.0180
  142SAPE   H3X15563   6.811   2.935  10.101  1.3994 -1.7681 -0.7042
  142SAPE   H3Y15564   6.956   2.937  10.020 -0.2021  0.7611  3.8252
  142SAPE   C3415565   6.793   2.906   9.878  0.1286  0.0675 -0.3364
  142SAPE   H4X15566   6.684   2.924   9.869 -0.0029 -0.9834 -1.0386
  142SAPE   H4Y15567   6.815   2.797   9.881  1.1127  0.2506 -0.3910
  142SAPE   C3515568   6.864   2.942   9.745  0.0409  0.5582  0.2791
  142SAPE   H5X15569   6.970   2.908   9.747 -0.9032 -3.1145 -2.3098
  142SAPE   H5Y15570   6.872   3.053   9.734  1.7264  0.6575  1.9834
  142SAPE   C3615571   6.785   2.884   9.623 -0.6282  0.2160  0.0429
  142SAPE   H6X15572   6.815   2.930   9.526  0.6186  1.7368  1.0966
  142SAPE   H6Y15573   6.679   2.917   9.630 -0.7328  0.3509 -1.6661
  142SAPE   C3715574   6.802   2.728   9.609  0.1849 -0.7137  0.3299
  142SAPE   H7X15575   6.728   2.698   9.531 -0.5817  0.4663  0.5944
  142SAPE   H7Y15576   6.772   2.688   9.708 -1.0503  1.3790  0.8439
  142SAPE   C3815577   6.938   2.681   9.560  0.2836 -1.0323 -0.7279
  142SAPE   H8X15578   6.940   2.570   9.565  1.0224 -1.0863 -1.8363
  142SAPE   H8Y15579   7.012   2.725   9.631 -1.5900  0.8178  0.1949
  142SAPE   C3915580   6.952   2.728   9.419 -0.4341  0.6223 -0.5457
  142SAPE   H9X15581   7.009   2.823   9.417 -0.7672  0.8503  0.2003
  142SAPE   H9Y15582   6.851   2.735   9.374 -1.0612 -3.5530 -0.2137
  142SAPE  C31015583   7.043   2.638   9.345 -0.2778  0.5765 -0.3894
  142SAPE  H10X15584   6.996   2.537   9.348  2.7439 -0.9412  0.5602
  142SAPE  H10Y15585   7.145   2.639   9.388 -1.0301  0.7975  1.4737
  142SAPE  C31115586   7.062   2.664   9.188  0.6309 -0.2753 -0.3579
  142SAPE  H11X15587   7.092   2.771   9.187 -0.2987 -0.0057 -0.2013
  142SAPE  H11Y15588   6.958   2.653   9.150  0.0089 -1.0010  1.4112
  142SAPE  C31215589   7.164   2.579   9.117  0.4581 -0.3609 -0.5858
  142SAPE  H12X15590   7.134   2.473   9.132  0.1334 -0.2192 -0.2229
  142SAPE  H12Y15591   7.258   2.589   9.175  0.0097 -0.2053  0.1184
  142SAPE  C31315592   7.192   2.584   8.965  0.7329  0.8454 -1.1458
  142SAPE  H13X15593   7.261   2.497   8.952  0.1549 -0.4912  2.9765
  142SAPE  H13Y15594   7.230   2.679   8.922 -0.4863  0.9069 -2.1459
  142SAPE  C31415595   7.067   2.555   8.878 -0.2633  0.2088 -0.3801
  142SAPE  H14X15596   7.000   2.644   8.879 -0.1096  0.3232 -0.0143
  142SAPE  H14Y15597   6.999   2.485   8.931  0.8414 -0.7507 -0.2001
  142SAPE  C31515598   7.088   2.521   8.730 -0.1646  0.8488 -0.0118
  142SAPE  H15X15599   7.168   2.444   8.721 -2.5072 -1.6432 -0.7838
  142SAPE  H15Y15600   7.130   2.609   8.677 -1.2834  0.6586 -1.2697
  142SAPE  C31615601   6.958   2.473   8.663 -0.4344  0.0308  0.1451
  142SAPE  H16X15602   6.889   2.560   8.673  0.1824  0.4066  1.3041
  142SAPE  H16Y15603   6.910   2.395   8.726 -0.7387 -0.4868 -0.7024
  142SAPE  C31715604   6.976   2.429   8.520 -0.4674 -0.3000 -0.1341
  142SAPE  H17X15605   6.891   2.363   8.493 -1.2757 -0.0263  1.5772
  142SAPE  H17Y15606   7.073   2.376   8.515 -0.4462 -0.3533  0.6869
  142SAPE  C31815607   6.980   2.546   8.417  0.5083  0.3698 -0.3284
  142SAPE  H18X15608   6.883   2.601   8.416  0.5784  0.4902 -1.0144
  142SAPE  H18Y15609   7.010   2.517   8.315 -1.3460 -2.2722 -0.2181
  142SAPE  H18Z15610   7.057   2.617   8.455  2.5641 -2.0756  0.3038
  143SAPE     N15611   1.191   3.392  10.307 -0.1621  0.5772 -0.2600
  143SAPE   HN115612   1.265   3.420  10.375  0.8955  0.7625 -1.4556
  143SAPE   HN215613   1.219   3.405  10.208 -0.4053  1.8235 -0.1857
  143SAPE   HN315614   1.110   3.455  10.325 -2.1303 -1.7172 -0.5233
  143SAPE   C1215615   1.168   3.244  10.321 -0.0004 -0.1182 -0.3853
  143SAPE  H12A15616   1.140   3.221  10.426 -0.0156 -0.3596 -0.4419
  143SAPE  H12B15617   1.268   3.197  10.309 -0.1723 -0.4019 -0.7549
  143SAPE   C1115618   1.074   3.198  10.216 -0.9346 -0.3787 -0.1956
  143SAPE  H11A15619   1.043   3.096  10.250  1.5604 -0.8400  0.8987
  143SAPE  H11B15620   1.127   3.184  10.119 -1.0798 -2.1427 -0.0645
  143SAPE     P15621   0.856   3.250  10.092  0.2117  0.2258 -0.0800
  143SAPE   O1315622   0.844   3.105  10.083  0.2512  0.0697  0.1662
  143SAPE   O1415623   0.729   3.333  10.114 -0.2600 -0.1663 -0.6953
  143SAPE   O1215624   0.958   3.282  10.204  0.1459 -0.1886 -0.0730
  143SAPE   O1115625   0.916   3.313   9.953 -0.3657  0.7270 -0.5635
  143SAPE    C115626   0.915   3.451   9.923 -0.2527  0.4066  0.7783
  143SAPE    HA15627   0.904   3.515  10.014 -0.6930 -0.5043  1.3789
  143SAPE    HB15628   1.017   3.472   9.885 -0.7828  0.8259 -0.4534
  143SAPE    C215629   0.806   3.476   9.813  0.0534  0.0361  0.6292
  143SAPE    HS15630   0.723   3.402   9.823 -0.2001  0.0490 -1.1219
  143SAPE   O2115631   0.872   3.486   9.678  0.0786  0.0658 -0.2720
  143SAPE   C2115632   0.863   3.368   9.618 -0.8502 -0.7116  0.0380
  143SAPE   O2215633   0.811   3.268   9.660 -0.5525 -0.1446  0.0258
  143SAPE   C2215634   0.944   3.376   9.487 -0.1770  0.2834 -0.6220
  143SAPE   H2R15635   0.913   3.474   9.444  2.0107  1.5846  0.6244
  143SAPE   H2S15636   1.052   3.380   9.514 -0.7894  0.6445  2.0124
  143SAPE    C315637   0.729   3.604   9.832 -0.8167 -0.1989 -0.8397
  143SAPE    HX15638   0.809   3.680   9.833  0.2474 -1.2371  1.8438
  143SAPE    HY15639   0.677   3.605   9.930  1.7066 -2.5704  0.6775
  143SAPE   O3115640   0.649   3.624   9.713  0.0421  0.3681 -0.0567
  143SAPE   C3115641   0.530   3.568   9.721 -0.5567 -0.5437 -0.2311
  143SAPE   O3215642   0.484   3.490   9.803 -0.1489  0.5391 -0.0432
  143SAPE   C3215643   0.451   3.626   9.608 -0.0327 -0.3128  0.5913
  143SAPE   H2X15644   0.455   3.737   9.611 -0.7905 -0.1426 -2.2111
  143SAPE   H2Y15645   0.345   3.596   9.624 -0.2627  0.2550  0.1537
  143SAPE   C2315646   0.909   3.264   9.390 -0.0770  0.3420  0.4304
  143SAPE   H3R15647   0.801   3.240   9.390 -0.0148 -0.0734 -1.3943
  143SAPE   H3S15648   0.958   3.170   9.424 -1.2758  0.3445  2.3476
  143SAPE   C2415649   0.931   3.291   9.235 -0.0376 -0.1439 -0.9101
  143SAPE   H4R15650   1.041   3.305   9.228  0.3254  0.0165  3.1201
  143SAPE   H4S15651   0.882   3.387   9.206 -0.0363 -0.1548 -0.9485
  143SAPE   C2515652   0.858   3.202   9.143 -0.2221  0.1718 -0.2385
  143SAPE   H5R15653   0.756   3.173   9.169 -0.1502  0.1651  0.0383
  143SAPE   C2615654   0.928   3.140   9.044 -0.0954 -0.6372  0.2266
  143SAPE   H6R15655   0.867   3.071   8.984 -1.4370 -0.6987  1.5840
  143SAPE   C2715656   1.079   3.144   9.022  0.1121 -0.7973  0.1480
  143SAPE   H7R15657   1.143   3.127   9.111 -0.2807 -1.1901  0.3571
  143SAPE   H7S15658   1.102   3.245   8.980  2.2571 -1.8287 -1.3792
  143SAPE   C2815659   1.116   3.045   8.917 -0.4545 -0.0415 -0.7346
  143SAPE   H8R15660   1.056   2.953   8.923  1.8639 -1.5582  1.1434
  143SAPE   C2915661   1.220   3.048   8.824  0.0809  0.4346  0.4737
  143SAPE   H9R15662   1.235   2.964   8.754 -0.2639  0.8858 -0.1520
  143SAPE  C21015663   1.325   3.147   8.799  0.0116  0.6615 -0.0765
  143SAPE  H10R15664   1.283   3.250   8.804 -2.1019  0.0698 -2.8683
  143SAPE  H10S15665   1.361   3.139   8.694  2.0877  0.0939  0.6295
  143SAPE  C21115666   1.442   3.131   8.899  0.2220 -0.4531  0.0815
  143SAPE  H11R15667   1.411   3.098   8.999 -1.3282 -0.6942 -0.4375
  143SAPE  C21215668   1.566   3.175   8.881 -0.0676 -0.2220 -0.1125
  143SAPE  H12R15669   1.630   3.174   8.971 -1.1140  4.1621  0.9088
  143SAPE  C21315670   1.613   3.247   8.751 -0.2607  0.6387 -0.2392
  143SAPE  H13R15671   1.675   3.335   8.779 -1.2164  1.5899 -1.0427
  143SAPE  H13S15672   1.532   3.301   8.698 -0.4571  1.9511  1.3322
  143SAPE  C21415673   1.698   3.142   8.676  0.3944 -0.1075 -0.0376
  143SAPE  H14R15674   1.661   3.038   8.669 -2.6035  0.6265  2.9089
  143SAPE  C21515675   1.816   3.166   8.611  0.6695 -0.3016  0.1145
  143SAPE  H15R15676   1.852   3.087   8.544  3.1148 -0.2525  1.2487
  143SAPE  C21615677   1.887   3.301   8.605  0.3861  0.2579  0.0183
  143SAPE  H16R15678   1.843   3.383   8.666  2.6882 -0.7160  3.2577
  143SAPE  H16S15679   1.893   3.330   8.498 -1.4984  2.2843  0.3903
  143SAPE  C21715680   2.028   3.284   8.661  1.2652 -0.4513  0.0012
  143SAPE  H17R15681   2.072   3.385   8.651 -0.9310  0.5890  0.1960
  143SAPE  H17S15682   2.083   3.219   8.589 -0.0995 -0.3344 -1.1907
  143SAPE  C21815683   2.033   3.250   8.813  0.1143 -0.1207 -0.0758
  143SAPE  H18R15684   1.969   3.161   8.831 -0.7590  0.6491  0.7321
  143SAPE  H18S15685   1.989   3.339   8.863 -0.1803  0.3110 -1.0777
  143SAPE  C21915686   2.172   3.226   8.872  0.0981  0.4769 -0.3246
  143SAPE  H19R15687   2.161   3.179   8.971  1.5947 -1.5526 -1.0438
  143SAPE  H19S15688   2.232   3.320   8.877  0.1691  0.4841 -1.1708
  143SAPE  C22015689   2.258   3.130   8.788 -0.3629  0.4658 -0.5413
  143SAPE  H20R15690   2.331   3.176   8.718  0.6118 -0.0840  0.1077
  143SAPE  H20S15691   2.200   3.052   8.733 -1.0850  0.0452  0.7609
  143SAPE  H20T15692   2.329   3.081   8.857  1.5739  1.2207 -1.9028
  143SAPE   C3315693   0.505   3.581   9.474 -0.4432  0.3797 -0.2335
  143SAPE   H3X15694   0.462   3.479   9.467  0.0283 -0.1831  3.3273
  143SAPE   H3Y15695   0.614   3.580   9.453  0.1578  3.0288  2.0777
  143SAPE   C3415696   0.443   3.652   9.345 -0.1303  0.1568  0.5832
  143SAPE   H4X15697   0.497   3.749   9.335  0.1385 -0.1185 -0.8793
  143SAPE   H4Y15698   0.333   3.665   9.351 -0.2963 -1.0059  0.2161
  143SAPE   C3515699   0.450   3.571   9.210 -0.1930  0.2261  0.4096
  143SAPE   H5X15700   0.391   3.624   9.132  0.1761  0.0009 -0.0233
  143SAPE   H5Y15701   0.402   3.471   9.219 -0.3875  0.2848  0.0189
  143SAPE   C3615702   0.596   3.559   9.153 -0.6419 -0.1184 -1.0810
  143SAPE   H6X15703   0.652   3.490   9.219 -3.5320 -0.6369  0.9673
  143SAPE   H6Y15704   0.638   3.662   9.154  1.6235 -0.9889 -0.9419
  143SAPE   C3715705   0.594   3.517   9.004 -0.1594  0.2201 -0.6179
  143SAPE   H7X15706   0.509   3.570   8.955  0.5605  0.0274 -2.1251
  143SAPE   H7Y15707   0.584   3.407   9.001 -0.3009  0.2447 -2.0605
  143SAPE   C3815708   0.727   3.549   8.933 -0.8092 -0.5769 -0.1982
  143SAPE   H8X15709   0.811   3.575   9.001  1.1014  0.8137 -2.8892
  143SAPE   H8Y15710   0.702   3.646   8.884  0.8897  0.5294  1.0031
  143SAPE   C3915711   0.762   3.448   8.822  0.4231  0.7567 -0.0830
  143SAPE   H9X15712   0.769   3.345   8.863 -0.6599  1.0337  0.8509
  143SAPE   H9Y15713   0.861   3.478   8.781  0.3007  1.3068  0.0178
  143SAPE  C31015714   0.654   3.454   8.714  0.4762  0.8580  0.0708
  143SAPE  H10X15715   0.642   3.554   8.668  0.4812 -0.0449 -2.0252
  143SAPE  H10Y15716   0.555   3.427   8.757 -0.5088 -0.6878 -2.8022
  143SAPE  C31115717   0.671   3.354   8.598 -0.3809  0.1438  0.2198
  143SAPE  H11X15718   0.779   3.355   8.575 -0.4057  0.3950  0.0991
  143SAPE  H11Y15719   0.609   3.390   8.512  0.1854  1.7349  0.4546
  143SAPE  C31215720   0.624   3.206   8.625  0.1408 -0.5092  0.0884
  143SAPE  H12X15721   0.565   3.171   8.538 -1.2515 -0.2191  0.8802
  143SAPE  H12Y15722   0.554   3.203   8.712 -1.0214  0.0859 -0.7888
  143SAPE  C31315723   0.743   3.106   8.654  0.1043 -0.4152  0.1854
  143SAPE  H13X15724   0.808   3.143   8.736  1.2494  0.9293 -1.2713
  143SAPE  H13Y15725   0.809   3.098   8.565  1.1692 -1.4515  1.0239
  143SAPE  C31415726   0.700   2.961   8.676 -0.2357  0.6065  1.0165
  143SAPE  H14X15727   0.639   2.929   8.589 -0.1863  0.7849  0.9173
  143SAPE  H14Y15728   0.626   2.955   8.758 -0.6252 -4.4415  0.6373
  143SAPE  C31515729   0.803   2.856   8.708  0.8348  0.0867  0.2889
  143SAPE  H15X15730   0.747   2.760   8.712 -2.4744  1.8420 -0.4511
  143SAPE  H15Y15731   0.854   2.873   8.805 -1.3825  0.7131  1.4115
  143SAPE  C31615732   0.903   2.833   8.591  0.3067  0.4564 -0.7985
  143SAPE  H16X15733   0.944   2.935   8.578 -0.8653  0.7809 -2.1312
  143SAPE  H16Y15734   0.853   2.808   8.495 -1.0605  0.0637 -0.0165
  143SAPE  C31715735   1.023   2.738   8.622  0.4711  0.1074  0.1664
  143SAPE  H17X15736   0.988   2.635   8.646 -0.4769  0.5571  0.8204
  143SAPE  H17Y15737   1.075   2.764   8.717 -1.0629  0.1567  1.0418
  143SAPE  C31815738   1.126   2.746   8.513  0.1774 -0.6149 -0.4329
  143SAPE  H18X15739   1.212   2.678   8.527  0.0787 -0.4173  1.4251
  143SAPE  H18Y15740   1.145   2.852   8.485 -2.6683  0.3096  0.7230
  143SAPE  H18Z15741   1.086   2.706   8.417 -0.2833 -3.1971  0.7656
  144SAPE     N15742   1.968   2.476  10.787 -0.1986 -0.5600  1.0288
  144SAPE   HN115743   2.041   2.540  10.824 -0.5466 -0.1537  1.0135
  144SAPE   HN215744   1.887   2.528  10.749  0.3155  0.8449  1.7838
  144SAPE   HN315745   1.946   2.411  10.865  1.3159 -3.0147 -0.4424
  144SAPE   C1215746   2.042   2.409  10.676  0.1145  0.2581  0.5971
  144SAPE  H12A15747   2.133   2.362  10.717 -0.3662  0.3003  1.7537
  144SAPE  H12B15748   2.069   2.496  10.611 -0.8915  0.2706  0.1707
  144SAPE   C1115749   1.965   2.290  10.608 -0.9060  0.1095  0.4619
  144SAPE  H11A15750   2.031   2.228  10.544 -0.7245  0.9952 -0.2286
  144SAPE  H11B15751   1.891   2.333  10.538 -0.8321  0.7292  0.7548
  144SAPE     P15752   1.969   2.082  10.761 -0.0333  0.6007 -0.1314
  144SAPE   O1315753   2.102   2.119  10.793 -0.6077 -0.1412  0.2482
  144SAPE   O1415754   1.890   2.035  10.881 -0.3652 -0.1071  0.1172
  144SAPE   O1215755   1.893   2.208  10.698  0.5071  0.5048 -0.1739
  144SAPE   O1115756   1.964   1.975  10.652  0.2266 -0.4503  0.4726
  144SAPE    C115757   1.859   1.925  10.573 -0.0907  0.4475  0.1137
  144SAPE    HA15758   1.792   2.008  10.542 -1.0065 -1.2772 -3.0044
  144SAPE    HB15759   1.903   1.882  10.481  1.0977  0.2064  0.7791
  144SAPE    C215760   1.761   1.818  10.644  0.0448  0.4035  0.4425
  144SAPE    HS15761   1.823   1.774  10.725  0.8108 -0.8165 -0.7765
  144SAPE   O2115762   1.725   1.721  10.543 -0.1950 -0.2349 -0.0388
  144SAPE   C2115763   1.679   1.617  10.592  0.1228 -0.6122  0.2708
  144SAPE   O2215764   1.653   1.604  10.715  0.1448  0.2017  0.4940
  144SAPE   C2215765   1.645   1.516  10.479 -0.2798  0.3833 -0.5175
  144SAPE   H2R15766   1.546   1.545  10.440 -0.8545  0.8865  1.2291
  144SAPE   H2S15767   1.727   1.517  10.403  1.2453 -0.6758  1.0298
  144SAPE    C315768   1.639   1.887  10.708 -0.1341 -0.1336  0.2675
  144SAPE    HX15769   1.682   1.949  10.789  0.0846 -0.8378  0.6988
  144SAPE    HY15770   1.564   1.820  10.756 -0.4667 -0.4316 -0.6407
  144SAPE   O3115771   1.564   1.977  10.618 -0.3079 -0.7358 -1.1960
  144SAPE   C3115772   1.467   1.931  10.548  0.1553 -0.3685 -0.4450
  144SAPE   O3215773   1.428   1.814  10.543  0.2939 -0.0787  0.0971
  144SAPE   C3215774   1.409   2.053  10.473 -0.7153  0.0298  0.7767
  144SAPE   H2X15775   1.386   2.126  10.553 -0.0604  1.9947 -0.7560
  144SAPE   H2Y15776   1.318   2.026  10.415  0.7793 -0.5135 -1.4395
  144SAPE   C2315777   1.621   1.372  10.532  0.3628 -0.1743  0.2662
  144SAPE   H3R15778   1.552   1.362  10.619  1.6135  0.2936  1.3388
  144SAPE   H3S15779   1.718   1.330  10.567  1.1722  0.6775 -0.9001
  144SAPE   C2415780   1.569   1.279  10.419 -0.0117 -0.5844 -0.4425
  144SAPE   H4R15781   1.461   1.302  10.405  0.4054  1.6348 -0.4169
  144SAPE   H4S15782   1.568   1.181  10.470 -2.6974 -2.2989 -3.4688
  144SAPE   C2515783   1.646   1.257  10.296 -0.4657 -0.4650 -0.7614
  144SAPE   H5R15784   1.753   1.281  10.296 -0.3801 -0.8093 -0.0397
  144SAPE   C2615785   1.602   1.210  10.180 -0.5454  0.1800 -0.0654
  144SAPE   H6R15786   1.668   1.206  10.092  1.7313  0.3494  1.5454
  144SAPE   C2715787   1.460   1.178  10.161  0.3956  0.3490 -0.5884
  144SAPE   H7R15788   1.434   1.182  10.053  1.0153  2.2210 -0.7085
  144SAPE   H7S15789   1.404   1.271  10.186 -0.5932 -1.1338  3.6190
  144SAPE   C2815790   1.401   1.064  10.235 -0.1750 -0.0323  0.5605
  144SAPE   H8R15791   1.462   1.017  10.314 -1.6088 -3.6367 -0.2793
  144SAPE   C2915792   1.286   0.998  10.210  0.3373 -0.3164  0.0320
  144SAPE   H9R15793   1.270   0.908  10.271  1.9223 -0.9681 -0.4787
  144SAPE  C21015794   1.184   1.042  10.106  0.8941 -0.0834  0.6274
  144SAPE  H10R15795   1.228   1.020  10.007  0.3387  0.2969  0.2883
  144SAPE  H10S15796   1.176   1.153  10.102 -2.4469 -0.1842  1.6094
  144SAPE  C21115797   1.046   0.980  10.132 -0.3646 -0.0799 -0.0520
  144SAPE  H11R15798   0.985   1.023  10.213 -2.3209 -0.2919 -1.3524
  144SAPE  C21215799   0.985   0.893  10.049 -0.0424  0.1797  0.0245
  144SAPE  H12R15800   0.885   0.857  10.080 -1.0254  0.1417 -2.9365
  144SAPE  C21315801   1.036   0.828   9.921  0.8745  0.3498  0.0549
  144SAPE  H13R15802   1.118   0.889   9.879  1.9728 -2.3000 -1.9083
  144SAPE  H13S15803   0.957   0.822   9.842 -1.2375 -1.3040  2.1714
  144SAPE  C21415804   1.087   0.690   9.939  0.1480 -0.1203  0.0633
  144SAPE  H14R15805   1.074   0.651  10.041 -0.4567 -1.8461 -0.6525
  144SAPE  C21515806   1.142   0.614   9.841  0.2113  0.3268 -0.9141
  144SAPE  H15R15807   1.147   0.505   9.855  0.7057  0.6789  2.4340
  144SAPE  C21615808   1.162   0.669   9.699  0.4938  0.6360  0.1499
  144SAPE  H16R15809   1.264   0.652   9.659  0.5659  2.2384 -0.3967
  144SAPE  H16S15810   1.136   0.777   9.695  2.4869  1.1300 -0.2172
  144SAPE  C21715811   1.062   0.607   9.596  0.9022 -0.5960 -0.5834
  144SAPE  H17R15812   0.956   0.605   9.628  0.5434  1.0158 -1.5653
  144SAPE  H17S15813   1.087   0.500   9.580  1.3242 -0.3062 -2.0788
  144SAPE  C21815814   1.062   0.675   9.456  0.3692  0.3854 -0.1879
  144SAPE  H18R15815   1.027   0.780   9.468  2.3024  1.2606 -1.7290
  144SAPE  H18S15816   0.991   0.618   9.394 -0.0077 -1.0124  1.4570
  144SAPE  C21915817   1.199   0.679   9.388  0.2509 -0.3220  0.6103
  144SAPE  H19R15818   1.256   0.746   9.457  0.0505 -1.0169  1.4721
  144SAPE  H19S15819   1.205   0.735   9.292  1.4738 -0.3453  0.6627
  144SAPE  C22015820   1.277   0.549   9.373 -0.5611  0.1950  0.6915
  144SAPE  H20R15821   1.228   0.484   9.298  0.4663  0.1751  0.0223
  144SAPE  H20S15822   1.265   0.483   9.461 -0.8491 -0.2656  0.3121
  144SAPE  H20T15823   1.384   0.553   9.343 -0.2913 -0.2016  1.5839
  144SAPE   C3315824   1.506   2.112  10.368  0.2752  0.2544  0.3883
  144SAPE   H3X15825   1.611   2.132  10.398  1.1195 -1.6835 -1.0679
  144SAPE   H3Y15826   1.463   2.213  10.352  1.4164  0.8203  0.8027
  144SAPE   C3415827   1.495   2.037  10.233  0.5750 -0.3674  0.7963
  144SAPE   H4X15828   1.564   2.081  10.158  0.0478 -1.2210 -0.2122
  144SAPE   H4Y15829   1.395   2.062  10.191  0.6115 -0.3104  0.7439
  144SAPE   C3515830   1.511   1.886  10.233  0.2039 -0.3573  0.3124
  144SAPE   H5X15831   1.425   1.826  10.269  0.0287 -1.0453 -1.1700
  144SAPE   H5Y15832   1.611   1.859  10.275  0.3093  0.4722  0.6178
  144SAPE   C3615833   1.554   1.839  10.090  0.4451  0.0730  0.3741
  144SAPE   H6X15834   1.595   1.924  10.030  0.3465 -1.5007 -2.0669
  144SAPE   H6Y15835   1.466   1.813  10.026  1.2648 -3.2271  0.4199
  144SAPE   C3715836   1.650   1.710  10.088  0.0998  0.7306  0.6346
  144SAPE   H7X15837   1.614   1.633  10.159  1.7549 -2.2362 -1.5087
  144SAPE   H7Y15838   1.757   1.739  10.092  0.2601  0.1365  0.6877
  144SAPE   C3815839   1.631   1.633   9.953  0.0560  0.2285  0.1714
  144SAPE   H8X15840   1.522   1.619   9.937  0.1935 -1.2046  0.3539
  144SAPE   H8Y15841   1.670   1.529   9.952 -0.5695 -0.0118 -0.9328
  144SAPE   C3915842   1.675   1.685   9.819 -0.2475  0.3056  0.4893
  144SAPE   H9X15843   1.780   1.722   9.819  0.0990 -0.6469  1.0025
  144SAPE   H9Y15844   1.598   1.760   9.789  0.1315  0.8382  0.8159
  144SAPE  C31015845   1.679   1.584   9.709  0.3957 -0.5776  0.3920
  144SAPE  H10X15846   1.577   1.541   9.698  0.7921 -1.4650  0.0470
  144SAPE  H10Y15847   1.747   1.498   9.729  1.3784  0.4099  1.5075
  144SAPE  C31115848   1.710   1.643   9.573  0.5333  0.3584  0.2769
  144SAPE  H11X15849   1.784   1.725   9.578 -1.6800  2.5117 -0.3291
  144SAPE  H11Y15850   1.624   1.700   9.532 -0.5126 -1.7757 -0.6739
  144SAPE  C31215851   1.747   1.534   9.474 -0.1967  0.7541  0.3033
  144SAPE  H12X15852   1.671   1.454   9.467  2.7434 -2.2937  0.2365
  144SAPE  H12Y15853   1.840   1.485   9.511 -0.6108 -0.9529 -0.8056
  144SAPE  C31315854   1.749   1.583   9.330  0.4536  0.3002  0.6372
  144SAPE  H13X15855   1.818   1.668   9.315  1.1315 -0.6203 -1.9386
  144SAPE  H13Y15856   1.648   1.629   9.317 -0.1525 -0.2312  2.9225
  144SAPE  C31415857   1.778   1.488   9.213  0.2095  0.3535  0.0487
  144SAPE  H14X15858   1.685   1.429   9.204  0.9456 -1.0465  1.1698
  144SAPE  H14Y15859   1.866   1.424   9.234 -0.7517 -0.4778  1.8014
  144SAPE  C31515860   1.803   1.569   9.086  0.8914 -0.4278 -1.0919
  144SAPE  H15X15861   1.900   1.623   9.087  0.8327 -0.3244 -0.9813
  144SAPE  H15Y15862   1.726   1.648   9.087  2.0593  0.8308  2.2398
  144SAPE  C31615863   1.804   1.487   8.956 -0.1197 -0.1079  0.1187
  144SAPE  H16X15864   1.825   1.555   8.871  0.0982 -2.3188 -1.6831
  144SAPE  H16Y15865   1.704   1.439   8.947  0.1298 -0.5774 -0.2096
  144SAPE  C31715866   1.898   1.373   8.956  0.1948  0.4639 -0.5765
  144SAPE  H17X15867   1.858   1.295   9.025  2.1983 -0.5260 -0.4494
  144SAPE  H17Y15868   1.995   1.407   9.000  0.1623 -2.0673  1.7660
  144SAPE  C31815869   1.923   1.314   8.815 -0.1926 -0.9789  0.2529
  144SAPE  H18X15870   1.966   1.212   8.811  1.0714 -0.4586  0.2327
  144SAPE  H18Y15871   1.996   1.370   8.752 -0.0291 -0.9526  0.4666
  144SAPE  H18Z15872   1.826   1.320   8.760 -0.0330 -0.3688  0.0304
  145SAPE     N15873   0.756   1.457  11.243  0.1538 -0.2198 -0.1798
  145SAPE   HN115874   0.693   1.383  11.206 -2.7725  2.8891 -2.0296
  145SAPE   HN215875   0.761   1.449  11.347  0.7740 -0.5621 -0.2317
  145SAPE   HN315876   0.705   1.546  11.228  1.8101  1.6625  3.8292
  145SAPE   C1215877   0.897   1.466  11.187  0.0401 -0.0752 -0.2235
  145SAPE  H12A15878   0.944   1.365  11.186 -0.0498 -0.1752  1.7295
  145SAPE  H12B15879   0.958   1.519  11.264 -0.9266 -1.0141  1.2509
  145SAPE   C1115880   0.896   1.524  11.050 -0.3156 -0.0836 -0.6492
  145SAPE  H11A15881   0.820   1.481  10.981 -2.8003  0.6473  1.4713
  145SAPE  H11B15882   1.001   1.511  11.014  0.1515 -0.2051  0.7127
  145SAPE     P15883   0.740   1.746  11.065 -0.0511  0.3534 -0.0572
  145SAPE   O1315884   0.658   1.679  11.166  0.2498 -0.0080  0.0963
  145SAPE   O1415885   0.765   1.884  11.103 -0.4829  0.5044 -0.2649
  145SAPE   O1215886   0.876   1.670  11.055 -0.0399  0.2460 -0.1894
  145SAPE   O1115887   0.670   1.737  10.924  0.0578 -0.0128 -0.3151
  145SAPE    C115888   0.745   1.778  10.807  0.3820 -0.2526 -0.3209
  145SAPE    HA15889   0.845   1.729  10.805 -0.1160 -1.2754 -0.7098
  145SAPE    HB15890   0.690   1.748  10.715 -1.0114  1.0733  0.0370
  145SAPE    C215891   0.748   1.938  10.786 -0.1877 -0.3051  0.1087
  145SAPE    HS15892   0.708   1.991  10.874  0.8110  0.9226 -0.1546
  145SAPE   O2115893   0.667   1.963  10.674 -0.3134  0.3154 -0.2663
  145SAPE   C2115894   0.624   2.089  10.661 -0.0373  0.3667  0.2733
  145SAPE   O2215895   0.635   2.180  10.739  0.7412 -0.0932 -0.2569
  145SAPE   C2215896   0.553   2.109  10.515 -0.2795 -0.3006  0.3016
  145SAPE   H2R15897   0.471   2.182  10.536  0.2113  0.1752  0.5816
  145SAPE   H2S15898   0.621   2.175  10.457 -0.4600 -1.4007 -1.2157
  145SAPE    C315899   0.896   1.979  10.763 -0.6044  0.0146  0.1422
  145SAPE    HX15900   0.961   1.959  10.850 -1.0464 -1.8805  0.0740
  145SAPE    HY15901   0.898   2.090  10.754  0.7421 -0.0419 -0.5474
  145SAPE   O3115902   0.959   1.905  10.651  0.1321 -0.2177 -0.0561
  145SAPE   C3115903   0.968   1.977  10.540  0.0791 -0.3374 -0.2184
  145SAPE   O3215904   0.948   2.099  10.525 -0.3487  0.3078 -0.4427
  145SAPE   C3215905   1.020   1.883  10.423 -0.2147 -0.2789 -0.1402
  145SAPE   H2X15906   1.066   1.791  10.467  0.6070 -1.0044 -2.3915
  145SAPE   H2Y15907   1.107   1.939  10.382  1.0541 -0.5510  1.9712
  145SAPE   C2315908   0.498   1.993  10.427  0.3261 -0.2964  0.5262
  145SAPE   H3R15909   0.397   1.957  10.458  0.9040 -3.3073 -0.7169
  145SAPE   H3S15910   0.565   1.905  10.440 -0.7757 -1.0781  1.1058
  145SAPE   C2415911   0.501   2.028  10.273  0.9404 -0.8151 -0.0561
  145SAPE   H4R15912   0.471   1.937  10.218  2.9487 -0.3461 -2.0760
  145SAPE   H4S15913   0.605   2.064  10.254  1.0155 -0.2061  1.3795
  145SAPE   C2515914   0.410   2.144  10.247 -0.0301  0.4901  0.2199
  145SAPE   H5R15915   0.357   2.170  10.339 -0.7696 -0.6413  0.1407
  145SAPE   C2615916   0.373   2.211  10.136 -0.2926  0.6112 -0.7801
  145SAPE   H6R15917   0.289   2.281  10.135 -0.7827  0.0274 -1.8846
  145SAPE   C2715918   0.419   2.178   9.997 -0.2406  0.1646 -0.0829
  145SAPE   H7R15919   0.335   2.212   9.935 -0.1178  1.6471  0.5177
  145SAPE   H7S15920   0.418   2.067   9.987  1.2227  0.1239 -0.0223
  145SAPE   C2815921   0.549   2.242   9.942 -0.2582 -0.2895  0.1422
  145SAPE   H8R15922   0.627   2.277  10.011  0.0486  2.5875 -1.5289
  145SAPE   C2915923   0.572   2.255   9.811 -0.7089  0.5476  0.6024
  145SAPE   H9R15924   0.658   2.318   9.784 -2.4950  2.7004 -0.3189
  145SAPE  C21015925   0.483   2.211   9.699  0.7328  1.4988  0.3351
  145SAPE  H10R15926   0.420   2.130   9.742 -2.5708  2.8425 -1.6022
  145SAPE  H10S15927   0.549   2.161   9.625 -0.3494 -1.6522  1.3356
  145SAPE  C21115928   0.379   2.295   9.634 -0.3523 -0.2381 -0.6685
  145SAPE  H11R15929   0.377   2.402   9.658 -1.6247 -0.3875 -0.0133
  145SAPE  C21215930   0.286   2.250   9.552  0.7088 -0.1181 -0.2981
  145SAPE  H12R15931   0.198   2.313   9.530  0.8891  0.1079 -0.3794
  145SAPE  C21315932   0.285   2.107   9.494 -0.8177 -0.3178 -0.2121
  145SAPE  H13R15933   0.215   2.042   9.551 -1.3705  0.4475 -0.0118
  145SAPE  H13S15934   0.382   2.056   9.513 -0.7615  0.3020  1.3248
  145SAPE  C21415935   0.231   2.106   9.356 -0.4341 -0.3121 -0.2798
  145SAPE  H14R15936   0.126   2.134   9.341 -0.5861 -1.7858 -2.2847
  145SAPE  C21515937   0.297   2.058   9.249  0.1073 -0.8335  0.7873
  145SAPE  H15R15938   0.248   2.071   9.151 -0.2807  0.7293  1.1542
  145SAPE  C21615939   0.440   2.004   9.251  0.0733  0.0889  0.1694
  145SAPE  H16R15940   0.432   1.893   9.244 -0.1338  0.1267 -0.1982
  145SAPE  H16S15941   0.493   2.023   9.347 -1.0944 -0.8858  1.0334
  145SAPE  C21715942   0.530   2.060   9.131  0.1972  0.0441  0.1501
  145SAPE  H17R15943   0.635   2.024   9.145  0.7230  1.8587  1.1592
  145SAPE  H17S15944   0.539   2.170   9.136 -1.0747  0.1152  3.5843
  145SAPE  C21815945   0.480   2.013   8.989 -0.4269 -0.5525  0.1749
  145SAPE  H18R15946   0.371   2.022   8.973 -0.3703  2.5367  0.9754
  145SAPE  H18S15947   0.514   1.907   8.985  1.7845  0.1235 -2.8569
  145SAPE  C21915948   0.546   2.089   8.878 -0.0282  0.0852 -0.3918
  145SAPE  H19R15949   0.513   2.195   8.882 -3.0108 -0.7487 -0.4025
  145SAPE  H19S15950   0.496   2.057   8.784 -0.5835 -0.6270  0.1395
  145SAPE  C22015951   0.703   2.090   8.867  0.2716 -0.1267 -0.7788
  145SAPE  H20R15952   0.741   2.132   8.962 -2.2256 -0.5226  0.4625
  145SAPE  H20S15953   0.742   2.162   8.792  2.9556  1.0225  1.5214
  145SAPE  H20T15954   0.732   1.985   8.844 -2.4171 -1.3889  1.1060
  145SAPE   C3315955   0.911   1.846  10.327 -0.1733  0.4621  0.5396
  145SAPE   H3X15956   0.823   1.810  10.385  0.6251  1.2062  2.2810
  145SAPE   H3Y15957   0.963   1.766  10.269 -0.2805  0.6026  0.2550
  145SAPE   C3415958   0.866   1.958  10.242 -0.7757  0.2698 -0.0526
  145SAPE   H4X15959   0.814   2.025  10.313  0.4164 -2.7725  4.1225
  145SAPE   H4Y15960   0.795   1.931  10.161  0.0069 -1.8483 -0.0920
  145SAPE   C3515961   0.972   2.048  10.178 -0.5278 -0.0901 -0.1458
  145SAPE   H5X15962   1.038   2.088  10.258  0.6115 -2.2531  0.0628
  145SAPE   H5Y15963   0.924   2.140  10.138  0.8062  0.9931  0.6280
  145SAPE   C3615964   1.057   1.980  10.072 -0.0249 -0.4953  0.0505
  145SAPE   H6X15965   1.124   1.907  10.123 -0.3008 -0.3856  0.5725
  145SAPE   H6Y15966   1.110   2.058  10.013  0.5568  0.0408  1.2435
  145SAPE   C3715967   0.981   1.892   9.973  0.3940  0.0690  0.2456
  145SAPE   H7X15968   0.918   1.816  10.023  0.2256 -2.7356 -3.8120
  145SAPE   H7Y15969   1.054   1.843   9.905 -0.9690 -1.2471 -0.3220
  145SAPE   C3815970   0.885   1.971   9.882 -0.6788 -0.1782  0.5881
  145SAPE   H8X15971   0.941   2.043   9.818 -0.5740 -1.8892 -1.3033
  145SAPE   H8Y15972   0.826   2.036   9.951  1.0958 -0.5261  2.5078
  145SAPE   C3915973   0.796   1.888   9.781  0.6157 -1.0712 -0.3095
  145SAPE   H9X15974   0.734   1.966   9.731  0.7797 -0.9349 -0.3024
  145SAPE   H9Y15975   0.732   1.815   9.834  0.7665 -2.0322 -1.4054
  145SAPE  C31015976   0.886   1.823   9.676 -0.1799  0.5884 -0.0196
  145SAPE  H10X15977   0.944   1.743   9.727 -1.8919  0.3921  1.7611
  145SAPE  H10Y15978   0.945   1.914   9.652  1.2957 -0.5903 -1.0586
  145SAPE  C31115979   0.811   1.761   9.557  0.8869 -0.4150  0.6308
  145SAPE  H11X15980   0.744   1.843   9.523  0.3189 -0.3976  1.7410
  145SAPE  H11Y15981   0.742   1.683   9.597 -2.0250  0.9614 -1.3332
  145SAPE  C31215982   0.891   1.709   9.439 -0.5866 -0.2815 -0.0743
  145SAPE  H12X15983   0.939   1.611   9.459 -0.1022 -0.0478 -0.0671
  145SAPE  H12Y15984   0.965   1.790   9.420 -0.2035 -0.2469  1.4049
  145SAPE  C31315985   0.804   1.688   9.317  1.0603 -0.8342 -0.4096
  145SAPE  H13X15986   0.746   1.783   9.315 -0.9768 -2.0329 -1.2345
  145SAPE  H13Y15987   0.733   1.604   9.335 -0.8170  0.9538  0.9684
  145SAPE  C31415988   0.880   1.662   9.187 -1.2531  0.1565  0.2388
  145SAPE  H14X15989   0.921   1.559   9.184  2.6327  1.5226  1.0778
  145SAPE  H14Y15990   0.967   1.731   9.175 -0.8252  0.2401  3.1294
  145SAPE  C31515991   0.780   1.672   9.069 -0.4834 -0.3732  0.0127
  145SAPE  H15X15992   0.749   1.778   9.057  1.9415  0.5281  1.0224
  145SAPE  H15Y15993   0.683   1.627   9.100 -0.9796  0.8670  0.3535
  145SAPE  C31615994   0.822   1.615   8.930 -0.2177 -0.0964 -0.7204
  145SAPE  H16X15995   0.855   1.509   8.930 -0.1780 -0.0891  0.3182
  145SAPE  H16Y15996   0.912   1.677   8.911 -1.1382  1.2608 -0.8111
  145SAPE  C31715997   0.710   1.621   8.824  0.4133 -0.0338 -0.5110
  145SAPE  H17X15998   0.690   1.731   8.822 -0.7927 -0.2452 -0.8002
  145SAPE  H17Y15999   0.615   1.578   8.863 -1.3366  3.2979 -0.6960
  145SAPE  C31816000   0.748   1.576   8.682 -0.2656  0.2826 -0.0428
  145SAPE  H18X16001   0.710   1.475   8.656 -3.4088  1.8463 -2.3151
  145SAPE  H18Y16002   0.857   1.587   8.664 -0.1278 -2.2081 -1.0314
  145SAPE  H18Z16003   0.695   1.646   8.613 -1.1459 -0.9125 -0.6086
  146SAPE     N16004   5.570   2.260  10.686  0.2314  0.1192 -0.0100
  146SAPE   HN116005   5.479   2.296  10.649 -0.3068  1.4351  2.3699
  146SAPE   HN216006   5.646   2.305  10.631  2.5684 -1.0341  2.0704
  146SAPE   HN316007   5.559   2.165  10.646  1.7972 -0.2007  0.2483
  146SAPE   C1216008   5.576   2.261  10.841  0.5663 -0.0400 -0.2685
  146SAPE  H12A16009   5.500   2.336  10.872 -0.9541 -0.1229 -3.4044
  146SAPE  H12B16010   5.675   2.304  10.869 -0.3197  0.9613  1.4938
  146SAPE   C1116011   5.554   2.121  10.901  0.7437  0.2930  0.6527
  146SAPE  H11A16012   5.550   2.134  11.011 -0.4712  1.0894  0.5372
  146SAPE  H11B16013   5.643   2.057  10.881  0.8193  0.6315 -0.1657
  146SAPE     P16014   5.432   1.935  10.748  0.1355  0.3963 -0.1276
  146SAPE   O1316015   5.521   1.831  10.796 -0.4215  0.4893 -0.1215
  146SAPE   O1416016   5.292   1.899  10.720  0.2991  0.1700  0.2325
  146SAPE   O1216017   5.435   2.058  10.848 -0.3591  0.5347 -0.0854
  146SAPE   O1116018   5.501   1.997  10.619 -0.7208 -0.4584  0.0760
  146SAPE    C116019   5.425   2.031  10.501  0.5264 -0.1628  0.0013
  146SAPE    HA16020   5.344   2.104  10.521 -0.0235 -0.5752 -0.6584
  146SAPE    HB16021   5.496   2.072  10.427 -0.8968  2.5416  0.0234
  146SAPE    C216022   5.357   1.910  10.430  0.0784 -0.0902  0.5164
  146SAPE    HS16023   5.279   1.868  10.496 -0.7904  0.5902 -0.0511
  146SAPE   O2116024   5.454   1.812  10.412  0.0325  0.1478 -0.1115
  146SAPE   C2116025   5.411   1.690  10.397 -0.6703 -0.6785  0.2379
  146SAPE   O2216026   5.296   1.654  10.402 -0.0960 -0.3223  0.2722
  146SAPE   C2216027   5.539   1.600  10.380  0.1105 -0.5445 -0.2182
  146SAPE   H2R16028   5.624   1.637  10.442  0.2023  0.6723 -1.0413
  146SAPE   H2S16029   5.510   1.503  10.426  1.3589 -1.4014 -1.1582
  146SAPE    C316030   5.280   1.953  10.307 -0.0512  0.5913  0.1535
  146SAPE    HX16031   5.189   2.011  10.334 -0.6143  0.1364 -0.7438
  146SAPE    HY16032   5.248   1.860  10.256  1.2651 -0.7917  1.7164
  146SAPE   O3116033   5.363   2.023  10.222  0.9531  0.3272  0.1839
  146SAPE   C3116034   5.299   2.101  10.133  0.0834  0.1286  1.1370
  146SAPE   O3216035   5.179   2.109  10.114  0.4949  0.5817 -0.1474
  146SAPE   C3216036   5.405   2.180  10.056 -0.1289 -0.5337  0.5442
  146SAPE   H2X16037   5.510   2.149  10.073  0.2304 -0.1460 -0.8165
  146SAPE   H2Y16038   5.408   2.283  10.099 -0.8506  0.4811 -1.6943
  146SAPE   C2316039   5.584   1.595  10.237 -0.4406 -0.2643  0.0967
  146SAPE   H3R16040   5.585   1.698  10.196  3.9015  0.1506  0.7591
  146SAPE   H3S16041   5.513   1.532  10.179  0.0392 -1.8929  1.2108
  146SAPE   C2416042   5.732   1.556  10.204  0.5682  0.9758  0.7508
  146SAPE   H4R16043   5.796   1.620  10.270 -0.9360  1.8766  1.3898
  146SAPE   H4S16044   5.748   1.572  10.095 -1.3047 -1.8625 -0.0493
  146SAPE   C2516045   5.765   1.413  10.234  0.1245 -0.1233  0.5831
  146SAPE   H5R16046   5.805   1.405  10.336 -2.8492 -0.1329  1.8397
  146SAPE   C2616047   5.745   1.304  10.159  0.3225  0.3407  0.5653
  146SAPE   H6R16048   5.768   1.205  10.200 -0.7218 -0.0433  0.2569
  146SAPE   C2716049   5.668   1.308  10.026  0.0438  0.1712  0.2056
  146SAPE   H7R16050   5.691   1.397   9.964 -0.7663  1.7157  2.0364
  146SAPE   H7S16051   5.560   1.313  10.051 -0.4260  0.6262 -1.7113
  146SAPE   C2816052   5.675   1.183   9.942 -0.1904  0.4850  0.9687
  146SAPE   H8R16053   5.689   1.095  10.006 -1.3297  0.4788  1.2150
  146SAPE   C2916054   5.696   1.157   9.808  0.1017 -0.4288  0.2207
  146SAPE   H9R16055   5.700   1.052   9.776 -2.1265 -0.4161 -0.2848
  146SAPE  C21016056   5.701   1.258   9.693  0.7468  0.2984 -0.5001
  146SAPE  H10R16057   5.811   1.265   9.674  0.5022  0.5911 -1.9330
  146SAPE  H10S16058   5.672   1.356   9.736  2.0185  0.4413  0.0820
  146SAPE  C21116059   5.644   1.233   9.561 -0.1736  0.4410 -0.2915
  146SAPE  H11R16060   5.570   1.152   9.552 -0.7460  0.9745 -0.4263
  146SAPE  C21216061   5.665   1.303   9.449  0.3822  0.0493  0.5119
  146SAPE  H12R16062   5.608   1.274   9.360  1.1428  3.0642 -1.1108
  146SAPE  C21316063   5.749   1.428   9.432 -0.3246  0.6291  0.3061
  146SAPE  H13R16064   5.854   1.392   9.418 -0.5391  0.3568 -0.6951
  146SAPE  H13S16065   5.757   1.493   9.522  1.5697  0.5371  0.2498
  146SAPE  C21416066   5.703   1.503   9.312 -0.1974 -0.4109  0.7309
  146SAPE  H14R16067   5.627   1.580   9.330  0.6364  0.6192 -0.0650
  146SAPE  C21516068   5.742   1.494   9.191 -0.0334  0.4053  0.1155
  146SAPE  H15R16069   5.685   1.555   9.120  1.1825 -0.0423 -1.2952
  146SAPE  C21616070   5.841   1.392   9.139  0.4612  0.4053  0.1342
  146SAPE  H16R16071   5.891   1.333   9.219 -2.0724 -1.2072  0.6589
  146SAPE  H16S16072   5.925   1.442   9.086  1.1488 -0.2046  0.6206
  146SAPE  C21716073   5.793   1.286   9.038 -0.1229 -0.5050  0.1406
  146SAPE  H17R16074   5.717   1.222   9.087 -1.0648 -0.7992 -1.6449
  146SAPE  H17S16075   5.876   1.221   9.002  2.2235  1.1434  2.1831
  146SAPE  C21816076   5.720   1.340   8.908  0.7372 -0.4199  0.1132
  146SAPE  H18R16077   5.796   1.378   8.836  0.3615  0.8773  0.3726
  146SAPE  H18S16078   5.653   1.423   8.939 -0.9855 -1.9472  0.6591
  146SAPE  C21916079   5.639   1.233   8.833  0.4441  0.5124 -0.2627
  146SAPE  H19R16080   5.588   1.271   8.741  0.8505  0.7183 -0.4067
  146SAPE  H19S16081   5.558   1.197   8.899  1.3435  0.2118  0.6968
  146SAPE  C22016082   5.727   1.116   8.791  0.5903  0.2693  0.2022
  146SAPE  H20R16083   5.662   1.034   8.754  0.1362  0.3206  0.8651
  146SAPE  H20S16084   5.782   1.075   8.879  1.1605  3.7811  1.6679
  146SAPE  H20T16085   5.793   1.147   8.707  1.4654  0.2711  0.8681
  146SAPE   C3316086   5.379   2.183   9.904  0.0857 -0.3243  0.0566
  146SAPE   H3X16087   5.392   2.283   9.857 -1.5590 -0.7071 -1.3374
  146SAPE   H3Y16088   5.279   2.139   9.887 -0.6826  0.6788  1.7108
  146SAPE   C3416089   5.475   2.092   9.825  1.0676  0.6635 -0.3949
  146SAPE   H4X16090   5.468   1.991   9.871  2.4016  0.5324 -0.4209
  146SAPE   H4Y16091   5.581   2.125   9.831  1.0470  0.5316  0.9590
  146SAPE   C3516092   5.431   2.085   9.673 -0.0038 -0.3788 -0.9687
  146SAPE   H5X16093   5.397   2.187   9.644 -2.9444 -0.9731  0.0154
  146SAPE   H5Y16094   5.348   2.011   9.664 -1.2410  0.9224 -0.6607
  146SAPE   C3616095   5.541   2.035   9.587  0.1017 -0.2407  0.8665
  146SAPE   H6X16096   5.542   1.926   9.608 -2.3538 -0.9200 -1.8880
  146SAPE   H6Y16097   5.639   2.079   9.616 -0.4380  0.2463  2.0306
  146SAPE   C3716098   5.504   2.047   9.437  0.5498 -0.4582 -0.4693
  146SAPE   H7X16099   5.495   2.156   9.416  0.4670 -0.5738 -1.0242
  146SAPE   H7Y16100   5.409   1.994   9.415 -0.2890  1.3094 -1.2979
  146SAPE   C3816101   5.610   1.986   9.348  0.2689  0.0902 -0.1936
  146SAPE   H8X16102   5.622   1.881   9.382  0.7662  0.1180 -0.2682
  146SAPE   H8Y16103   5.705   2.038   9.374  0.0102 -0.1523  1.2991
  146SAPE   C3916104   5.583   2.012   9.202  0.2246  0.3241  0.9211
  146SAPE   H9X16105   5.558   2.116   9.175 -1.5264 -0.5893 -1.2757
  146SAPE   H9Y16106   5.507   1.951   9.150 -0.7923  1.7774  0.6594
  146SAPE  C31016107   5.704   1.975   9.120  0.1860  0.6237 -0.3360
  146SAPE  H10X16108   5.722   1.868   9.145 -1.1772  0.5759  0.5203
  146SAPE  H10Y16109   5.788   2.029   9.168 -0.8287  0.4746  1.7061
  146SAPE  C31116110   5.685   2.007   8.971 -0.0408  0.7599  0.2663
  146SAPE  H11X16111   5.661   2.114   8.958 -2.5304  0.2728  0.3402
  146SAPE  H11Y16112   5.590   1.966   8.931 -0.0840  1.0647  0.0522
  146SAPE  C31216113   5.795   1.949   8.877  0.0689 -0.0851 -0.7663
  146SAPE  H12X16114   5.785   1.838   8.876 -2.3262  0.0695 -0.6122
  146SAPE  H12Y16115   5.890   1.986   8.921  0.0542 -1.1397  0.2086
  146SAPE  C31316116   5.784   1.999   8.735 -0.4592 -0.5528  0.1572
  146SAPE  H13X16117   5.808   2.107   8.739  0.0478 -0.5900 -1.3861
  146SAPE  H13Y16118   5.675   1.991   8.712 -0.5508  1.2060 -0.1033
  146SAPE  C31416119   5.881   1.915   8.645  0.8956  0.1441 -0.3089
  146SAPE  H14X16120   5.982   1.925   8.690  0.7317  0.4602  0.0007
  146SAPE  H14Y16121   5.885   1.966   8.546 -0.6892  1.6658  0.3389
  146SAPE  C31516122   5.857   1.761   8.621  0.4288 -1.1306 -0.7894
  146SAPE  H15X16123   5.866   1.706   8.717 -0.2455 -2.1028 -1.2656
  146SAPE  H15Y16124   5.949   1.726   8.570  0.9692  0.5070 -1.0115
  146SAPE  C31616125   5.727   1.723   8.551  1.1525  0.3131 -0.1753
  146SAPE  H16X16126   5.732   1.767   8.449 -3.5669  0.5564 -0.5209
  146SAPE  H16Y16127   5.638   1.768   8.598  1.3771  0.2896  0.2754
  146SAPE  C31716128   5.707   1.574   8.548  0.0024 -0.2428 -0.7630
  146SAPE  H17X16129   5.679   1.549   8.653  1.6233 -1.3937 -0.5649
  146SAPE  H17Y16130   5.807   1.529   8.532 -0.6595 -1.9318 -0.4276
  146SAPE  C31816131   5.596   1.529   8.460  0.4222 -0.3195  0.0280
  146SAPE  H18X16132   5.500   1.560   8.506  0.6430 -0.6659  0.7430
  146SAPE  H18Y16133   5.594   1.418   8.452  1.3956 -0.2595 -1.3282
  146SAPE  H18Z16134   5.613   1.567   8.357 -1.9687 -1.3224 -0.8109
  147SAPE     N16135   2.005   5.840   6.182 -0.2610  0.1519  0.6709
  147SAPE   HN116136   1.981   5.773   6.258 -1.5433 -1.7680 -1.3024
  147SAPE   HN216137   2.086   5.897   6.213 -2.7413  2.4409  3.5114
  147SAPE   HN316138   1.927   5.909   6.176 -0.9651 -0.4720  2.2722
  147SAPE   C1216139   2.033   5.774   6.056 -0.0301 -0.7148  0.5693
  147SAPE  H12A16140   2.032   5.858   5.984 -0.3367  2.3046  3.7879
  147SAPE  H12B16141   1.955   5.699   6.031 -0.2768 -1.3652  3.0028
  147SAPE   C1116142   2.170   5.708   6.042  0.0509  0.9395  0.1717
  147SAPE  H11A16143   2.243   5.783   6.080  0.7182  0.9147 -1.0091
  147SAPE  H11B16144   2.192   5.694   5.934 -1.5008  0.9556 -0.1638
  147SAPE     P16145   2.310   5.499   6.100 -0.0225  0.2246 -0.0345
  147SAPE   O1316146   2.277   5.358   6.098  0.1796 -0.3632  0.1509
  147SAPE   O1416147   2.392   5.549   5.990  0.7421 -0.6192  0.1940
  147SAPE   O1216148   2.178   5.583   6.116 -0.7289  0.2666  0.5097
  147SAPE   O1116149   2.384   5.528   6.239 -0.0836 -0.5455 -0.2586
  147SAPE    C116150   2.327   5.590   6.358  0.6150 -0.2805 -0.5390
  147SAPE    HA16151   2.357   5.697   6.362  0.2349 -0.0200 -3.0973
  147SAPE    HB16152   2.216   5.588   6.353  0.6217  0.3696 -1.1271
  147SAPE    C216153   2.364   5.518   6.493 -0.8122 -0.1758 -0.1234
  147SAPE    HS16154   2.344   5.585   6.579  1.5562 -0.1753  0.5112
  147SAPE   O2116155   2.506   5.482   6.501  0.2285 -0.3301  0.1949
  147SAPE   C2116156   2.581   5.592   6.535 -0.1100  0.1220 -0.6234
  147SAPE   O2216157   2.536   5.707   6.549  0.7378  0.0554 -0.1482
  147SAPE   C2216158   2.726   5.561   6.548  0.1755  0.8090 -0.2583
  147SAPE   H2R16159   2.775   5.587   6.452  0.8804  0.3289 -0.0430
  147SAPE   H2S16160   2.774   5.633   6.618  0.7516 -0.2161  0.4386
  147SAPE    C316161   2.272   5.395   6.498 -0.1955  0.8036 -0.4062
  147SAPE    HX16162   2.296   5.328   6.412 -2.5252 -2.1917  1.0527
  147SAPE    HY16163   2.166   5.427   6.483 -0.3745 -0.3990 -1.9805
  147SAPE   O3116164   2.292   5.304   6.608 -0.2697 -0.2049 -0.2129
  147SAPE   C3116165   2.211   5.334   6.714  0.8176  0.1812  0.4386
  147SAPE   O3216166   2.146   5.435   6.725  0.6166  0.2014  0.3741
  147SAPE   C3216167   2.240   5.221   6.826  0.0662 -0.2439  0.1033
  147SAPE   H2X16168   2.348   5.234   6.845 -0.1588  1.6421  0.2928
  147SAPE   H2Y16169   2.217   5.116   6.797  2.9885 -1.2380  1.0908
  147SAPE   C2316170   2.760   5.407   6.585  0.4313 -0.1873  0.1365
  147SAPE   H3R16171   2.861   5.377   6.550 -0.2447 -0.2911 -1.8555
  147SAPE   H3S16172   2.696   5.349   6.515 -0.0971  2.6580 -1.9251
  147SAPE   C2416173   2.727   5.359   6.732 -0.5392 -0.2783  0.0314
  147SAPE   H4R16174   2.805   5.414   6.790  1.7854  0.4446 -3.4927
  147SAPE   H4S16175   2.755   5.254   6.751  0.8280  0.2787  1.2948
  147SAPE   C2516176   2.582   5.387   6.778  0.0738  0.1778 -0.1618
  147SAPE   H5R16177   2.504   5.334   6.722 -0.9096 -0.8371  2.0856
  147SAPE   C2616178   2.543   5.451   6.886  0.3399  0.2421  0.3563
  147SAPE   H6R16179   2.434   5.461   6.893  0.1544 -1.7179  0.8418
  147SAPE   C2716180   2.633   5.513   6.980 -0.2590 -0.8532 -0.5877
  147SAPE   H7R16181   2.579   5.595   7.031  0.9187 -1.2774  1.4523
  147SAPE   H7S16182   2.713   5.568   6.924 -0.2692 -0.0317  0.1791
  147SAPE   C2816183   2.698   5.427   7.081  0.3200  0.1367 -0.2551
  147SAPE   H8R16184   2.795   5.390   7.045 -0.2810 -0.3429 -1.4147
  147SAPE   C2916185   2.655   5.407   7.209  0.3671  0.2137 -0.7316
  147SAPE   H9R16186   2.691   5.323   7.269  1.4652  1.7613  0.9071
  147SAPE  C21016187   2.522   5.451   7.266  0.0497 -0.0788  0.5788
  147SAPE  H10R16188   2.482   5.372   7.333 -0.8581  0.5470  0.7944
  147SAPE  H10S16189   2.440   5.451   7.190 -1.7321 -1.0712  2.4009
  147SAPE  C21116190   2.538   5.587   7.334 -0.1454  0.2218  0.0825
  147SAPE  H11R16191   2.640   5.629   7.336  0.1402 -0.5081  1.0747
  147SAPE  C21216192   2.431   5.660   7.379  0.8918  0.1774 -0.1178
  147SAPE  H12R16193   2.462   5.753   7.427  1.3978 -0.0385 -0.0193
  147SAPE  C21316194   2.284   5.629   7.387 -0.7296 -0.6594 -0.0202
  147SAPE  H13R16195   2.260   5.548   7.315  1.5062 -1.8372  0.4602
  147SAPE  H13S16196   2.222   5.719   7.365  1.0140  0.1164 -2.0514
  147SAPE  C21416197   2.245   5.581   7.522  0.3097  0.0700 -1.0268
  147SAPE  H14R16198   2.210   5.477   7.519 -2.4517  0.8760  0.2007
  147SAPE  C21516199   2.226   5.664   7.625 -0.4250  0.7600  0.2303
  147SAPE  H15R16200   2.186   5.624   7.720 -1.4981  0.5399 -0.3010
  147SAPE  C21616201   2.271   5.808   7.640  0.1243 -0.4070 -0.2228
  147SAPE  H16R16202   2.354   5.849   7.578 -0.4648  1.2225  0.0073
  147SAPE  H16S16203   2.321   5.820   7.739 -0.6715 -1.8465  0.3836
  147SAPE  C21716204   2.153   5.914   7.625 -1.0457 -0.6538  0.3747
  147SAPE  H17R16205   2.074   5.865   7.686 -2.1841 -0.1036 -0.6116
  147SAPE  H17S16206   2.118   5.923   7.519 -0.1078  1.5113  0.2083
  147SAPE  C21816207   2.192   6.053   7.681 -0.0024  0.0676  0.1845
  147SAPE  H18R16208   2.262   6.102   7.611 -0.4392  0.9256  0.3350
  147SAPE  H18S16209   2.243   6.048   7.780 -0.1526  2.5306  0.4576
  147SAPE  C21916210   2.071   6.151   7.703 -0.1417 -0.0377 -0.1378
  147SAPE  H19R16211   2.001   6.109   7.778 -1.7974  2.2790 -0.2784
  147SAPE  H19S16212   2.005   6.164   7.614  0.4662  0.4348 -0.5233
  147SAPE  C22016213   2.114   6.293   7.755 -0.5187 -0.6334 -0.3232
  147SAPE  H20R16214   2.171   6.344   7.674 -0.6484  1.0949  0.6203
  147SAPE  H20S16215   2.190   6.289   7.836  1.7454 -1.0527 -2.3624
  147SAPE  H20T16216   2.019   6.341   7.788  0.4604 -0.8007  3.2006
  147SAPE   C3316217   2.160   5.256   6.955  0.4822 -0.3104  0.5640
  147SAPE   H3X16218   2.052   5.261   6.932  0.4155 -3.8402 -0.4531
  147SAPE   H3Y16219   2.192   5.358   6.984  1.1176 -0.5122  0.6059
  147SAPE   C3416220   2.185   5.166   7.080 -0.1238 -0.3171  0.4607
  147SAPE   H4X16221   2.294   5.165   7.103 -0.0574 -1.2829  0.1460
  147SAPE   H4Y16222   2.152   5.064   7.052  2.1787 -0.4591 -2.1382
  147SAPE   C3516223   2.106   5.205   7.209 -0.3847 -1.0747 -0.0081
  147SAPE   H5X16224   2.000   5.226   7.186 -0.1220  1.6223  0.8395
  147SAPE   H5Y16225   2.136   5.304   7.251 -0.6163 -1.0110  0.0105
  147SAPE   C3616226   2.108   5.087   7.306 -0.0429  0.2230  0.2979
  147SAPE   H6X16227   2.208   5.060   7.346 -0.6545  0.1264  1.8318
  147SAPE   H6Y16228   2.061   5.001   7.252  1.7844  0.2547 -1.4597
  147SAPE   C3716229   2.022   5.126   7.425 -0.5594  0.5712  0.3033
  147SAPE   H7X16230   1.916   5.144   7.398 -1.2247 -2.6593  0.3608
  147SAPE   H7Y16231   2.061   5.223   7.461 -1.1346  0.3926  1.4503
  147SAPE   C3816232   2.022   5.010   7.521 -0.0581 -0.2564  0.0484
  147SAPE   H8X16233   2.124   4.991   7.562 -0.7917 -2.9972  0.8135
  147SAPE   H8Y16234   2.006   4.911   7.474  3.3235 -1.0637  0.2985
  147SAPE   C3916235   1.938   5.028   7.644  0.4395 -0.4773 -0.3042
  147SAPE   H9X16236   1.829   5.028   7.623  0.1052 -0.1656  1.2517
  147SAPE   H9Y16237   1.956   5.125   7.696 -2.2029  0.1910 -0.4953
  147SAPE  C31016238   1.951   4.925   7.757 -0.1820 -0.2595 -0.4433
  147SAPE  H10X16239   2.048   4.897   7.802  1.4163  1.8002 -2.3489
  147SAPE  H10Y16240   1.929   4.828   7.707 -1.9647 -0.7732  1.2289
  147SAPE  C31116241   1.858   4.939   7.873 -0.0039  0.8471  0.2042
  147SAPE  H11X16242   1.860   4.844   7.930  0.5384  1.9966  2.2033
  147SAPE  H11Y16243   1.750   4.944   7.847  0.0257 -0.5516 -0.2811
  147SAPE  C31216244   1.881   5.064   7.966 -0.3848 -0.1419 -0.1011
  147SAPE  H12X16245   1.845   5.157   7.917  1.6332  0.3560 -0.7148
  147SAPE  H12Y16246   1.992   5.073   7.973 -0.3236 -1.4479  1.2633
  147SAPE  C31316247   1.829   5.055   8.113 -0.4069 -0.7304  0.4649
  147SAPE  H13X16248   1.866   5.136   8.180 -0.2880  0.1731 -0.6723
  147SAPE  H13Y16249   1.882   4.964   8.149 -0.8533 -1.2231 -0.0978
  147SAPE  C31416250   1.675   5.037   8.125 -0.7838 -0.7833 -0.0466
  147SAPE  H14X16251   1.651   4.956   8.052  0.5536 -1.1437 -0.1086
  147SAPE  H14Y16252   1.622   5.126   8.086  1.2361  0.0065 -1.1141
  147SAPE  C31516253   1.618   4.988   8.257  0.0104 -0.1516  0.0629
  147SAPE  H15X16254   1.687   4.918   8.309  1.3291  2.0076  1.3961
  147SAPE  H15Y16255   1.536   4.916   8.241  0.3974 -0.7464  0.6881
  147SAPE  C31616256   1.568   5.096   8.359 -0.1762  0.1999  0.6239
  147SAPE  H16X16257   1.482   5.154   8.320  1.5614  1.5623 -1.4535
  147SAPE  H16Y16258   1.650   5.171   8.366 -1.5024  1.9048 -0.8788
  147SAPE  C31716259   1.549   5.039   8.498 -0.7348 -0.3950  0.2303
  147SAPE  H17X16260   1.639   4.985   8.534  1.4940  1.2178 -2.5021
  147SAPE  H17Y16261   1.462   4.971   8.482 -0.7533  0.1879 -2.8330
  147SAPE  C31816262   1.498   5.140   8.593  0.3224  0.2632  0.1213
  147SAPE  H18X16263   1.412   5.182   8.536 -1.0003 -1.8233  0.4488
  147SAPE  H18Y16264   1.568   5.224   8.611 -0.0684  0.7276 -0.4812
  147SAPE  H18Z16265   1.466   5.087   8.686 -0.0749 -2.9703 -1.7021
  148SAPE     N16266   1.723   4.232   6.058 -0.3001  0.0037 -0.6224
  148SAPE   HN116267   1.824   4.248   6.079 -0.7407  1.7368  0.3890
  148SAPE   HN216268   1.717   4.178   5.969  0.4941  0.0919 -0.7381
  148SAPE   HN316269   1.674   4.322   6.038 -1.0781 -1.0084 -3.8255
  148SAPE   C1216270   1.646   4.138   6.157 -0.3341 -0.2002 -0.5114
  148SAPE  H12A16271   1.668   4.175   6.260  2.5718  0.2098 -1.1817
  148SAPE  H12B16272   1.690   4.037   6.143  1.2479  0.3756  0.0785
  148SAPE   C1116273   1.501   4.123   6.117  0.6481  0.1864 -0.5717
  148SAPE  H11A16274   1.448   4.079   6.205  1.6779 -2.7500 -1.3141
  148SAPE  H11B16275   1.482   4.054   6.032  0.3465 -0.0713 -0.2982
  148SAPE     P16276   1.320   4.323   6.115  0.0735 -0.0483 -0.3877
  148SAPE   O1316277   1.356   4.460   6.169  0.5422 -0.3106 -0.1630
  148SAPE   O1416278   1.225   4.322   6.002 -0.2825  0.1132  1.0308
  148SAPE   O1216279   1.450   4.251   6.066  0.2516 -0.2596 -0.0607
  148SAPE   O1116280   1.259   4.237   6.238  0.0294  0.2425  0.4625
  148SAPE    C116281   1.151   4.286   6.321  0.1493  0.8522 -0.4877
  148SAPE    HA16282   1.124   4.393   6.305 -0.3879  1.3356  2.8326
  148SAPE    HB16283   1.058   4.227   6.305  0.5619  0.1891 -0.5092
  148SAPE    C216284   1.191   4.259   6.472 -0.4525 -0.0973  0.3535
  148SAPE    HS16285   1.106   4.296   6.533  0.5600 -0.7959  2.2718
  148SAPE   O2116286   1.312   4.316   6.511 -0.4382 -0.4579  0.1488
  148SAPE   C2116287   1.293   4.455   6.522 -0.9919 -0.0219  0.9073
  148SAPE   O2216288   1.183   4.504   6.533 -0.1410 -0.0950 -0.1060
  148SAPE   C2216289   1.421   4.533   6.492  0.2565  0.2964  0.1632
  148SAPE   H2R16290   1.468   4.477   6.408  0.8500  0.2970  0.4898
  148SAPE   H2S16291   1.398   4.637   6.459 -1.0170 -0.0329 -0.0310
  148SAPE    C316292   1.209   4.107   6.496  0.1583  0.1273  0.1101
  148SAPE    HX16293   1.297   4.088   6.430 -0.4252 -0.2530 -0.5647
  148SAPE    HY16294   1.135   4.035   6.457 -0.1074 -1.3852  3.1037
  148SAPE   O3116295   1.229   4.087   6.643  0.0889  0.3853 -0.0854
  148SAPE   C3116296   1.294   3.971   6.671  0.0877 -0.2963  0.0340
  148SAPE   O3216297   1.339   3.897   6.588 -0.0291 -0.4306  0.1598
  148SAPE   C3216298   1.292   3.950   6.816 -0.0106 -0.0664  0.2300
  148SAPE   H2X16299   1.348   3.858   6.841 -0.7586 -0.7798 -0.6262
  148SAPE   H2Y16300   1.188   3.928   6.847 -0.5780  0.2030 -1.3660
  148SAPE   C2316301   1.525   4.534   6.603  0.3757 -0.5949  0.1897
  148SAPE   H3R16302   1.630   4.530   6.568  0.1090  1.0002 -0.8729
  148SAPE   H3S16303   1.520   4.445   6.670  0.9785 -0.1608  0.8356
  148SAPE   C2416304   1.514   4.656   6.706  0.4342  0.3518  0.2598
  148SAPE   H4R16305   1.562   4.634   6.804 -2.5266 -0.0275  1.7702
  148SAPE   H4S16306   1.407   4.671   6.733  0.1818  0.4314 -0.7494
  148SAPE   C2516307   1.571   4.783   6.650  0.3283  0.0326  0.1154
  148SAPE   H5R16308   1.642   4.783   6.566 -0.0898 -0.3245 -0.2429
  148SAPE   C2616309   1.516   4.903   6.664 -0.6947 -0.0461  0.7201
  148SAPE   H6R16310   1.556   4.988   6.607  0.2153 -0.8004  0.2120
  148SAPE   C2716311   1.408   4.941   6.764 -0.5783  0.0340 -0.1320
  148SAPE   H7R16312   1.448   5.032   6.815  0.2835 -0.7894  0.6979
  148SAPE   H7S16313   1.397   4.863   6.842  0.9817 -0.2651 -0.1835
  148SAPE   C2816314   1.273   4.974   6.702  0.3349 -0.1418  0.9951
  148SAPE   H8R16315   1.270   5.066   6.642  1.7491  0.6324  2.0329
  148SAPE   C2916316   1.158   4.912   6.717 -0.3023 -0.0017 -0.5744
  148SAPE   H9R16317   1.073   4.965   6.673 -2.1385 -0.8373  1.6993
  148SAPE  C21016318   1.129   4.783   6.794 -0.3678 -0.2915  0.5318
  148SAPE  H10R16319   1.201   4.708   6.755 -0.1883  0.4152 -0.5509
  148SAPE  H10S16320   1.032   4.743   6.756  0.1266 -0.7007 -0.3541
  148SAPE  C21116321   1.118   4.782   6.941  0.4298  0.0673 -0.4471
  148SAPE  H11R16322   1.051   4.858   6.983  1.9779 -0.7076  3.9382
  148SAPE  C21216323   1.158   4.683   7.022  0.2674  0.3220 -0.7101
  148SAPE  H12R16324   1.117   4.678   7.123  0.2786 -0.6327 -0.7475
  148SAPE  C21316325   1.249   4.569   6.984 -0.0652  0.6231 -0.3665
  148SAPE  H13R16326   1.320   4.551   7.068  1.4421  0.5070 -1.6185
  148SAPE  H13S16327   1.322   4.593   6.904 -0.5799  0.2605 -0.9507
  148SAPE  C21416328   1.180   4.438   6.958 -0.3837 -0.2715 -0.2336
  148SAPE  H14R16329   1.152   4.419   6.853 -2.0724  2.3191 -0.3253
  148SAPE  C21516330   1.139   4.352   7.055  0.3703  0.6428  0.3976
  148SAPE  H15R16331   1.082   4.262   7.027 -1.0687  0.9003  2.2948
  148SAPE  C21616332   1.179   4.348   7.203  0.1271  0.3768 -0.1576
  148SAPE  H16R16333   1.194   4.451   7.243 -0.1000  0.7177 -0.9412
  148SAPE  H16S16334   1.285   4.317   7.218  0.7071  2.5461  0.6368
  148SAPE  C21716335   1.104   4.256   7.304 -0.0553 -0.1845  0.3172
  148SAPE  H17R16336   1.106   4.147   7.281 -1.3721 -0.2311  0.3659
  148SAPE  H17S16337   0.998   4.288   7.303 -0.6105 -1.8853  1.1543
  148SAPE  C21816338   1.136   4.286   7.450 -0.3225 -0.5080  0.3402
  148SAPE  H18R16339   1.134   4.397   7.442  4.5604 -0.3197 -2.3002
  148SAPE  H18S16340   1.240   4.255   7.472 -0.6946 -0.3856  2.5098
  148SAPE  C21916341   1.043   4.226   7.552  0.0051 -0.4415  0.8427
  148SAPE  H19R16342   1.057   4.116   7.543 -0.7622 -0.5059  0.3694
  148SAPE  H19S16343   0.941   4.261   7.523  0.7411  1.3975  0.2896
  148SAPE  C22016344   1.066   4.276   7.694 -0.0863  0.2360 -0.4703
  148SAPE  H20R16345   1.169   4.243   7.719 -0.6075 -0.6816  0.5162
  148SAPE  H20S16346   1.020   4.231   7.784  3.8659  0.4895  1.9105
  148SAPE  H20T16347   1.063   4.387   7.704 -0.7155  0.3010 -1.2602
  148SAPE   C3316348   1.362   4.058   6.912  0.2251 -0.3075  0.2886
  148SAPE   H3X16349   1.332   4.163   6.891 -1.3366 -0.9428 -0.9390
  148SAPE   H3Y16350   1.472   4.058   6.899  0.0042  0.1733 -2.0014
  148SAPE   C3416351   1.333   4.025   7.057 -0.3169 -0.0675 -0.9756
  148SAPE   H4X16352   1.222   4.016   7.058 -0.1699 -2.7515 -1.4689
  148SAPE   H4Y16353   1.371   4.115   7.109 -0.2709  0.0150 -1.1507
  148SAPE   C3516354   1.404   3.903   7.113  0.0151  0.4226 -0.6320
  148SAPE   H5X16355   1.510   3.935   7.127 -0.3955  1.6340 -0.1553
  148SAPE   H5Y16356   1.385   3.819   7.043 -1.1616 -0.0457  0.2125
  148SAPE   C3616357   1.348   3.862   7.246  0.9078 -0.4071 -0.7830
  148SAPE   H6X16358   1.405   3.769   7.265  1.0757 -0.0274  0.6429
  148SAPE   H6Y16359   1.243   3.838   7.217  1.0737  1.3636 -3.2235
  148SAPE   C3716360   1.361   3.967   7.356  0.1489 -0.3256  0.2102
  148SAPE   H7X16361   1.263   4.018   7.366 -0.1473 -0.8262 -0.0879
  148SAPE   H7Y16362   1.440   4.043   7.340 -0.7420  0.5973  0.1301
  148SAPE   C3816363   1.367   3.900   7.487  0.0789 -0.2973  0.1130
  148SAPE   H8X16364   1.440   3.818   7.499 -0.9452 -1.4584 -1.2386
  148SAPE   H8Y16365   1.273   3.842   7.500 -0.0133 -0.1192  0.2594
  148SAPE   C3916366   1.389   3.999   7.610 -0.2409  0.5669 -0.2672
  148SAPE   H9X16367   1.302   4.067   7.621 -1.0776 -0.4739 -0.3185
  148SAPE   H9Y16368   1.486   4.051   7.594 -1.0969  2.5914  0.7824
  148SAPE  C31016369   1.397   3.926   7.749  0.1720  0.0999  0.8306
  148SAPE  H10X16370   1.458   3.837   7.722 -1.1149  0.5223 -4.4271
  148SAPE  H10Y16371   1.289   3.910   7.765  0.0025  1.4919  1.2614
  148SAPE  C31116372   1.439   4.018   7.866 -0.1915  0.0325  0.5648
  148SAPE  H11X16373   1.374   4.107   7.864 -1.1543 -0.6639 -0.5182
  148SAPE  H11Y16374   1.547   4.041   7.851 -0.4170  0.9640  0.3687
  148SAPE  C31216375   1.433   3.949   8.005 -0.0007  0.1238 -0.6838
  148SAPE  H12X16376   1.468   4.023   8.080  0.3708  1.0579 -1.7483
  148SAPE  H12Y16377   1.502   3.863   7.994 -0.1806 -0.4198  1.8279
  148SAPE  C31316378   1.295   3.904   8.052  0.0390  0.4126  0.2233
  148SAPE  H13X16379   1.249   3.826   7.988 -0.5985  3.5748 -3.6044
  148SAPE  H13Y16380   1.228   3.991   8.035 -0.3648 -0.2090 -1.6474
  148SAPE  C31416381   1.292   3.873   8.202 -0.5508 -0.1795 -0.0954
  148SAPE  H14X16382   1.193   3.826   8.219 -0.1199 -0.9092  0.5046
  148SAPE  H14Y16383   1.318   3.964   8.261  1.1030  0.1383 -1.2422
  148SAPE  C31516384   1.396   3.758   8.245 -0.4483 -0.8285 -0.4502
  148SAPE  H15X16385   1.496   3.802   8.228 -2.2034  4.1485  0.5945
  148SAPE  H15Y16386   1.384   3.673   8.174 -0.8528  0.4169 -1.9117
  148SAPE  C31616387   1.403   3.716   8.387 -0.0261 -0.1399 -0.7109
  148SAPE  H16X16388   1.331   3.637   8.415 -0.5083  0.5262 -0.0461
  148SAPE  H16Y16389   1.370   3.797   8.455 -2.8329 -1.5900 -0.1922
  148SAPE  C31716390   1.534   3.659   8.434  0.1836  0.0502  0.1404
  148SAPE  H17X16391   1.612   3.738   8.421  1.8309 -1.0754  2.3875
  148SAPE  H17Y16392   1.569   3.571   8.375 -1.3564 -0.0791 -0.6095
  148SAPE  C31816393   1.531   3.624   8.586 -0.5234  0.0971  0.2990
  148SAPE  H18X16394   1.630   3.607   8.633 -0.5021 -1.7403 -0.3100
  148SAPE  H18Y16395   1.463   3.540   8.611 -0.3956  0.2590  1.2157
  148SAPE  H18Z16396   1.477   3.708   8.633 -2.1716 -0.7097 -0.0872
  149SAPE     N16397   0.816   5.571   6.534  0.5659 -0.3039  0.2419
  149SAPE   HN116398   0.775   5.661   6.502  1.2177  0.4828  1.5001
  149SAPE   HN216399   0.879   5.606   6.609 -0.4101  0.4167  0.7559
  149SAPE   HN316400   0.866   5.527   6.455  0.5202  1.8071 -1.0236
  149SAPE   C1216401   0.708   5.486   6.599 -0.0840 -0.1609 -0.3277
  149SAPE  H12A16402   0.677   5.545   6.688  2.0545  0.2599  0.1867
  149SAPE  H12B16403   0.752   5.393   6.640  0.1337  0.6132  1.2422
  149SAPE   C1116404   0.592   5.459   6.492  0.2707  0.7691 -0.3382
  149SAPE  H11A16405   0.557   5.558   6.457  2.3062  1.7671  0.2785
  149SAPE  H11B16406   0.511   5.403   6.544  1.9933 -2.4921 -0.8757
  149SAPE     P16407   0.563   5.258   6.324 -0.2005  0.0693 -0.4498
  149SAPE   O1316408   0.568   5.270   6.174 -0.7795 -0.4514  0.0712
  149SAPE   O1416409   0.625   5.137   6.383  0.1624 -0.0476  0.0728
  149SAPE   O1216410   0.633   5.377   6.387 -0.2177 -0.0995  0.2157
  149SAPE   O1116411   0.409   5.281   6.373 -0.2662 -0.4988 -0.3120
  149SAPE    C116412   0.323   5.179   6.428 -0.1871 -0.1638  0.2405
  149SAPE    HA16413   0.218   5.192   6.392  0.8692  2.7501 -2.2358
  149SAPE    HB16414   0.363   5.084   6.389  0.3405 -0.0767  0.5691
  149SAPE    C216415   0.320   5.177   6.585  0.5476  0.4679 -0.1237
  149SAPE    HS16416   0.234   5.114   6.618  1.1245  0.2561  1.0091
  149SAPE   O2116417   0.300   5.303   6.651 -0.2018  0.2184 -0.4418
  149SAPE   C2116418   0.179   5.359   6.625  0.2842 -0.3598  0.3590
  149SAPE   O2216419   0.095   5.318   6.551  0.1145  0.6036 -0.2347
  149SAPE   C2216420   0.159   5.479   6.721  0.6893  0.4131  0.4197
  149SAPE   H2R16421   0.052   5.501   6.702  0.9536  1.0319 -0.4163
  149SAPE   H2S16422   0.170   5.438   6.824 -0.9523 -1.4014 -0.0628
  149SAPE    C316423   0.444   5.098   6.632 -0.0728 -0.4996  0.0379
  149SAPE    HX16424   0.537   5.147   6.595 -1.2832  0.1842 -2.2983
  149SAPE    HY16425   0.433   5.005   6.571 -3.5280 -0.2574  0.1395
  149SAPE   O3116426   0.441   5.055   6.767 -0.3428 -0.5074  0.2215
  149SAPE   C3116427   0.482   5.145   6.841  0.0645  0.2356  0.0448
  149SAPE   O3216428   0.553   5.241   6.821 -0.7876 -0.4856 -0.0747
  149SAPE   C3216429   0.438   5.109   6.991 -0.2349 -0.2905  0.0004
  149SAPE   H2X16430   0.363   5.027   6.987 -1.9657  1.2228  0.3100
  149SAPE   H2Y16431   0.385   5.197   7.034 -1.9933 -0.5272 -1.6014
  149SAPE   C2316432   0.265   5.590   6.704  0.0195 -0.4829  0.1742
  149SAPE   H3R16433   0.289   5.637   6.606  1.5318  1.1031  1.2560
  149SAPE   H3S16434   0.360   5.550   6.745 -0.0838 -0.9593 -0.0482
  149SAPE   C2416435   0.223   5.716   6.788  0.6668 -0.6371  0.6084
  149SAPE   H4R16436   0.120   5.730   6.751  0.4730 -3.5598 -0.1492
  149SAPE   H4S16437   0.286   5.803   6.760 -2.9499  2.3413  0.9797
  149SAPE   C2516438   0.236   5.690   6.938  0.5550  0.2872 -0.5738
  149SAPE   H5R16439   0.185   5.600   6.975  0.7466 -0.0535 -1.1151
  149SAPE   C2616440   0.307   5.752   7.030 -0.1032  0.5941  0.3992
  149SAPE   H6R16441   0.297   5.724   7.136 -0.5210  0.6570  0.3782
  149SAPE   C2716442   0.384   5.875   7.008 -0.2136 -0.4978  0.0991
  149SAPE   H7R16443   0.433   5.874   6.908 -1.7789 -2.6107 -0.7022
  149SAPE   H7S16444   0.469   5.877   7.081 -0.3333 -1.2405  0.2667
  149SAPE   C2816445   0.310   6.003   7.028  0.6236  0.2955 -0.2314
  149SAPE   H8R16446   0.205   6.004   6.994  0.2574  0.6580  0.8848
  149SAPE   C2916447   0.348   6.102   7.107 -0.0310  0.2033 -0.6303
  149SAPE   H9R16448   0.280   6.187   7.124  2.2337  2.1602 -0.8813
  149SAPE  C21016449   0.472   6.112   7.191 -1.0113  0.0821  0.1052
  149SAPE  H10R16450   0.489   6.219   7.218 -1.0050  0.1610 -0.2085
  149SAPE  H10S16451   0.565   6.082   7.139 -1.1933  1.1777 -0.9133
  149SAPE  C21116452   0.464   6.028   7.314  0.5241  0.3153 -0.7368
  149SAPE  H11R16453   0.436   5.924   7.291 -1.6734  1.0126 -1.4538
  149SAPE  C21216454   0.475   6.062   7.441  0.7890  0.5741 -0.0590
  149SAPE  H12R16455   0.481   5.977   7.511 -4.4343  1.7895  2.3481
  149SAPE  C21316456   0.510   6.199   7.490  0.1037 -0.1626  0.3902
  149SAPE  H13R16457   0.557   6.266   7.415 -0.7731 -0.0674 -0.0869
  149SAPE  H13S16458   0.585   6.186   7.571 -1.3823 -1.9435  1.5347
  149SAPE  C21416459   0.390   6.269   7.555 -0.1904 -0.2322 -0.3008
  149SAPE  H14R16460   0.295   6.258   7.501 -0.2981 -0.8336 -0.0010
  149SAPE  C21516461   0.403   6.360   7.649  0.2928  0.1918  0.7814
  149SAPE  H15R16462   0.306   6.393   7.691  0.0282 -0.0586  0.3799
  149SAPE  C21616463   0.529   6.397   7.726  0.1434  0.3800  0.0170
  149SAPE  H16R16464   0.530   6.499   7.770 -1.0539  1.3123 -1.9859
  149SAPE  H16S16465   0.622   6.399   7.666 -0.3624 -1.4243 -0.8939
  149SAPE  C21716466   0.549   6.299   7.846 -0.5515 -0.7289 -0.4390
  149SAPE  H17R16467   0.554   6.201   7.794 -0.6604 -0.3867 -1.1036
  149SAPE  H17S16468   0.462   6.296   7.915 -2.4094  1.9875 -2.4427
  149SAPE  C21816469   0.687   6.318   7.914  0.6650  0.6976 -0.6657
  149SAPE  H18R16470   0.690   6.407   7.979  0.4109 -0.1880  0.5900
  149SAPE  H18S16471   0.764   6.324   7.834  2.3666  1.2421  0.9258
  149SAPE  C21916472   0.723   6.193   7.995 -0.4138 -0.2953 -0.5720
  149SAPE  H19R16473   0.711   6.104   7.930 -1.4332 -2.3681  2.2698
  149SAPE  H19S16474   0.648   6.192   8.077 -1.8216  1.0463 -1.7765
  149SAPE  C22016475   0.867   6.201   8.050  0.3467  0.3854 -0.7799
  149SAPE  H20R16476   0.869   6.281   8.127  0.2477 -2.1537  2.0249
  149SAPE  H20S16477   0.943   6.226   7.973 -0.7280  1.7267 -1.4303
  149SAPE  H20T16478   0.896   6.102   8.093 -1.0306 -0.5173 -1.8431
  149SAPE   C3316479   0.555   5.067   7.086  0.6378  0.0215  0.1546
  149SAPE   H3X16480   0.623   5.154   7.097 -1.6084  1.8377  0.4077
  149SAPE   H3Y16481   0.609   4.981   7.040  1.3963  1.1829 -1.1895
  149SAPE   C3416482   0.514   5.033   7.227  0.4137  0.0172  0.3143
  149SAPE   H4X16483   0.429   4.961   7.230 -0.3751  0.9016 -0.2367
  149SAPE   H4Y16484   0.463   5.122   7.271 -1.2509 -1.7438  2.1516
  149SAPE   C3516485   0.628   4.997   7.327 -0.1489 -0.5886  0.5541
  149SAPE   H5X16486   0.693   5.083   7.353 -1.1979  0.6979 -0.9233
  149SAPE   H5Y16487   0.688   4.916   7.280 -0.4250 -0.4858  0.0147
  149SAPE   C3616488   0.579   4.948   7.464  0.1646 -0.2571  0.5020
  149SAPE   H6X16489   0.653   4.929   7.544 -0.4683 -0.2962  1.0806
  149SAPE   H6Y16490   0.529   4.851   7.445 -0.3979  0.4909 -2.2852
  149SAPE   C3716491   0.463   5.029   7.525 -0.6025  0.5479 -0.2607
  149SAPE   H7X16492   0.386   5.030   7.446 -1.2542  0.2266  0.3608
  149SAPE   H7Y16493   0.494   5.133   7.552  0.5863  0.1469  0.0048
  149SAPE   C3816494   0.401   4.973   7.661 -0.3978 -0.0992  0.3977
  149SAPE   H8X16495   0.472   4.974   7.747  1.2912  2.2755 -0.8933
  149SAPE   H8Y16496   0.365   4.869   7.649  2.1267 -1.1501  1.3977
  149SAPE   C3916497   0.281   5.057   7.691  0.3551  0.3685  0.3165
  149SAPE   H9X16498   0.213   5.069   7.604  0.7800 -0.0204 -0.0785
  149SAPE   H9Y16499   0.313   5.163   7.706  0.0815  0.4744  0.1529
  149SAPE  C31016500   0.200   4.997   7.805  1.0652 -0.2514 -0.1803
  149SAPE  H10X16501   0.142   4.912   7.764  0.4315  0.4811 -0.8298
  149SAPE  H10Y16502   0.132   5.077   7.838  0.5194  0.3969 -2.6526
  149SAPE  C31116503   0.278   4.931   7.922 -0.1808  1.0674  1.0720
  149SAPE  H11X16504   0.350   5.004   7.965 -0.4734  2.1110 -0.1621
  149SAPE  H11Y16505   0.337   4.845   7.884  0.1894  2.0612 -0.7047
  149SAPE  C31216506   0.199   4.881   8.051 -0.3295  0.3211  0.0830
  149SAPE  H12X16507   0.129   4.805   8.012  0.0053 -0.3053  0.6664
  149SAPE  H12Y16508   0.150   4.965   8.104  2.1020  0.7674  1.8271
  149SAPE  C31316509   0.294   4.819   8.158 -0.5756 -0.0625  0.4917
  149SAPE  H13X16510   0.341   4.907   8.207 -0.9717 -0.5372  1.7746
  149SAPE  H13Y16511   0.364   4.748   8.108 -1.3523 -0.2369 -0.3682
  149SAPE  C31416512   0.235   4.736   8.265  0.5263  0.3869 -0.7876
  149SAPE  H14X16513   0.313   4.711   8.340 -1.4253 -3.9412  0.0411
  149SAPE  H14Y16514   0.212   4.636   8.222 -1.7637  0.0261  1.1043
  149SAPE  C31516515   0.117   4.797   8.351 -0.3369  0.7607  0.0042
  149SAPE  H15X16516   0.042   4.825   8.273  0.3192  1.8249 -0.2702
  149SAPE  H15Y16517   0.162   4.884   8.405  0.2047  0.9259 -0.6883
  149SAPE  C31616518   0.049   4.714   8.451  0.6234  0.1197 -0.1549
  149SAPE  H16X16519   0.114   4.677   8.533  1.2459 -1.3503 -1.2533
  149SAPE  H16Y16520   0.018   4.618   8.404 -2.3602  0.6586  0.5483
  149SAPE  C31716521  -0.081   4.766   8.516  0.2137  0.0301  0.6411
  149SAPE  H17X16522  -0.149   4.775   8.428  0.3821 -0.2727  0.4771
  149SAPE  H17Y16523  -0.054   4.859   8.569  2.0625 -1.4460  2.4323
  149SAPE  C31816524  -0.146   4.676   8.620 -0.1601  0.1409  0.3569
  149SAPE  H18X16525  -0.078   4.665   8.707  2.5732  0.2237 -1.6434
  149SAPE  H18Y16526  -0.144   4.571   8.584  3.3584  0.5636 -1.0096
  149SAPE  H18Z16527  -0.247   4.705   8.658 -0.2763  0.5211 -0.2422
  150SAPE     N16528   4.795   1.521   6.289 -0.3659  0.8201  0.2250
  150SAPE   HN116529   4.894   1.507   6.317  0.2709  2.3381 -1.0884
  150SAPE   HN216530   4.786   1.614   6.242 -0.4198  0.0094 -1.4478
  150SAPE   HN316531   4.748   1.542   6.379 -1.5723  0.6227 -0.3323
  150SAPE   C1216532   4.742   1.398   6.221  0.2140  0.2839  0.0390
  150SAPE  H12A16533   4.747   1.418   6.112 -0.0087  3.5431  0.5142
  150SAPE  H12B16534   4.633   1.386   6.240 -0.0733 -0.8306 -2.0528
  150SAPE   C1116535   4.833   1.279   6.246  0.0789  0.3533  0.6439
  150SAPE  H11A16536   4.776   1.185   6.228  2.1365 -1.2554  2.0809
  150SAPE  H11B16537   4.854   1.281   6.355  0.0214  2.1196  0.6384
  150SAPE     P16538   5.023   1.157   6.088 -0.1197  0.4379 -0.1470
  150SAPE   O1316539   4.914   1.079   6.022  0.4310  0.0117 -0.3976
  150SAPE   O1416540   5.132   1.201   5.998 -0.0219  0.2037  0.1380
  150SAPE   O1216541   4.957   1.283   6.168 -0.0899  0.3333  0.4288
  150SAPE   O1116542   5.083   1.049   6.197 -0.0677 -0.4569 -0.0384
  150SAPE    C116543   5.157   1.102   6.307 -0.5139  0.4905  0.4517
  150SAPE    HA16544   5.221   1.189   6.281  1.2017 -0.3253  1.6978
  150SAPE    HB16545   5.089   1.134   6.389 -1.0674  0.5636 -0.0383
  150SAPE    C216546   5.259   0.999   6.374 -0.9618 -0.7818 -0.4822
  150SAPE    HS16547   5.325   0.966   6.290 -0.7032  1.0773 -1.0637
  150SAPE   O2116548   5.193   0.884   6.430 -0.5362 -0.1905  0.0587
  150SAPE   C2116549   5.260   0.770   6.447  0.1522 -1.0885  0.2569
  150SAPE   O2216550   5.384   0.766   6.426 -0.2390  0.0547 -0.0328
  150SAPE   C2216551   5.174   0.648   6.473  0.8474  0.4935 -0.3714
  150SAPE   H2R16552   5.069   0.680   6.455  0.4820  0.2822  1.2925
  150SAPE   H2S16553   5.213   0.564   6.411 -1.1043 -0.4459 -0.3995
  150SAPE    C316554   5.362   1.073   6.477  0.2223  0.2627 -0.5392
  150SAPE    HX16555   5.380   1.167   6.422 -0.7199  1.1317  0.5896
  150SAPE    HY16556   5.448   1.003   6.487 -1.1129 -1.5371 -1.1495
  150SAPE   O3116557   5.297   1.090   6.601  0.1670 -0.5406  0.0245
  150SAPE   C3116558   5.355   1.037   6.704  0.5206  0.3052 -0.3488
  150SAPE   O3216559   5.452   0.960   6.706 -0.3179 -0.5073  0.2905
  150SAPE   C3216560   5.297   1.107   6.824 -0.1857 -0.1262  0.5583
  150SAPE   H2X16561   5.190   1.080   6.834  0.1530 -2.0550 -0.4867
  150SAPE   H2Y16562   5.302   1.216   6.804 -0.9018 -0.2987 -0.6834
  150SAPE   C2316563   5.187   0.599   6.623  0.2770 -0.0386 -0.3122
  150SAPE   H3R16564   5.290   0.562   6.638 -0.2030 -1.3969 -0.2358
  150SAPE   H3S16565   5.113   0.517   6.638 -0.8435  1.2354  1.6956
  150SAPE   C2416566   5.155   0.698   6.736  0.2591 -0.3158 -0.1508
  150SAPE   H4R16567   5.220   0.789   6.734  1.8753 -1.3580  1.2786
  150SAPE   H4S16568   5.206   0.639   6.815  4.0361  0.1360 -2.0097
  150SAPE   C2516569   5.008   0.730   6.762 -0.5129  0.7077  0.0006
  150SAPE   H5R16570   4.934   0.695   6.689 -0.6961  0.4927  0.2878
  150SAPE   C2616571   4.971   0.791   6.878  0.2563 -0.8079  0.2874
  150SAPE   H6R16572   4.865   0.816   6.894  1.1106  2.6855  1.3024
  150SAPE   C2716573   5.070   0.837   6.979 -0.1726  0.4117  0.1420
  150SAPE   H7R16574   5.151   0.885   6.919 -0.4296 -0.8917 -1.3063
  150SAPE   H7S16575   5.126   0.751   7.023 -0.1861 -0.1042 -0.8188
  150SAPE   C2816576   5.012   0.928   7.077 -0.7813  0.6515  0.9361
  150SAPE   H8R16577   4.946   1.005   7.034 -0.6785 -0.0699 -0.5702
  150SAPE   C2916578   5.031   0.941   7.206 -0.3130  0.3166 -0.4128
  150SAPE   H9R16579   4.974   1.016   7.261  3.2890  1.0711  2.7777
  150SAPE  C21016580   5.111   0.860   7.309  0.3273  0.0023 -0.5332
  150SAPE  H10R16581   5.102   0.753   7.281 -0.9698 -0.5205  1.6206
  150SAPE  H10S16582   5.062   0.872   7.409  0.9748  0.4870 -0.2650
  150SAPE  C21116583   5.262   0.875   7.319 -0.1993  0.3082  0.0307
  150SAPE  H11R16584   5.313   0.892   7.222  0.4982  0.8483  0.4829
  150SAPE  C21216585   5.342   0.857   7.430 -0.0267  0.0064 -0.7660
  150SAPE  H12R16586   5.451   0.871   7.432  0.1534 -1.3436  0.5602
  150SAPE  C21316587   5.303   0.815   7.567  0.3258  0.2181 -0.1275
  150SAPE  H13R16588   5.396   0.793   7.625  0.7138  0.2351 -0.7300
  150SAPE  H13S16589   5.244   0.722   7.574  2.8388 -1.4024  0.8097
  150SAPE  C21416590   5.237   0.915   7.658 -0.3755 -0.3737 -0.6606
  150SAPE  H14R16591   5.217   1.012   7.608  0.4157 -0.0057 -0.2696
  150SAPE  C21516592   5.188   0.899   7.782 -0.0412  0.6490 -0.1571
  150SAPE  H15R16593   5.141   0.985   7.832 -0.8180 -0.2583  0.7030
  150SAPE  C21616594   5.198   0.771   7.861  0.1855  0.5894 -0.0821
  150SAPE  H16R16595   5.258   0.696   7.805  0.8859  0.0047  1.4024
  150SAPE  H16S16596   5.093   0.735   7.868 -0.0232  1.3718  0.8316
  150SAPE  C21716597   5.257   0.786   7.994 -0.2600  0.4477 -0.8667
  150SAPE  H17R16598   5.198   0.839   8.072 -0.3130 -0.4175 -0.3147
  150SAPE  H17S16599   5.356   0.830   7.973  0.6415 -1.2339 -0.2800
  150SAPE  C21816600   5.273   0.650   8.051 -0.0286  0.5838  0.0966
  150SAPE  H18R16601   5.351   0.644   8.129  0.9587 -0.4880 -0.9232
  150SAPE  H18S16602   5.324   0.583   7.978  0.0950  0.5846  0.1825
  150SAPE  C21916603   5.146   0.575   8.104  0.4845  0.1598  0.5017
  150SAPE  H19R16604   5.057   0.633   8.070  0.6981  0.1740 -0.0363
  150SAPE  H19S16605   5.150   0.577   8.215 -0.3761  1.2927  0.5259
  150SAPE  C22016606   5.149   0.432   8.051  0.5125  0.6573  0.0825
  150SAPE  H20R16607   5.080   0.360   8.099  1.7048 -0.6549 -0.1077
  150SAPE  H20S16608   5.245   0.391   8.090  0.1634  0.4400  0.7271
  150SAPE  H20T16609   5.155   0.421   7.941 -0.0475  1.3424 -0.0188
  150SAPE   C3316610   5.371   1.065   6.955  0.1624 -0.3083 -0.2050
  150SAPE   H3X16611   5.362   0.956   6.975 -0.6690 -0.4366 -1.2039
  150SAPE   H3Y16612   5.309   1.106   7.038  0.0992  0.3933 -0.5826
  150SAPE   C3416613   5.513   1.123   6.980 -0.0198 -0.5089  0.8482
  150SAPE   H4X16614   5.580   1.099   6.895  1.4489  0.8808  1.5726
  150SAPE   H4Y16615   5.551   1.066   7.067 -0.4398 -2.5323 -0.2372
  150SAPE   C3516616   5.505   1.276   6.986 -0.4512  0.0669  0.7345
  150SAPE   H5X16617   5.472   1.310   6.886 -1.3120 -0.2268  0.9102
  150SAPE   H5Y16618   5.611   1.310   6.988 -1.1639  2.7709 -1.2243
  150SAPE   C3616619   5.432   1.337   7.108  0.1449 -0.0374 -0.4192
  150SAPE   H6X16620   5.323   1.326   7.090  0.2226 -0.5586 -0.5846
  150SAPE   H6Y16621   5.446   1.447   7.101 -2.0669  0.2712 -0.7014
  150SAPE   C3716622   5.478   1.280   7.241  0.2385 -0.1269  0.6630
  150SAPE   H7X16623   5.587   1.301   7.245  0.3505  0.5389 -2.9090
  150SAPE   H7Y16624   5.459   1.171   7.239  1.4253 -0.3430  0.2579
  150SAPE   C3816625   5.409   1.340   7.358  0.0114 -0.5879  0.2464
  150SAPE   H8X16626   5.299   1.323   7.359  0.0706 -0.9734  0.2716
  150SAPE   H8Y16627   5.436   1.447   7.371 -1.5674 -0.2212  0.7641
  150SAPE   C3916628   5.469   1.264   7.475  0.6922 -0.6891 -0.2323
  150SAPE   H9X16629   5.576   1.235   7.468  0.1786 -3.0732  0.5705
  150SAPE   H9Y16630   5.432   1.161   7.496  0.5822 -0.7464 -0.6989
  150SAPE  C31016631   5.444   1.341   7.606 -0.1906 -0.3999  0.1050
  150SAPE  H10X16632   5.342   1.385   7.613 -0.4559 -1.0297  0.2535
  150SAPE  H10Y16633   5.505   1.434   7.607 -0.2801 -0.3435  0.8682
  150SAPE  C31116634   5.495   1.255   7.719 -0.5125 -0.0508 -0.1485
  150SAPE  H11X16635   5.605   1.245   7.706 -0.1478  0.2418  2.2130
  150SAPE  H11Y16636   5.442   1.159   7.707  0.1654 -0.4881  0.3036
  150SAPE  C31216637   5.453   1.316   7.854 -0.0350  0.6281 -0.1542
  150SAPE  H12X16638   5.361   1.376   7.842 -0.4882 -0.1184 -0.5177
  150SAPE  H12Y16639   5.535   1.388   7.876  0.5141  0.5707 -1.8559
  150SAPE  C31316640   5.453   1.223   7.975 -0.1273 -0.8385  0.5539
  150SAPE  H13X16641   5.555   1.193   8.007  0.2539 -0.6343 -0.4429
  150SAPE  H13Y16642   5.414   1.125   7.938 -0.8863  0.3820 -2.0888
  150SAPE  C31416643   5.365   1.278   8.087 -0.4301 -0.2312 -0.4025
  150SAPE  H14X16644   5.266   1.289   8.037 -1.2841  0.0690  1.2836
  150SAPE  H14Y16645   5.385   1.383   8.116 -0.8849 -0.2554  0.0132
  150SAPE  C31516646   5.356   1.183   8.209 -0.8720 -0.0619 -0.7318
  150SAPE  H15X16647   5.351   1.076   8.180  0.8737 -1.0608  2.2267
  150SAPE  H15Y16648   5.276   1.221   8.276 -0.6324 -0.5428 -0.1650
  150SAPE  C31616649   5.488   1.186   8.286 -0.0626  1.3585 -0.1475
  150SAPE  H16X16650   5.516   1.289   8.317 -2.8728  1.3785  2.9336
  150SAPE  H16Y16651   5.577   1.152   8.229  0.3247  1.3120  0.4729
  150SAPE  C31716652   5.488   1.109   8.418  1.7037 -0.3294 -0.3632
  150SAPE  H17X16653   5.574   1.119   8.487  0.2605 -2.1642  1.8562
  150SAPE  H17Y16654   5.487   1.001   8.393 -1.7990 -0.2828 -0.9547
  150SAPE  C31816655   5.364   1.129   8.513 -0.4803 -0.2070  0.1589
  150SAPE  H18X16656   5.371   1.224   8.570 -2.3669 -0.9102  1.6764
  150SAPE  H18Y16657   5.357   1.052   8.593  0.7959  1.5343  2.0688
  150SAPE  H18Z16658   5.272   1.132   8.451 -0.8972 -0.4300  0.7594
  151SAPE     N16659   1.783   3.498   5.884 -0.1425 -0.6287  0.4779
  151SAPE   HN116660   1.819   3.499   5.982  0.9332 -1.5372  0.1207
  151SAPE   HN216661   1.728   3.411   5.872 -0.0458 -0.6168 -0.1053
  151SAPE   HN316662   1.861   3.507   5.815 -0.5146 -0.4135  0.0825
  151SAPE   C1216663   1.682   3.600   5.838  0.5452 -0.0523  0.3027
  151SAPE  H12A16664   1.624   3.552   5.756 -1.8177  1.2950  1.0751
  151SAPE  H12B16665   1.731   3.690   5.797  1.5837 -0.4765  0.5808
  151SAPE   C1116666   1.585   3.635   5.958 -0.3214 -0.2061  0.3280
  151SAPE  H11A16667   1.509   3.704   5.916  0.5956  1.5924  1.5168
  151SAPE  H11B16668   1.645   3.678   6.042  2.2483  0.2806 -1.6176
  151SAPE     P16669   1.383   3.457   5.990 -0.2838  0.0786  0.0068
  151SAPE   O1316670   1.286   3.572   5.988 -0.3955  0.3414 -0.1689
  151SAPE   O1416671   1.393   3.376   5.865  0.5261  0.3271 -0.6294
  151SAPE   O1216672   1.527   3.520   6.014 -0.4669 -0.4246 -0.0321
  151SAPE   O1116673   1.365   3.365   6.120 -0.0652 -0.4878 -0.2458
  151SAPE    C116674   1.484   3.317   6.183  0.0447  1.0529 -0.8725
  151SAPE    HA16675   1.481   3.206   6.181  0.4873  1.0531 -1.8842
  151SAPE    HB16676   1.583   3.344   6.140  0.4200  0.2595 -0.5092
  151SAPE    C216677   1.489   3.360   6.337  0.0622  0.0781 -0.2791
  151SAPE    HS16678   1.575   3.309   6.384 -0.2376 -0.3955 -0.2401
  151SAPE   O2116679   1.373   3.314   6.404  0.2206  0.0253  0.3853
  151SAPE   C2116680   1.372   3.183   6.430 -0.5230  0.1728  0.5727
  151SAPE   O2216681   1.459   3.102   6.405 -0.7246 -0.0792  0.2653
  151SAPE   C2216682   1.232   3.138   6.478  0.2902  0.1617 -0.2333
  151SAPE   H2R16683   1.170   3.225   6.507  0.4149 -0.2816  1.4830
  151SAPE   H2S16684   1.189   3.083   6.391 -0.3040  0.2439  0.0075
  151SAPE    C316685   1.498   3.520   6.354 -0.7077 -0.3372  0.0269
  151SAPE    HX16686   1.434   3.571   6.279 -1.2420  0.3564  0.9252
  151SAPE    HY16687   1.604   3.544   6.333  0.2965 -2.9455  1.6769
  151SAPE   O3116688   1.457   3.556   6.490 -0.1442 -0.0650 -0.2209
  151SAPE   C3116689   1.558   3.545   6.585 -0.4995 -0.3527  0.6086
  151SAPE   O3216690   1.672   3.518   6.557  0.3571  0.1140  0.1234
  151SAPE   C3216691   1.504   3.573   6.725 -0.0146 -0.0498 -0.2580
  151SAPE   H2X16692   1.402   3.527   6.723 -0.2840  0.5637 -2.1930
  151SAPE   H2Y16693   1.487   3.680   6.746 -0.8941  0.3689 -2.7377
  151SAPE   C2316694   1.243   3.044   6.600 -0.3504 -0.0007 -0.3372
  151SAPE   H3R16695   1.297   2.950   6.576  0.0995  0.2820 -0.4554
  151SAPE   H3S16696   1.137   3.024   6.627  0.0238 -1.3259  0.2498
  151SAPE   C2416697   1.307   3.104   6.721 -0.0093 -0.5826 -0.4438
  151SAPE   H4R16698   1.416   3.119   6.708  0.3250 -1.5150  1.0761
  151SAPE   H4S16699   1.297   3.027   6.800 -3.8579  0.5973  0.4415
  151SAPE   C2516700   1.248   3.244   6.760 -0.1777  0.6458  0.1055
  151SAPE   H5R16701   1.266   3.332   6.696 -0.8714  0.4234 -0.3978
  151SAPE   C2616702   1.169   3.267   6.866 -0.0191  0.2400  0.2276
  151SAPE   H6R16703   1.127   3.366   6.891 -1.9797 -1.0618  2.6291
  151SAPE   C2716704   1.140   3.166   6.973  0.1035  0.7334 -0.6538
  151SAPE   H7R16705   1.237   3.139   7.021 -0.5510 -0.2638  0.1268
  151SAPE   H7S16706   1.115   3.068   6.928 -0.1264  0.1927  0.6213
  151SAPE   C2816707   1.039   3.218   7.072  0.4882 -0.5004 -1.0655
  151SAPE   H8R16708   0.963   3.280   7.023  0.9580  0.9248 -0.0724
  151SAPE   C2916709   1.045   3.217   7.210 -0.1625  0.2853 -0.6685
  151SAPE   H9R16710   0.969   3.259   7.278  0.8774 -0.7384  1.2335
  151SAPE  C21016711   1.151   3.145   7.292 -0.2008  0.1463  0.6944
  151SAPE  H10R16712   1.217   3.218   7.342 -0.4906  3.1248 -2.8197
  151SAPE  H10S16713   1.208   3.081   7.221  1.2594 -1.0288  2.8045
  151SAPE  C21116714   1.074   3.049   7.387 -0.0394  0.3301 -0.0295
  151SAPE  H11R16715   1.038   2.954   7.345  0.9868 -0.3443  0.5594
  151SAPE  C21216716   1.060   3.069   7.521  0.6649  0.2846  0.9925
  151SAPE  H12R16717   1.011   2.988   7.576 -2.3848  1.8730  0.8081
  151SAPE  C21316718   1.112   3.190   7.597  0.1182  0.2907  0.0140
  151SAPE  H13R16719   1.091   3.281   7.537 -0.9838 -1.1379 -1.8894
  151SAPE  H13S16720   1.219   3.183   7.624 -0.2927 -1.4951  1.4510
  151SAPE  C21416721   1.044   3.212   7.728 -0.2190 -0.2135  0.1539
  151SAPE  H14R16722   0.967   3.290   7.720 -0.4244 -0.4330  0.0117
  151SAPE  C21516723   1.077   3.143   7.836  0.8496  0.0562  0.2865
  151SAPE  H15R16724   1.028   3.169   7.931 -0.0196 -0.8853  0.1229
  151SAPE  C21616725   1.174   3.026   7.846  0.7007 -0.4163  0.8773
  151SAPE  H16R16726   1.248   3.047   7.926  4.3051  2.1492 -2.7670
  151SAPE  H16S16727   1.239   3.016   7.757 -2.0978 -3.0233 -1.1170
  151SAPE  C21716728   1.101   2.892   7.859  0.1212  0.3868 -0.8204
  151SAPE  H17R16729   1.168   2.805   7.843 -1.2449 -1.2791  1.7713
  151SAPE  H17S16730   1.021   2.874   7.784 -1.7259  0.9266  0.9191
  151SAPE  C21816731   1.032   2.870   7.999 -0.7279 -0.8437 -0.6081
  151SAPE  H18R16732   0.938   2.930   7.999  1.1645  2.4770  1.6099
  151SAPE  H18S16733   1.096   2.908   8.081 -2.9041  0.4466  0.6032
  151SAPE  C21916734   1.015   2.728   8.027  0.1681  0.3589 -1.3779
  151SAPE  H19R16735   1.115   2.682   8.043  0.4716  1.0220 -1.3000
  151SAPE  H19S16736   0.968   2.686   7.937 -0.8375  0.4815 -0.9204
  151SAPE  C22016737   0.924   2.715   8.157 -0.7071 -0.0121 -0.3043
  151SAPE  H20R16738   0.976   2.773   8.236  0.4450  0.2933 -1.2551
  151SAPE  H20S16739   0.821   2.750   8.138 -0.5954 -0.9433 -3.0853
  151SAPE  H20T16740   0.908   2.610   8.189 -0.5355  0.1776  0.4433
  151SAPE   C3316741   1.591   3.504   6.831  0.0452 -0.3964  0.5994
  151SAPE   H3X16742   1.696   3.536   6.816  0.6014 -2.5048 -0.3081
  151SAPE   H3Y16743   1.588   3.394   6.824  2.3012 -0.4131 -0.7439
  151SAPE   C3416744   1.559   3.525   6.982  0.2862  0.1343 -0.2136
  151SAPE   H4X16745   1.537   3.629   7.014  0.1057  0.1906 -0.5245
  151SAPE   H4Y16746   1.647   3.485   7.038  0.3972  0.7902  0.0930
  151SAPE   C3516747   1.434   3.453   7.026 -0.1963  0.4139 -0.1935
  151SAPE   H5X16748   1.440   3.348   6.989 -0.3874 -0.1074  1.1890
  151SAPE   H5Y16749   1.342   3.491   6.978 -1.2690 -0.7019  0.9242
  151SAPE   C3616750   1.404   3.455   7.178  0.5942  0.1341  1.0341
  151SAPE   H6X16751   1.302   3.413   7.187 -0.0075  1.2377 -0.3353
  151SAPE   H6Y16752   1.411   3.562   7.206 -0.2086  0.0487  1.5912
  151SAPE   C3716753   1.509   3.377   7.248  0.3308 -0.0415 -0.1858
  151SAPE   H7X16754   1.608   3.424   7.230  0.7433 -0.4501  0.9389
  151SAPE   H7Y16755   1.505   3.269   7.220  0.1017 -0.5236  1.6173
  151SAPE   C3816756   1.481   3.382   7.394  0.1735  0.1248  0.2255
  151SAPE   H8X16757   1.555   3.317   7.445 -0.8994 -0.4340  1.1349
  151SAPE   H8Y16758   1.389   3.325   7.420  0.3909  0.7662  2.6881
  151SAPE   C3916759   1.487   3.519   7.466  0.3083 -0.9164  0.3157
  151SAPE   H9X16760   1.383   3.554   7.450 -0.9657 -2.5559  3.7725
  151SAPE   H9Y16761   1.552   3.590   7.411  0.5280 -0.1980  1.4564
  151SAPE  C31016762   1.519   3.516   7.621  0.5026  0.1387 -0.4569
  151SAPE  H10X16763   1.545   3.616   7.663  1.0937  0.6773 -2.0453
  151SAPE  H10Y16764   1.609   3.455   7.641  0.9163  1.1523  0.9009
  151SAPE  C31116765   1.404   3.461   7.704  0.0252 -0.7796  0.5803
  151SAPE  H11X16766   1.376   3.358   7.673 -0.3654 -0.8433  1.1453
  151SAPE  H11Y16767   1.311   3.514   7.678  0.3561 -1.3412 -2.1050
  151SAPE  C31216768   1.436   3.476   7.852 -0.6228  0.8038  0.5470
  151SAPE  H12X16769   1.469   3.579   7.881 -0.9199  0.7948  0.9262
  151SAPE  H12Y16770   1.520   3.404   7.864  1.6886  2.9379 -1.4913
  151SAPE  C31316771   1.319   3.431   7.935 -0.3510  0.7395  0.8441
  151SAPE  H13X16772   1.260   3.347   7.892 -2.2552  1.9593  0.9591
  151SAPE  H13Y16773   1.243   3.511   7.939 -1.3701 -0.1459 -0.1194
  151SAPE  C31416774   1.375   3.379   8.069 -0.3538 -0.4057 -0.1225
  151SAPE  H14X16775   1.435   3.458   8.120 -3.0115  0.8937  1.2004
  151SAPE  H14Y16776   1.443   3.292   8.053 -0.3244 -0.4642  0.2955
  151SAPE  C31516777   1.275   3.352   8.186 -0.0089 -0.1297  0.4681
  151SAPE  H15X16778   1.179   3.318   8.143  0.3670  0.3499 -0.8068
  151SAPE  H15Y16779   1.248   3.444   8.242  0.6152 -1.2520  2.7533
  151SAPE  C31616780   1.330   3.255   8.281  0.4613  0.2817 -0.0933
  151SAPE  H16X16781   1.434   3.282   8.308  0.8527 -0.8758 -0.3721
  151SAPE  H16Y16782   1.330   3.162   8.221 -1.0422  0.8448 -1.0138
  151SAPE  C31716783   1.246   3.224   8.409 -1.0077  0.4458  0.0839
  151SAPE  H17X16784   1.213   3.321   8.452 -0.6985 -0.0264  1.4499
  151SAPE  H17Y16785   1.326   3.183   8.475 -0.3563  0.8144 -0.4587
  151SAPE  C31816786   1.125   3.122   8.397 -0.6087 -0.1455 -0.0744
  151SAPE  H18X16787   1.054   3.159   8.320 -0.7763 -0.0312  0.1312
  151SAPE  H18Y16788   1.078   3.115   8.497 -2.1643 -1.3379 -0.8504
  151SAPE  H18Z16789   1.159   3.023   8.361  0.9261  0.8427 -1.4804
  152SAPE     N16790   5.305   2.171   6.449 -0.3122 -0.6037  1.1330
  152SAPE   HN116791   5.211   2.128   6.446 -0.7680  0.2397  2.4408
  152SAPE   HN216792   5.301   2.244   6.523  0.4423  0.4970  0.1338
  152SAPE   HN316793   5.331   2.216   6.359 -0.9419 -0.5137  0.9936
  152SAPE   C1216794   5.411   2.068   6.476  0.1122  0.7329 -0.6894
  152SAPE  H12A16795   5.419   2.006   6.384 -0.5502 -2.3617  1.2122
  152SAPE  H12B16796   5.356   2.007   6.551  0.6557  1.6007  0.4519
  152SAPE   C1116797   5.546   2.125   6.518  0.3813  0.4025 -0.0874
  152SAPE  H11A16798   5.598   2.047   6.577 -0.0141  0.7339  0.7186
  152SAPE  H11B16799   5.532   2.208   6.591  0.2543 -1.4473  2.0970
  152SAPE     P16800   5.602   2.283   6.313 -0.0359  0.3293 -0.3712
  152SAPE   O1316801   5.720   2.316   6.235  0.6979 -0.2263 -0.1890
  152SAPE   O1416802   5.468   2.262   6.250 -0.2511  0.3049  0.1742
  152SAPE   O1216803   5.624   2.168   6.409 -0.4680  0.5035 -0.2171
  152SAPE   O1116804   5.579   2.395   6.411 -0.7036 -0.1041 -0.5139
  152SAPE    C116805   5.683   2.463   6.483  0.2781  0.1228  0.2443
  152SAPE    HA16806   5.753   2.515   6.414 -0.8757  1.1737 -0.1735
  152SAPE    HB16807   5.632   2.543   6.541 -0.5214  0.7483 -1.2444
  152SAPE    C216808   5.763   2.378   6.586  0.0413  0.2369 -0.8200
  152SAPE    HS16809   5.783   2.277   6.543  1.2748 -0.0322  0.3499
  152SAPE   O2116810   5.681   2.349   6.697  0.1627 -0.2019 -0.5833
  152SAPE   C2116811   5.719   2.258   6.782  0.6307 -0.4350 -0.0291
  152SAPE   O2216812   5.822   2.192   6.784 -0.0378 -0.0186 -0.5294
  152SAPE   C2216813   5.612   2.246   6.896 -0.0988 -0.6196  0.5452
  152SAPE   H2R16814   5.508   2.260   6.861 -0.9717 -2.2033  2.2963
  152SAPE   H2S16815   5.605   2.136   6.914 -0.6681 -0.5984  0.4678
  152SAPE    C316816   5.889   2.449   6.643  0.2901  0.4056  0.5669
  152SAPE    HX16817   5.952   2.444   6.552 -0.7832 -1.5437 -0.1252
  152SAPE    HY16818   5.931   2.388   6.726  0.8566 -1.8462 -1.2560
  152SAPE   O3116819   5.844   2.585   6.685  0.3047  0.8963  0.0681
  152SAPE   C3116820   5.959   2.639   6.729 -0.2245 -0.0369  0.4026
  152SAPE   O3216821   6.065   2.583   6.730 -0.0302 -0.0467  0.4812
  152SAPE   C3216822   5.934   2.784   6.770  0.0047 -0.0628 -0.0391
  152SAPE   H2X16823   5.824   2.796   6.781 -0.1398 -0.4632 -0.9709
  152SAPE   H2Y16824   5.970   2.847   6.686 -0.2490 -0.5352 -0.5140
  152SAPE   C2316825   5.639   2.319   7.028 -0.0957 -0.0534  0.6527
  152SAPE   H3R16826   5.545   2.332   7.087 -0.4673  0.8658 -0.1103
  152SAPE   H3S16827   5.685   2.419   7.012  0.9515 -0.7825 -1.0894
  152SAPE   C2416828   5.740   2.241   7.109  0.0387  0.4500  0.0429
  152SAPE   H4R16829   5.757   2.304   7.199  2.0229 -0.3457  0.2784
  152SAPE   H4S16830   5.834   2.231   7.050  0.2471  0.7032  0.3327
  152SAPE   C2516831   5.699   2.101   7.155 -0.3835 -0.8621  0.2082
  152SAPE   H5R16832   5.710   2.015   7.088 -1.9948 -1.1282  0.2265
  152SAPE   C2616833   5.655   2.067   7.277 -0.7519  0.0294  0.1815
  152SAPE   H6R16834   5.647   1.959   7.296 -2.8280  0.0342 -0.3853
  152SAPE   C2716835   5.637   2.151   7.396  0.6784 -0.0898  0.4673
  152SAPE   H7R16836   5.540   2.126   7.444  1.2213 -0.4594  1.3922
  152SAPE   H7S16837   5.610   2.255   7.367  2.6446  0.2241 -0.3755
  152SAPE   C2816838   5.743   2.133   7.498  0.1056 -0.2891  0.1436
  152SAPE   H8R16839   5.840   2.177   7.471  0.0787  2.0336  3.3141
  152SAPE   C2916840   5.733   2.077   7.623 -0.1227 -1.1952  0.5584
  152SAPE   H9R16841   5.831   2.065   7.673  0.2404 -0.0995  0.1531
  152SAPE  C21016842   5.619   2.005   7.686 -0.7300  0.5149 -0.0627
  152SAPE  H10R16843   5.649   1.898   7.687  2.6804  1.3686  0.3539
  152SAPE  H10S16844   5.525   2.008   7.626 -1.1194 -1.6493  0.3670
  152SAPE  C21116845   5.604   2.053   7.832  0.0195  0.5112 -0.2079
  152SAPE  H11R16846   5.668   2.015   7.913 -2.1837  3.1331  3.0237
  152SAPE  C21216847   5.523   2.153   7.870  0.2675 -0.1990  0.1436
  152SAPE  H12R16848   5.524   2.187   7.975  1.2874  1.3667 -0.3339
  152SAPE  C21316849   5.441   2.244   7.789 -0.7901 -0.4263  0.3178
  152SAPE  H13R16850   5.468   2.226   7.682  1.1056  0.3557  0.6325
  152SAPE  H13S16851   5.491   2.343   7.788  1.0078 -1.2157 -3.1479
  152SAPE  C21416852   5.292   2.243   7.829 -0.0440  0.4918  0.0682
  152SAPE  H14R16853   5.276   2.300   7.922  1.3215  0.2632  0.4616
  152SAPE  C21516854   5.187   2.217   7.750  0.3646 -0.1426  0.1656
  152SAPE  H15R16855   5.086   2.238   7.788  0.9551 -0.4537  1.9641
  152SAPE  C21616856   5.207   2.142   7.617 -0.3746  0.2681 -0.1145
  152SAPE  H16R16857   5.122   2.074   7.591  0.0048 -0.1272 -0.3457
  152SAPE  H16S16858   5.290   2.068   7.611 -1.9746 -1.5362 -4.4301
  152SAPE  C21716859   5.230   2.236   7.501 -0.0470  0.5806 -0.1236
  152SAPE  H17R16860   5.331   2.278   7.524 -0.1592  0.1333  1.3120
  152SAPE  H17S16861   5.155   2.317   7.514  0.5217  0.9482  1.0510
  152SAPE  C21816862   5.226   2.151   7.375  0.8399 -0.6310  0.1264
  152SAPE  H18R16863   5.134   2.088   7.369  0.7012 -0.3554 -0.8228
  152SAPE  H18S16864   5.305   2.076   7.391 -1.4289 -3.0755  0.6602
  152SAPE  C21916865   5.241   2.232   7.244  0.3548  0.2837  0.6804
  152SAPE  H19R16866   5.337   2.290   7.247  1.1513 -0.9375 -0.1761
  152SAPE  H19S16867   5.167   2.315   7.239  1.5230  1.3409  0.1736
  152SAPE  C22016868   5.232   2.137   7.123 -0.3037 -0.6228  0.0898
  152SAPE  H20R16869   5.297   2.049   7.144  0.7069  0.0440 -0.1426
  152SAPE  H20S16870   5.271   2.187   7.031  0.6149  0.6859  1.1347
  152SAPE  H20T16871   5.137   2.091   7.091  0.5804 -1.3792 -1.5913
  152SAPE   C3316872   6.003   2.810   6.906  0.4141  0.5971  0.6463
  152SAPE   H3X16873   5.998   2.918   6.930  0.6423  0.6909  0.2781
  152SAPE   H3Y16874   6.113   2.794   6.910  0.4524 -0.0700 -1.7804
  152SAPE   C3416875   5.934   2.730   7.022 -0.1983  0.1206 -0.2844
  152SAPE   H4X16876   5.928   2.624   6.990  3.7785 -0.8949  1.7836
  152SAPE   H4Y16877   5.829   2.760   7.043  0.2643  0.6000  1.5558
  152SAPE   C3516878   6.013   2.756   7.147 -0.0759 -0.0204 -0.4107
  152SAPE   H5X16879   6.035   2.865   7.154  0.6567 -0.2401  1.5732
  152SAPE   H5Y16880   6.112   2.705   7.148  0.3462  0.7142 -1.7649
  152SAPE   C3616881   5.935   2.701   7.272  0.0259 -0.6242  0.1510
  152SAPE   H6X16882   5.827   2.725   7.264 -0.4479 -2.4741  0.4243
  152SAPE   H6Y16883   5.975   2.740   7.368  3.4573  0.5388 -1.5902
  152SAPE   C3716884   5.944   2.554   7.290 -0.7488 -0.0334  0.6761
  152SAPE   H7X16885   6.046   2.513   7.308 -0.7733 -0.4244 -0.0670
  152SAPE   H7Y16886   5.892   2.503   7.207 -0.2149 -1.4808  1.2073
  152SAPE   C3816887   5.871   2.504   7.417  0.4211  0.4879  0.9401
  152SAPE   H8X16888   5.814   2.410   7.400  0.6771  0.0949  2.1770
  152SAPE   H8Y16889   5.791   2.577   7.442 -0.8502 -0.7107  0.5489
  152SAPE   C3916890   5.953   2.476   7.540  0.3963 -0.2211  0.1248
  152SAPE   H9X16891   6.004   2.569   7.574  1.1511 -0.2919 -0.7812
  152SAPE   H9Y16892   6.027   2.395   7.530  1.5806  0.9734 -1.2158
  152SAPE  C31016893   5.873   2.439   7.664  1.1182  0.5911 -0.1758
  152SAPE  H10X16894   5.800   2.358   7.645 -1.5598  2.5439  1.1117
  152SAPE  H10Y16895   5.813   2.525   7.702 -1.3094 -0.4061 -1.5074
  152SAPE  C31116896   5.970   2.397   7.777  0.7998  0.3705 -0.1960
  152SAPE  H11X16897   6.038   2.482   7.799  2.4698 -1.4024  1.9252
  152SAPE  H11Y16898   6.023   2.300   7.763 -1.9131 -1.3109  0.4776
  152SAPE  C31216899   5.884   2.377   7.901 -0.6085 -0.4545  0.6320
  152SAPE  H12X16900   5.810   2.296   7.884 -0.8112  0.4082 -3.7898
  152SAPE  H12Y16901   5.828   2.473   7.911  0.5178  0.6395 -2.3588
  152SAPE  C31316902   5.957   2.357   8.035 -0.6104 -0.3128  0.3761
  152SAPE  H13X16903   6.016   2.449   8.056  0.8588 -1.4640  1.5027
  152SAPE  H13Y16904   6.026   2.271   8.029  0.4189  0.5819 -3.4905
  152SAPE  C31416905   5.861   2.343   8.148 -0.4070 -0.0088 -0.1196
  152SAPE  H14X16906   5.808   2.245   8.144  0.2936 -0.3639 -1.1998
  152SAPE  H14Y16907   5.783   2.421   8.134 -1.4590 -0.8319  0.9358
  152SAPE  C31516908   5.914   2.384   8.291  0.0472  0.6500 -0.2951
  152SAPE  H15X16909   5.824   2.367   8.354  0.2386  1.6457  0.2776
  152SAPE  H15Y16910   5.945   2.491   8.294 -0.1776  0.8416 -2.7854
  152SAPE  C31616911   6.020   2.293   8.354 -0.0824 -0.0455 -0.2266
  152SAPE  H16X16912   6.106   2.282   8.284 -0.3860 -0.7222 -0.5053
  152SAPE  H16Y16913   5.974   2.193   8.368 -1.3594  0.4309 -0.8527
  152SAPE  C31716914   6.060   2.336   8.497 -0.1910 -0.2331  0.1301
  152SAPE  H17X16915   6.075   2.446   8.492 -0.8835  0.0318  2.5065
  152SAPE  H17Y16916   6.158   2.293   8.528 -0.0949 -0.2863 -0.2433
  152SAPE  C31816917   5.954   2.299   8.600 -0.2095 -0.1979 -0.5565
  152SAPE  H18X16918   5.955   2.188   8.606  1.6601 -0.1559  0.8718
  152SAPE  H18Y16919   5.854   2.326   8.562  0.2202 -0.4084 -1.9045
  152SAPE  H18Z16920   5.979   2.340   8.700  1.1393  1.1419 -1.3937
  153SAPE     N16921   3.600   1.799   5.873 -0.4213 -0.1169  0.1099
  153SAPE   HN116922   3.609   1.861   5.791  2.1336 -1.4713 -0.7455
  153SAPE   HN216923   3.698   1.797   5.908 -0.8191  2.4423  1.6482
  153SAPE   HN316924   3.570   1.707   5.834  2.6878 -0.5176 -1.6434
  153SAPE   C1216925   3.511   1.852   5.979  0.0529  0.4091 -0.3753
  153SAPE  H12A16926   3.463   1.766   6.029 -0.7568  0.3614 -1.2029
  153SAPE  H12B16927   3.430   1.905   5.925 -0.6721  1.3625  1.5407
  153SAPE   C1116928   3.576   1.944   6.087 -0.1082  0.5221 -0.1126
  153SAPE  H11A16929   3.510   1.936   6.176 -1.3841 -0.8958 -1.1273
  153SAPE  H11B16930   3.571   2.050   6.053  0.3858  1.0339  1.3409
  153SAPE     P16931   3.732   1.806   6.240 -0.3200  0.2900  0.4951
  153SAPE   O1316932   3.661   1.684   6.199  0.2624 -0.0942 -0.6429
  153SAPE   O1416933   3.876   1.795   6.273  0.2486  0.4842 -0.1122
  153SAPE   O1216934   3.712   1.903   6.119  0.0688  0.4631  0.7870
  153SAPE   O1116935   3.648   1.870   6.354  0.4253  0.5598  0.1072
  153SAPE    C116936   3.667   2.004   6.391  0.6294  0.0643 -0.4321
  153SAPE    HA16937   3.711   2.070   6.313  0.6903 -0.4688 -0.8597
  153SAPE    HB16938   3.567   2.045   6.418 -1.0037 -1.8146 -3.0886
  153SAPE    C216939   3.759   2.003   6.510  0.2649  0.1877 -0.0030
  153SAPE    HS16940   3.852   1.951   6.479  0.4147  0.5250 -0.1216
  153SAPE   O2116941   3.706   1.927   6.615  0.4452  0.0877 -0.0739
  153SAPE   C2116942   3.594   1.958   6.679 -0.2713 -0.0415  0.2421
  153SAPE   O2216943   3.512   2.042   6.641 -0.1155  0.2188 -0.1720
  153SAPE   C2216944   3.584   1.863   6.801 -0.2028 -0.4741 -0.2808
  153SAPE   H2R16945   3.499   1.793   6.794 -2.4235  2.0269  0.1035
  153SAPE   H2S16946   3.685   1.817   6.814 -0.2227 -0.6144 -0.6253
  153SAPE    C316947   3.802   2.146   6.554  0.4348  0.6697  0.9789
  153SAPE    HX16948   3.707   2.203   6.550 -0.5303 -0.9883 -1.7386
  153SAPE    HY16949   3.872   2.202   6.488  0.1755  1.8764  1.6825
  153SAPE   O3116950   3.849   2.150   6.687 -0.2425  0.0226  0.2614
  153SAPE   C3116951   3.979   2.114   6.696 -0.4634  0.6883 -0.2798
  153SAPE   O3216952   4.058   2.101   6.605 -0.4510 -0.2765  0.3846
  153SAPE   C3216953   4.011   2.079   6.848 -0.2503  0.5685  0.3531
  153SAPE   H2X16954   3.939   2.135   6.911 -1.9176 -0.4410 -0.5667
  153SAPE   H2Y16955   4.112   2.111   6.882  0.6270  0.5615 -2.0428
  153SAPE   C2316956   3.555   1.942   6.932  0.2226  0.4212  0.2048
  153SAPE   H3R16957   3.474   2.015   6.912 -1.7870 -1.6015  0.5554
  153SAPE   H3S16958   3.651   1.995   6.952  0.2481  0.9078 -1.0761
  153SAPE   C2416959   3.513   1.866   7.059 -0.2620 -0.9183 -0.3151
  153SAPE   H4R16960   3.603   1.812   7.096  0.5360  2.3136  3.0054
  153SAPE   H4S16961   3.436   1.790   7.033 -0.3129 -0.6391 -1.0079
  153SAPE   C2516962   3.460   1.959   7.163  0.3172  0.2078  0.0107
  153SAPE   H5R16963   3.430   2.059   7.128 -0.3702 -0.3409 -1.0326
  153SAPE   C2616964   3.425   1.924   7.286 -0.1769 -0.1705 -0.1880
  153SAPE   H6R16965   3.401   2.000   7.361  0.8120 -0.0709  0.0460
  153SAPE   C2716966   3.474   1.794   7.344  0.9427  0.1541  0.0585
  153SAPE   H7R16967   3.574   1.806   7.390  1.0493 -1.6236  0.3869
  153SAPE   H7S16968   3.496   1.718   7.266  0.3707 -1.6986  1.6165
  153SAPE   C2816969   3.376   1.737   7.448  0.3067 -0.2612 -0.2955
  153SAPE   H8R16970   3.303   1.662   7.413 -0.9694  0.4331  0.7669
  153SAPE   C2916971   3.370   1.763   7.577  0.0814 -0.2546 -0.2824
  153SAPE   H9R16972   3.288   1.718   7.635 -0.8789 -0.2785 -1.6003
  153SAPE  C21016973   3.464   1.857   7.651 -0.5180  0.7980 -0.1468
  153SAPE  H10R16974   3.551   1.887   7.590 -0.0050 -1.5267 -0.6827
  153SAPE  H10S16975   3.513   1.796   7.731  0.6874 -0.4749 -1.7777
  153SAPE  C21116976   3.375   1.958   7.714  0.0319 -0.3776 -0.3199
  153SAPE  H11R16977   3.284   1.939   7.773  0.8059  0.6402  1.2913
  153SAPE  C21216978   3.382   2.092   7.705 -0.2396  0.2192 -0.3490
  153SAPE  H12R16979   3.306   2.150   7.760 -1.5983 -1.5314 -0.2830
  153SAPE  C21316980   3.491   2.170   7.632 -0.6896 -0.4094 -0.1451
  153SAPE  H13R16981   3.442   2.223   7.547 -0.0744  0.7996  0.2436
  153SAPE  H13S16982   3.568   2.101   7.591 -0.3024  0.1524 -0.3736
  153SAPE  C21416983   3.558   2.279   7.718 -0.0072 -1.0759  0.7824
  153SAPE  H14R16984   3.551   2.272   7.828 -0.0440  0.1419  0.8717
  153SAPE  C21516985   3.599   2.405   7.668  0.2756 -0.1215 -0.2068
  153SAPE  H15R16986   3.640   2.470   7.746 -1.4740 -1.3506  1.8824
  153SAPE  C21616987   3.592   2.442   7.524  0.5986  0.2931 -0.2125
  153SAPE  H16R16988   3.593   2.360   7.448  0.4454  2.0785 -2.2433
  153SAPE  H16S16989   3.690   2.491   7.501  1.1077 -1.4316 -2.0472
  153SAPE  C21716990   3.479   2.538   7.492  0.9907 -0.5580  0.6916
  153SAPE  H17R16991   3.494   2.633   7.548 -1.1727  0.8701 -0.9647
  153SAPE  H17S16992   3.376   2.508   7.519  0.3194  0.9180 -0.1193
  153SAPE  C21816993   3.470   2.573   7.341 -0.5017 -0.1058 -0.5622
  153SAPE  H18R16994   3.502   2.484   7.283  0.5271 -1.1167  1.4626
  153SAPE  H18S16995   3.549   2.647   7.313  0.0455 -0.3488  0.3034
  153SAPE  C21916996   3.340   2.631   7.293  0.3853  0.1801  0.4380
  153SAPE  H19R16997   3.263   2.565   7.340 -2.0486  1.2718 -1.7286
  153SAPE  H19S16998   3.339   2.616   7.183  0.0308 -0.0541  0.4694
  153SAPE  C22016999   3.302   2.771   7.332  0.1326 -0.0409 -0.0178
  153SAPE  H20R17000   3.325   2.788   7.439 -1.7638  0.4609  0.3418
  153SAPE  H20S17001   3.203   2.815   7.307 -0.0113  0.0799  0.7537
  153SAPE  H20T17002   3.375   2.835   7.278 -0.4894  1.6759  1.0987
  153SAPE   C3317003   3.995   1.931   6.871 -0.0521 -0.2654  0.3011
  153SAPE   H3X17004   4.074   1.878   6.814 -0.1652 -0.9813  0.7970
  153SAPE   H3Y17005   3.892   1.898   6.846 -0.5846  1.5823 -0.1337
  153SAPE   C3417006   4.006   1.909   7.024  0.1497 -0.1075  0.2605
  153SAPE   H4X17007   3.928   1.965   7.079  0.7116  1.6034 -0.6126
  153SAPE   H4Y17008   4.102   1.935   7.073  0.1149  1.8548 -0.6108
  153SAPE   C3517009   3.993   1.758   7.052 -0.1263 -0.1427  0.0569
  153SAPE   H5X17010   4.072   1.700   6.999 -1.6403 -1.0193 -1.3248
  153SAPE   H5Y17011   3.891   1.742   7.013  0.2134 -0.8384 -0.5605
  153SAPE   C3617012   3.994   1.720   7.202 -0.1279 -0.5143  0.1320
  153SAPE   H6X17013   4.094   1.743   7.243 -0.1144 -0.4828  0.0827
  153SAPE   H6Y17014   3.976   1.610   7.210  0.2774 -0.6965 -1.1837
  153SAPE   C3717015   3.891   1.788   7.297  0.2769 -0.0069  0.1791
  153SAPE   H7X17016   3.791   1.766   7.253 -0.4103 -0.3311  1.8550
  153SAPE   H7Y17017   3.913   1.897   7.296 -0.2389  0.0984 -0.7495
  153SAPE   C3817018   3.897   1.750   7.446  0.1015  0.0827 -0.8685
  153SAPE   H8X17019   3.831   1.822   7.498 -0.3386 -1.1444  0.3122
  153SAPE   H8Y17020   3.996   1.750   7.496 -0.4947  0.2604  0.3432
  153SAPE   C3917021   3.853   1.603   7.465 -0.0850  0.2123 -0.5255
  153SAPE   H9X17022   3.906   1.536   7.394  0.5211 -0.2197  0.3192
  153SAPE   H9Y17023   3.742   1.599   7.463 -0.2276 -6.7303 -0.4775
  153SAPE  C31017024   3.903   1.537   7.593  0.5843 -0.7802 -0.5909
  153SAPE  H10X17025   4.011   1.515   7.576  1.0655  0.2648  0.9683
  153SAPE  H10Y17026   3.858   1.438   7.616  2.8465 -1.4920  1.1139
  153SAPE  C31117027   3.877   1.617   7.721  0.1236 -1.0274 -0.3689
  153SAPE  H11X17028   3.768   1.641   7.724  0.5996  1.2988  0.2228
  153SAPE  H11Y17029   3.930   1.714   7.718 -0.5046 -0.6941 -1.0855
  153SAPE  C31217030   3.905   1.535   7.842 -0.1395 -0.0614  0.7655
  153SAPE  H12X17031   4.004   1.489   7.826 -0.2386  0.2198 -0.8032
  153SAPE  H12Y17032   3.831   1.452   7.846 -0.5230  0.2166 -0.1497
  153SAPE  C31317033   3.910   1.610   7.975 -0.2442  0.1934 -0.4552
  153SAPE  H13X17034   3.926   1.537   8.056 -0.2445 -0.3501 -0.9383
  153SAPE  H13Y17035   3.818   1.664   8.006 -0.4356 -0.5482  0.2981
  153SAPE  C31417036   4.023   1.719   8.001  0.0946  0.2633  0.9472
  153SAPE  H14X17037   4.035   1.789   7.916  1.4808 -0.9693  0.0652
  153SAPE  H14Y17038   4.117   1.659   8.000 -0.4529 -0.7369  2.7221
  153SAPE  C31517039   4.007   1.799   8.130  0.5777 -0.0311 -0.0775
  153SAPE  H15X17040   4.006   1.719   8.207 -2.1652  0.8967  0.9737
  153SAPE  H15Y17041   3.905   1.843   8.125  0.5221 -0.2522 -1.4503
  153SAPE  C31617042   4.107   1.911   8.156 -0.2992 -0.4874 -1.4584
  153SAPE  H16X17043   4.136   1.964   8.063 -1.3280 -1.2156 -2.2151
  153SAPE  H16Y17044   4.208   1.875   8.184  0.0553 -0.6894 -2.9340
  153SAPE  C31717045   4.049   2.010   8.252 -0.7453  0.4551 -0.3531
  153SAPE  H17X17046   3.996   1.965   8.339  1.6932  0.3070  1.1672
  153SAPE  H17Y17047   3.975   2.068   8.194 -0.0201  0.7331 -1.0277
  153SAPE  C31817048   4.157   2.114   8.295  0.6964  0.3863  0.1819
  153SAPE  H18X17049   4.195   2.163   8.203 -2.7500  0.6843 -1.2280
  153SAPE  H18Y17050   4.240   2.068   8.352  0.1964 -1.3731 -0.4433
  153SAPE  H18Z17051   4.108   2.185   8.365 -0.9232 -1.6033  1.1842
  154SAPE     N17052   0.451   2.508   6.258  0.0684 -0.6337  0.0366
  154SAPE   HN117053   0.352   2.535   6.276 -0.3624 -1.3108 -1.1696
  154SAPE   HN217054   0.487   2.462   6.343 -0.6597 -2.7734 -0.7531
  154SAPE   HN317055   0.508   2.590   6.228 -0.1235 -0.5155 -0.0132
  154SAPE   C1217056   0.460   2.406   6.154 -0.1915  0.2554 -0.1253
  154SAPE  H12A17057   0.568   2.390   6.133  0.6584  1.5118  2.7984
  154SAPE  H12B17058   0.416   2.441   6.058  3.0371  0.3243 -1.6870
  154SAPE   C1117059   0.392   2.277   6.194 -0.5517  0.8507 -0.1435
  154SAPE  H11A17060   0.406   2.198   6.117 -1.7374 -0.2376  0.7148
  154SAPE  H11B17061   0.284   2.301   6.194 -1.4311 -2.5802 -0.5940
  154SAPE     P17062   0.557   2.148   6.355  0.0685  0.0135 -0.1352
  154SAPE   O1317063   0.554   2.023   6.274  0.3396  0.4581 -0.0760
  154SAPE   O1417064   0.673   2.237   6.354 -0.4857  0.5996  0.0814
  154SAPE   O1217065   0.430   2.228   6.326 -0.4792 -0.3365  0.1132
  154SAPE   O1117066   0.512   2.117   6.497 -0.1574 -0.2773 -0.3966
  154SAPE    C117067   0.412   2.018   6.531  0.0034 -0.2386  0.2174
  154SAPE    HA17068   0.320   2.079   6.543 -0.2122 -0.6662  0.7709
  154SAPE    HB17069   0.398   1.941   6.452  2.2974  0.6070 -1.1152
  154SAPE    C217070   0.464   1.942   6.661 -0.3375  0.0032 -0.3657
  154SAPE    HS17071   0.400   1.852   6.673 -1.4210  0.2482 -3.4855
  154SAPE   O2117072   0.468   2.033   6.773 -0.5559 -0.7543  0.1434
  154SAPE   C2117073   0.350   2.045   6.831 -0.1812  0.1016  0.0154
  154SAPE   O2217074   0.253   1.990   6.791 -0.3026 -0.3805  0.4540
  154SAPE   C2217075   0.364   2.142   6.944 -0.1148  0.4429 -0.2122
  154SAPE   H2R17076   0.380   2.249   6.918  2.9207  0.7264  2.1611
  154SAPE   H2S17077   0.273   2.142   7.008 -0.3427 -0.8574 -0.5213
  154SAPE    C317078   0.608   1.891   6.635  1.1194  0.2018  0.3630
  154SAPE    HX17079   0.675   1.978   6.619  1.1408  0.2095  0.4922
  154SAPE    HY17080   0.606   1.843   6.534 -3.6360  1.3550 -0.3625
  154SAPE   O3117081   0.650   1.805   6.741 -0.0376  0.0121  0.4477
  154SAPE   C3117082   0.612   1.674   6.724  0.2004 -0.9376  0.3473
  154SAPE   O3217083   0.539   1.627   6.637 -0.4829  0.2955  0.4041
  154SAPE   C3217084   0.689   1.596   6.827  0.1314 -0.6920  0.4848
  154SAPE   H2X17085   0.677   1.646   6.925 -0.6198 -0.3887  0.2417
  154SAPE   H2Y17086   0.798   1.604   6.804 -0.0178 -1.2979 -0.5062
  154SAPE   C2317087   0.492   2.111   7.025 -0.2085 -0.0787  0.4623
  154SAPE   H3R17088   0.579   2.081   6.962 -0.3802  2.9596 -1.3888
  154SAPE   H3S17089   0.481   2.026   7.096  4.9374 -1.3313  0.1659
  154SAPE   C2417090   0.535   2.238   7.103  0.1866 -0.1092  0.2727
  154SAPE   H4R17091   0.445   2.271   7.159 -0.5861  0.0175 -1.0146
  154SAPE   H4S17092   0.545   2.311   7.021 -0.8271  1.0401  1.1347
  154SAPE   C2517093   0.657   2.238   7.192 -0.2886  0.1617 -0.2727
  154SAPE   H5R17094   0.757   2.231   7.148  0.2723 -1.4790  1.1521
  154SAPE   C2617095   0.654   2.263   7.325 -0.4708  0.1509  0.1269
  154SAPE   H6R17096   0.752   2.256   7.374  0.3406 -0.8243 -1.5491
  154SAPE   C2717097   0.545   2.292   7.415 -0.2627 -0.0609  0.2594
  154SAPE   H7R17098   0.454   2.325   7.361 -1.9523 -0.0944  2.9021
  154SAPE   H7S17099   0.573   2.388   7.464  1.8911 -0.3099 -0.3695
  154SAPE   C2817100   0.502   2.175   7.505 -0.6099  0.2595 -0.3812
  154SAPE   H8R17101   0.488   2.076   7.458 -0.5708 -0.3372  0.8314
  154SAPE   C2917102   0.472   2.187   7.638  0.2531  0.6348 -0.0812
  154SAPE   H9R17103   0.443   2.098   7.696  1.1539  0.8610  0.7391
  154SAPE  C21017104   0.472   2.319   7.711  0.1554 -0.2600  0.0368
  154SAPE  H10R17105   0.374   2.370   7.701 -1.2862 -2.7429  0.8024
  154SAPE  H10S17106   0.543   2.380   7.651  0.0042 -1.9531 -1.9725
  154SAPE  C21117107   0.497   2.306   7.863 -0.4089  0.2081 -0.3636
  154SAPE  H11R17108   0.411   2.318   7.929 -0.9151 -0.3622 -0.8954
  154SAPE  C21217109   0.613   2.270   7.923  0.1073  0.7531 -0.0188
  154SAPE  H12R17110   0.604   2.246   8.030 -2.7783 -0.4427 -0.4458
  154SAPE  C21317111   0.740   2.227   7.863 -0.3968 -0.0368 -0.2898
  154SAPE  H13R17112   0.716   2.200   7.758 -0.8763 -0.5083 -0.0643
  154SAPE  H13S17113   0.778   2.137   7.917 -0.4394 -0.0354 -0.2574
  154SAPE  C21417114   0.837   2.342   7.865  0.1811  0.7425  0.2219
  154SAPE  H14R17115   0.794   2.436   7.824 -1.1502 -0.0875 -0.3731
  154SAPE  C21517116   0.966   2.332   7.906 -0.6058 -0.4090 -0.4406
  154SAPE  H15R17117   1.038   2.416   7.900 -0.4101 -0.5748 -0.4210
  154SAPE  C21617118   1.028   2.209   7.980  0.0748  0.1132 -0.2319
  154SAPE  H16R17119   1.130   2.186   7.941  0.7031 -1.5226  2.1550
  154SAPE  H16S17120   0.973   2.113   7.973 -0.5407  0.3738  0.8165
  154SAPE  C21717121   1.045   2.239   8.130  0.2465 -0.0074 -0.5490
  154SAPE  H17R17122   1.122   2.320   8.136  0.6043 -0.3413 -0.5694
  154SAPE  H17S17123   1.088   2.146   8.173  1.2604  0.8632  0.3858
  154SAPE  C21817124   0.920   2.288   8.199 -0.7124 -0.0863  0.3894
  154SAPE  H18R17125   0.832   2.223   8.176  0.8018 -2.3404  0.6281
  154SAPE  H18S17126   0.882   2.385   8.160 -0.6180 -0.0349  0.4275
  154SAPE  C21917127   0.934   2.301   8.351 -0.0465  0.4242 -0.1248
  154SAPE  H19R17128   0.964   2.201   8.388 -1.7756 -0.7271 -1.6810
  154SAPE  H19S17129   0.845   2.345   8.400 -0.7147 -0.3024 -0.6770
  154SAPE  C22017130   1.050   2.379   8.396  0.6158 -0.2792  0.7295
  154SAPE  H20R17131   1.053   2.385   8.507  0.3946 -1.0037  0.7752
  154SAPE  H20S17132   1.046   2.483   8.357  0.1819 -0.8268 -0.7164
  154SAPE  H20T17133   1.144   2.330   8.361 -0.7359 -3.1467  0.8196
  154SAPE   C3317134   0.649   1.445   6.836 -0.5439 -0.3915  0.4486
  154SAPE   H3X17135   0.687   1.391   6.746  0.0966 -0.4411  0.7432
  154SAPE   H3Y17136   0.539   1.435   6.839 -0.7222 -0.0976 -2.1420
  154SAPE   C3417137   0.700   1.379   6.966 -0.1300 -0.0865 -0.0640
  154SAPE   H4X17138   0.810   1.387   6.961 -0.2754  1.4618 -1.4249
  154SAPE   H4Y17139   0.675   1.271   6.955 -1.4380  0.3040 -1.1046
  154SAPE   C3517140   0.648   1.423   7.099  0.0831 -0.0431 -0.3685
  154SAPE   H5X17141   0.543   1.453   7.081 -0.4543 -1.4221  0.3359
  154SAPE   H5Y17142   0.693   1.519   7.132  0.2195 -0.3479  0.3482
  154SAPE   C3617143   0.652   1.309   7.208  0.1976 -0.3730  0.3193
  154SAPE   H6X17144   0.754   1.267   7.215  0.0969 -0.6984 -0.1096
  154SAPE   H6Y17145   0.582   1.227   7.179 -1.8903  1.1098  0.8856
  154SAPE   C3717146   0.612   1.364   7.339  0.1654 -0.0728 -0.2839
  154SAPE   H7X17147   0.506   1.395   7.329 -0.5790 -2.4726 -0.4765
  154SAPE   H7Y17148   0.666   1.452   7.381 -0.9938  1.0440 -1.0911
  154SAPE   C3817149   0.624   1.261   7.453 -0.1682  0.1634  0.1558
  154SAPE   H8X17150   0.731   1.232   7.458  0.3390  1.4086 -1.9345
  154SAPE   H8Y17151   0.556   1.175   7.434  0.7451 -0.6370  0.4683
  154SAPE   C3917152   0.588   1.322   7.593  0.6964 -0.1955 -0.2491
  154SAPE   H9X17153   0.487   1.365   7.603  0.6153 -0.9187  2.8936
  154SAPE   H9Y17154   0.649   1.414   7.605  0.5740 -0.2543  0.9187
  154SAPE  C31017155   0.615   1.221   7.703 -0.6324 -0.4613 -0.8301
  154SAPE  H10X17156   0.698   1.153   7.675 -2.2912 -1.7297 -3.0003
  154SAPE  H10Y17157   0.535   1.145   7.712 -0.6903 -0.3620 -0.4583
  154SAPE  C31117158   0.637   1.284   7.843 -0.3115 -0.2187 -0.7097
  154SAPE  H11X17159   0.561   1.364   7.856 -1.1193 -0.9966 -0.5725
  154SAPE  H11Y17160   0.741   1.322   7.859 -0.1471 -0.7944 -0.3646
  154SAPE  C31217161   0.601   1.189   7.957 -0.9988 -0.1883  0.0159
  154SAPE  H12X17162   0.654   1.092   7.949 -1.1283 -0.3571  0.9902
  154SAPE  H12Y17163   0.493   1.164   7.950 -0.6600 -1.4003 -1.3528
  154SAPE  C31317164   0.625   1.239   8.096 -0.1937  0.2941 -0.5573
  154SAPE  H13X17165   0.532   1.275   8.145  0.9961 -1.2947  3.1959
  154SAPE  H13Y17166   0.696   1.324   8.095 -1.1241  1.1149  0.4985
  154SAPE  C31417167   0.687   1.129   8.186 -0.2823 -0.3643 -0.5719
  154SAPE  H14X17168   0.796   1.126   8.167  0.5835  1.0784  3.2388
  154SAPE  H14Y17169   0.644   1.030   8.160  1.1862 -1.4665  0.9917
  154SAPE  C31517170   0.681   1.153   8.335 -1.1646 -0.3100  0.0050
  154SAPE  H15X17171   0.576   1.143   8.368 -0.8307 -2.1868  0.6002
  154SAPE  H15Y17172   0.720   1.257   8.348  0.5468 -0.8259 -0.7817
  154SAPE  C31617173   0.761   1.056   8.423  0.7936 -0.3785  0.1820
  154SAPE  H16X17174   0.746   1.075   8.531 -0.5650 -1.8503  0.2866
  154SAPE  H16Y17175   0.870   1.062   8.401  0.1850 -0.8330 -3.6638
  154SAPE  C31717176   0.722   0.910   8.405 -0.4068 -0.1082  0.1440
  154SAPE  H17X17177   0.743   0.877   8.301 -1.7468  1.5955 -0.7075
  154SAPE  H17Y17178   0.613   0.908   8.425 -0.0919 -0.9199  1.9967
  154SAPE  C31817179   0.789   0.821   8.507 -0.0168  0.3081  0.2557
  154SAPE  H18X17180   0.900   0.816   8.503 -0.0729 -1.0461  0.0227
  154SAPE  H18Y17181   0.739   0.723   8.497 -1.5007  0.7826  2.3752
  154SAPE  H18Z17182   0.756   0.851   8.609  1.6170 -0.0507  0.9216
  155SAPE     N17183   1.508   2.283   6.365 -0.3506 -0.5425  0.4955
  155SAPE   HN117184   1.524   2.216   6.444  0.9833  0.8871  1.4898
  155SAPE   HN217185   1.544   2.371   6.408 -1.6819  0.1857  0.1507
  155SAPE   HN317186   1.406   2.298   6.356 -0.3906 -1.0915  0.0105
  155SAPE   C1217187   1.562   2.240   6.226  0.1250  0.3718  0.7988
  155SAPE  H12A17188   1.537   2.319   6.152 -2.8808 -1.7329 -0.6239
  155SAPE  H12B17189   1.509   2.147   6.199  1.4110  0.1701 -1.1705
  155SAPE   C1117190   1.711   2.203   6.235 -0.6747 -0.6806  0.0731
  155SAPE  H11A17191   1.758   2.292   6.283 -1.8304  1.1749 -2.0464
  155SAPE  H11B17192   1.775   2.205   6.144  0.9081  0.3040  1.1456
  155SAPE     P17193   1.731   1.943   6.245 -0.0037 -0.0181 -0.0771
  155SAPE   O1317194   1.623   1.934   6.144  0.0656 -0.4104  0.6841
  155SAPE   O1417195   1.863   1.890   6.210 -0.7580 -0.0759 -0.1950
  155SAPE   O1217196   1.742   2.089   6.309 -0.5243 -0.1255 -0.7222
  155SAPE   O1117197   1.688   1.861   6.369 -0.4442  0.0940  0.3408
  155SAPE    C117198   1.598   1.912   6.468  0.0544  0.4779 -0.7098
  155SAPE    HA17199   1.644   2.004   6.511  0.4470 -0.4418  0.9191
  155SAPE    HB17200   1.496   1.930   6.429 -0.7591 -0.6013  0.8230
  155SAPE    C217201   1.590   1.809   6.586 -0.4069  0.2330 -1.1539
  155SAPE    HS17202   1.509   1.842   6.655  1.5185  0.4486  1.1650
  155SAPE   O2117203   1.707   1.793   6.670  0.9338 -0.8238 -0.0530
  155SAPE   C2117204   1.749   1.906   6.724  0.1318 -0.0720 -0.1879
  155SAPE   O2217205   1.687   2.016   6.729  0.3087  0.1738  0.0849
  155SAPE   C2217206   1.879   1.877   6.792  0.1830 -0.2445 -0.2859
  155SAPE   H2R17207   1.958   1.831   6.729  0.2720  0.5716 -0.7857
  155SAPE   H2S17208   1.919   1.974   6.827 -0.9183  0.2874 -0.4517
  155SAPE    C317209   1.532   1.676   6.542  0.4095  0.4466  0.3523
  155SAPE    HX17210   1.598   1.602   6.491  1.1862  2.5318 -1.8790
  155SAPE    HY17211   1.447   1.707   6.478 -0.6430  3.5019  2.9385
  155SAPE   O3117212   1.475   1.613   6.658  0.4092 -0.0942 -0.2438
  155SAPE   C3117213   1.555   1.533   6.722  0.7113  0.1173  0.1002
  155SAPE   O3217214   1.674   1.516   6.703  0.0940  0.0307 -0.1403
  155SAPE   C3217215   1.474   1.451   6.825 -0.1115 -0.5366  0.4964
  155SAPE   H2X17216   1.511   1.348   6.805  1.3607  0.4262 -2.3486
  155SAPE   H2Y17217   1.371   1.446   6.784  0.7811  2.2633 -2.5667
  155SAPE   C2317218   1.858   1.799   6.924  0.2655  0.3352  0.8487
  155SAPE   H3R17219   1.830   1.694   6.897 -1.3600  0.6281  1.2847
  155SAPE   H3S17220   1.777   1.840   6.987  1.1474  3.5452  0.0839
  155SAPE   C2417221   1.984   1.802   7.020 -0.2229  0.2667 -0.3032
  155SAPE   H4R17222   2.070   1.750   6.971 -0.0318  0.3094 -0.0112
  155SAPE   H4S17223   1.957   1.724   7.094  2.6523 -0.3111  0.2689
  155SAPE   C2517224   2.022   1.940   7.065 -0.0833  0.5531 -0.1538
  155SAPE   H5R17225   2.094   1.995   7.003  0.4187  2.6720  2.1421
  155SAPE   C2617226   1.989   1.991   7.185  0.2448 -0.4952 -0.1193
  155SAPE   H6R17227   2.010   2.098   7.199  0.4013 -0.7355  1.6352
  155SAPE   C2717228   1.888   1.935   7.276  0.3260 -0.4114 -0.8411
  155SAPE   H7R17229   1.830   1.862   7.215  0.1600  2.0919 -3.9331
  155SAPE   H7S17230   1.818   2.018   7.299 -0.6416 -1.2282 -0.7817
  155SAPE   C2817231   1.962   1.875   7.400  0.4634  0.3624 -0.0703
  155SAPE   H8R17232   2.055   1.823   7.375  1.2043  0.8739  1.5207
  155SAPE   C2917233   1.928   1.880   7.532 -0.3161  0.5350  0.3319
  155SAPE   H9R17234   1.988   1.818   7.600  1.1433  0.1084 -1.2694
  155SAPE  C21017235   1.809   1.945   7.590  0.1151 -0.2464 -0.0047
  155SAPE  H10R17236   1.743   1.873   7.643 -1.4741  2.0636  1.3298
  155SAPE  H10S17237   1.736   1.994   7.522 -2.2001 -2.3384  0.7977
  155SAPE  C21117238   1.842   2.044   7.700 -0.1482 -0.5913 -0.1835
  155SAPE  H11R17239   1.852   2.150   7.673  2.3964 -0.5140  0.7713
  155SAPE  C21217240   1.868   2.017   7.832 -0.2191  0.1125  0.0724
  155SAPE  H12R17241   1.887   2.096   7.906 -0.0185  0.9845 -0.8905
  155SAPE  C21317242   1.855   1.877   7.888 -0.2073 -0.3601 -0.6879
  155SAPE  H13R17243   1.914   1.821   7.812  0.1972  0.4208 -0.9584
  155SAPE  H13S17244   1.753   1.833   7.894  0.5560 -2.1506  0.1583
  155SAPE  C21417245   1.933   1.838   8.012  0.3789  0.5952  0.1687
  155SAPE  H14R17246   2.037   1.804   8.000  0.9306  1.2084  2.5779
  155SAPE  C21517247   1.892   1.870   8.138 -0.8230 -0.8179 -0.4000
  155SAPE  H15R17248   1.949   1.843   8.228 -1.9607  2.1398  1.3517
  155SAPE  C21617249   1.759   1.934   8.171 -0.6810  0.6348 -0.1547
  155SAPE  H16R17250   1.686   1.923   8.088  1.7029  2.7025 -2.7368
  155SAPE  H16S17251   1.766   2.043   8.191 -1.2055  0.4325  1.3298
  155SAPE  C21717252   1.699   1.874   8.299 -0.2743 -0.3827  0.5175
  155SAPE  H17R17253   1.703   1.763   8.303  0.3788 -0.4349 -1.0928
  155SAPE  H17S17254   1.593   1.904   8.313 -0.3021 -1.2722  2.6352
  155SAPE  C21817255   1.765   1.940   8.425  0.1961 -0.8514  0.1773
  155SAPE  H18R17256   1.751   2.048   8.407 -1.5981 -1.3328 -1.5695
  155SAPE  H18S17257   1.876   1.944   8.419  0.2553  0.5975  1.5363
  155SAPE  C21917258   1.719   1.886   8.555 -0.3145 -0.4629  0.4467
  155SAPE  H19R17259   1.730   1.776   8.562  0.0828 -0.5135 -0.8475
  155SAPE  H19S17260   1.609   1.906   8.559 -0.2005 -0.0351  2.4044
  155SAPE  C22017261   1.782   1.961   8.674  0.2178  0.8279  0.4850
  155SAPE  H20R17262   1.748   1.898   8.759 -0.4160 -1.6777 -1.5117
  155SAPE  H20S17263   1.729   2.059   8.670 -1.8629 -0.0112  3.2967
  155SAPE  H20T17264   1.892   1.969   8.661  0.6625 -2.6679  1.0785
  155SAPE   C3317265   1.497   1.488   6.974 -0.1324 -0.6528 -0.0117
  155SAPE   H3X17266   1.606   1.494   6.992 -0.1455 -0.1310 -0.1019
  155SAPE   H3Y17267   1.451   1.417   7.046  0.6245  0.4729  1.6484
  155SAPE   C3417268   1.444   1.633   7.013 -0.2179 -0.4297 -0.3815
  155SAPE   H4X17269   1.340   1.610   7.043 -0.0545 -2.0063 -0.8904
  155SAPE   H4Y17270   1.441   1.701   6.925  3.1370 -0.4944 -0.6922
  155SAPE   C3517271   1.526   1.699   7.129 -0.0861  0.2877  0.5387
  155SAPE   H5X17272   1.529   1.810   7.116 -0.9894 -0.0413 -4.2766
  155SAPE   H5Y17273   1.633   1.681   7.107 -0.0030  1.9871 -0.6606
  155SAPE   C3617274   1.479   1.654   7.265  0.1633  0.3116 -0.5536
  155SAPE   H6X17275   1.477   1.543   7.262 -3.0951  0.2824 -2.6365
  155SAPE   H6Y17276   1.380   1.703   7.277 -0.4352 -1.3551  2.4368
  155SAPE   C3717277   1.574   1.701   7.377  0.0407  0.6479 -0.2788
  155SAPE   H7X17278   1.604   1.805   7.352 -0.6967  0.7236 -0.8757
  155SAPE   H7Y17279   1.664   1.637   7.388  0.4652  1.0941 -1.0426
  155SAPE   C3817280   1.509   1.704   7.513 -0.4900 -0.5492 -0.1478
  155SAPE   H8X17281   1.419   1.769   7.516  0.5324  0.9083 -0.1612
  155SAPE   H8Y17282   1.579   1.757   7.581 -3.1875  0.5484  1.9649
  155SAPE   C3917283   1.454   1.575   7.568 -0.4711 -0.4243  0.2649
  155SAPE   H9X17284   1.534   1.499   7.577  0.6548  0.8919  2.1116
  155SAPE   H9Y17285   1.374   1.538   7.500 -0.0576  0.0357 -0.4785
  155SAPE  C31017286   1.398   1.599   7.708  0.0062  0.0906  0.0104
  155SAPE  H10X17287   1.345   1.504   7.734 -2.5665  0.2513 -3.8519
  155SAPE  H10Y17288   1.315   1.673   7.715 -1.2097 -1.3052  1.3200
  155SAPE  C31117289   1.511   1.628   7.807 -0.3583 -0.4452 -0.1697
  155SAPE  H11X17290   1.597   1.687   7.767  1.4159 -2.3281  0.6982
  155SAPE  H11Y17291   1.541   1.531   7.851 -0.5013 -0.6179 -0.4472
  155SAPE  C31217292   1.474   1.724   7.927 -0.7042  0.2220  0.8164
  155SAPE  H12X17293   1.440   1.825   7.896 -2.4679 -0.3370  0.8146
  155SAPE  H12Y17294   1.563   1.748   7.990 -0.6905  2.5048 -0.0130
  155SAPE  C31317295   1.377   1.659   8.025 -1.0316  0.9214  0.5284
  155SAPE  H13X17296   1.430   1.566   8.054 -0.5029  0.3031 -2.1580
  155SAPE  H13Y17297   1.291   1.617   7.968  1.6273 -1.5255 -2.0032
  155SAPE  C31417298   1.350   1.751   8.142 -0.8811 -0.2805 -0.2700
  155SAPE  H14X17299   1.317   1.851   8.106  1.4350  2.1467  3.6563
  155SAPE  H14Y17300   1.445   1.773   8.194 -1.7803 -1.3432  1.9778
  155SAPE  C31517301   1.265   1.701   8.261  0.7811  0.5379  0.4553
  155SAPE  H15X17302   1.291   1.593   8.270 -1.0686  0.1790  2.0390
  155SAPE  H15Y17303   1.157   1.710   8.239  1.1847  0.4296 -1.7023
  155SAPE  C31617304   1.293   1.782   8.388  0.4636  0.1251  0.5399
  155SAPE  H16X17305   1.276   1.892   8.379 -0.5083 -0.1417 -1.2254
  155SAPE  H16Y17306   1.400   1.770   8.416 -0.3919 -0.9742  3.7459
  155SAPE  C31717307   1.213   1.722   8.510  0.0709  0.3516 -0.0604
  155SAPE  H17X17308   1.277   1.733   8.599  1.4031 -2.2072 -0.6129
  155SAPE  H17Y17309   1.206   1.613   8.489  1.2819  0.3339 -0.4674
  155SAPE  C31817310   1.071   1.780   8.524  0.3602  0.5870  0.1282
  155SAPE  H18X17311   1.009   1.767   8.432 -1.3081  1.7473  1.0191
  155SAPE  H18Y17312   1.070   1.891   8.532  1.0593  0.5918  0.1333
  155SAPE  H18Z17313   1.016   1.739   8.612  1.5703  0.5667  0.8940
  156SAPE     N17314   4.786   2.591   5.990  0.0648 -0.2715  0.5858
  156SAPE   HN117315   4.696   2.615   5.943  1.0072 -0.6129 -1.5197
  156SAPE   HN217316   4.779   2.603   6.093 -0.5431 -0.1098  0.5334
  156SAPE   HN317317   4.863   2.652   5.955  2.7282 -2.9735  1.3046
  156SAPE   C1217318   4.837   2.455   5.957  0.7418  0.5529 -0.0090
  156SAPE  H12A17319   4.867   2.463   5.850 -1.0244  3.2160 -0.4141
  156SAPE  H12B17320   4.756   2.379   5.967  0.9189  0.2507 -0.7556
  156SAPE   C1117321   4.952   2.404   6.046 -0.4644 -0.4936  0.1662
  156SAPE  H11A17322   5.021   2.489   6.026 -1.2485  0.2465  0.5492
  156SAPE  H11B17323   4.996   2.304   6.026  0.0965 -0.4774  1.2256
  156SAPE     P17324   5.013   2.381   6.294 -0.0661  0.3412 -0.1263
  156SAPE   O1317325   4.979   2.243   6.333 -0.5620 -0.8025 -0.3344
  156SAPE   O1417326   5.146   2.416   6.256 -0.7976 -0.5176  0.5921
  156SAPE   O1217327   4.908   2.413   6.180  0.0195 -0.0475 -0.0041
  156SAPE   O1117328   4.964   2.495   6.384  0.0548 -0.0611 -0.2763
  156SAPE    C117329   4.882   2.472   6.503 -0.4821  0.3836 -0.7211
  156SAPE    HA17330   4.827   2.567   6.521  1.1892  1.3702 -0.6795
  156SAPE    HB17331   4.804   2.393   6.493  0.3914 -0.8556  1.5312
  156SAPE    C217332   4.963   2.450   6.630  0.0346  0.6046  0.0799
  156SAPE    HS17333   5.036   2.368   6.618  1.5188  1.8553  0.3017
  156SAPE   O2117334   4.875   2.444   6.744  0.1549  0.4732 -0.1392
  156SAPE   C2117335   4.922   2.370   6.845  0.3910 -0.4434 -0.3251
  156SAPE   O2217336   5.019   2.295   6.843  0.0521  0.0354  0.2088
  156SAPE   C2217337   4.832   2.395   6.963 -0.1529 -0.1502  0.2419
  156SAPE   H2R17338   4.729   2.388   6.920  1.1328 -0.3369 -3.1484
  156SAPE   H2S17339   4.845   2.307   7.030  2.6612 -0.8257 -1.0727
  156SAPE    C317340   5.059   2.579   6.657  0.4391  0.2529 -0.5814
  156SAPE    HX17341   4.992   2.667   6.660  0.8861  0.6790 -1.9866
  156SAPE    HY17342   5.123   2.608   6.571 -0.8089  1.3395 -1.1869
  156SAPE   O3117343   5.132   2.557   6.777 -0.5886 -0.2194 -0.2377
  156SAPE   C3117344   5.244   2.488   6.763 -0.1833  0.3061  0.2808
  156SAPE   O3217345   5.282   2.435   6.658  0.5423  0.4795 -1.1446
  156SAPE   C3217346   5.329   2.492   6.884  0.1760 -0.7337  0.5297
  156SAPE   H2X17347   5.429   2.493   6.837 -0.6728 -1.0412 -1.3549
  156SAPE   H2Y17348   5.322   2.399   6.944  0.6690 -0.9112  0.3174
  156SAPE   C2317349   4.843   2.523   7.044  0.0302 -0.1788 -0.1578
  156SAPE   H3R17350   4.745   2.531   7.096  1.6524  0.3137  3.1141
  156SAPE   H3S17351   4.856   2.616   6.984 -2.1497 -0.2826 -0.8870
  156SAPE   C2417352   4.939   2.525   7.167  0.1296  0.1439  0.6382
  156SAPE   H4R17353   4.942   2.628   7.208 -0.3655  0.4281 -0.0208
  156SAPE   H4S17354   5.030   2.506   7.107 -1.2114  0.5662 -1.6524
  156SAPE   C2517355   4.915   2.422   7.271  0.0048 -0.2709 -0.5278
  156SAPE   H5R17356   4.939   2.319   7.242 -0.7746 -0.1429 -1.7080
  156SAPE   C2617357   4.865   2.436   7.396  0.7899  0.3701  0.3217
  156SAPE   H6R17358   4.864   2.335   7.439  0.2571 -0.2738 -1.1440
  156SAPE   C2717359   4.805   2.559   7.465  0.6010  0.2882  0.7906
  156SAPE   H7R17360   4.732   2.604   7.395  1.7201  0.2173 -0.4611
  156SAPE   H7S17361   4.876   2.643   7.481 -0.6158  1.1224  2.0001
  156SAPE   C2817362   4.742   2.514   7.590 -0.5820 -0.1560 -0.8401
  156SAPE   H8R17363   4.664   2.437   7.586  1.7071 -2.7544  0.8521
  156SAPE   C2917364   4.777   2.559   7.712  0.1716 -0.7443 -0.1301
  156SAPE   H9R17365   4.724   2.516   7.798  2.0171  0.0402  1.4807
  156SAPE  C21017366   4.881   2.659   7.750  0.3781 -0.3046 -0.3780
  156SAPE  H10R17367   4.841   2.732   7.824  0.8644  0.9524 -1.3255
  156SAPE  H10S17368   4.906   2.727   7.666 -0.4754  1.9155  1.0917
  156SAPE  C21117369   5.006   2.600   7.805  0.2382  0.0051 -0.2150
  156SAPE  H11R17370   5.082   2.568   7.732  1.0366  0.0558  0.5926
  156SAPE  C21217371   5.035   2.579   7.936  0.5151 -0.3465  0.0523
  156SAPE  H12R17372   5.133   2.541   7.970  1.0252  0.6760 -0.2393
  156SAPE  C21317373   4.950   2.607   8.057  0.0696 -0.0580  0.5308
  156SAPE  H13R17374   4.882   2.690   8.028  0.7072 -0.5283 -2.7385
  156SAPE  H13S17375   5.024   2.641   8.133  2.4848 -3.4053 -0.0849
  156SAPE  C21417376   4.870   2.492   8.112 -0.1288 -0.2495 -0.1329
  156SAPE  H14R17377   4.787   2.469   8.043  0.9892  0.7493 -1.8962
  156SAPE  C21517378   4.895   2.431   8.225  0.0223  0.3264  0.6862
  156SAPE  H15R17379   4.835   2.343   8.253  0.4149 -0.6222 -1.2873
  156SAPE  C21617380   5.007   2.451   8.326  0.5194 -0.6608 -0.2835
  156SAPE  H16R17381   4.977   2.435   8.432  1.5261 -1.3020 -0.0680
  156SAPE  H16S17382   5.051   2.551   8.310 -1.1417 -0.2190 -2.6309
  156SAPE  C21717383   5.123   2.347   8.301  0.4139  0.1773 -0.5948
  156SAPE  H17R17384   5.219   2.373   8.351 -1.0635  2.4598  1.2994
  156SAPE  H17S17385   5.131   2.365   8.192 -1.0920 -0.2356 -0.7943
  156SAPE  C21817386   5.083   2.202   8.328  0.4049 -0.1698 -0.3649
  156SAPE  H18R17387   4.984   2.168   8.291 -0.5108  1.4388  0.5307
  156SAPE  H18S17388   5.079   2.205   8.438  1.8028  0.0360 -0.3002
  156SAPE  C21917389   5.195   2.111   8.274  0.3215 -0.8674  0.1101
  156SAPE  H19R17390   5.290   2.160   8.305 -0.1354 -1.1423  2.1152
  156SAPE  H19S17391   5.198   2.108   8.163  2.2071 -0.2782  0.1108
  156SAPE  C22017392   5.195   1.976   8.345  0.0378  0.1114  0.2185
  156SAPE  H20R17393   5.263   1.905   8.292  1.0639  0.5236  0.9553
  156SAPE  H20S17394   5.092   1.935   8.355 -0.0335  0.3753  0.5712
  156SAPE  H20T17395   5.249   1.987   8.442  1.2261  1.6679 -0.5599
  156SAPE   C3317396   5.294   2.611   6.973 -1.0351  0.3132 -0.0239
  156SAPE   H3X17397   5.186   2.599   6.998 -0.8378  0.8470  1.1346
  156SAPE   H3Y17398   5.311   2.708   6.922 -2.1039 -0.5078 -2.0719
  156SAPE   C3417399   5.389   2.605   7.093  0.2321 -0.8291 -0.7610
  156SAPE   H4X17400   5.491   2.631   7.059  0.6418  1.4697  1.8268
  156SAPE   H4Y17401   5.389   2.505   7.142 -1.7453 -0.0940  0.9249
  156SAPE   C3517402   5.346   2.686   7.211  0.1675 -0.6889  0.6584
  156SAPE   H5X17403   5.235   2.685   7.210  0.1591 -0.4135 -0.8848
  156SAPE   H5Y17404   5.383   2.790   7.212 -1.8356  0.1419 -1.3346
  156SAPE   C3617405   5.397   2.639   7.350 -0.2833  0.4267  0.2367
  156SAPE   H6X17406   5.508   2.634   7.350 -0.2073  1.4493 -1.0976
  156SAPE   H6Y17407   5.368   2.533   7.365 -2.1441  0.9079  0.2927
  156SAPE   C3717408   5.358   2.732   7.475 -0.5390 -0.3844 -0.7343
  156SAPE   H7X17409   5.248   2.745   7.486 -0.4627  0.4660 -0.9085
  156SAPE   H7Y17410   5.408   2.829   7.455  0.9568 -1.4983 -2.6499
  156SAPE   C3817411   5.422   2.680   7.611  0.8558  0.5878  0.1780
  156SAPE   H8X17412   5.533   2.686   7.613  1.0477 -1.9173  2.0883
  156SAPE   H8Y17413   5.387   2.577   7.631  1.6589  0.3520  0.4378
  156SAPE   C3917414   5.378   2.760   7.736 -0.4559 -0.0757  0.4181
  156SAPE   H9X17415   5.269   2.778   7.744  0.0853  3.3289  1.5165
  156SAPE   H9Y17416   5.435   2.851   7.709  0.7807 -1.6240 -2.8147
  156SAPE  C31017417   5.429   2.695   7.868  0.3540  0.0892 -0.1036
  156SAPE  H10X17418   5.533   2.657   7.859  0.2249 -0.7700  1.6931
  156SAPE  H10Y17419   5.370   2.607   7.900 -0.6421  0.6080 -0.4712
  156SAPE  C31117420   5.416   2.801   7.986  0.1482 -0.3111  0.1771
  156SAPE  H11X17421   5.329   2.866   7.964 -1.2624 -2.2128 -0.1507
  156SAPE  H11Y17422   5.504   2.864   7.964 -0.1011 -0.8956 -2.8670
  156SAPE  C31217423   5.411   2.751   8.128  0.0454  0.5604  0.5164
  156SAPE  H12X17424   5.496   2.680   8.141  0.0084  0.3599 -0.2829
  156SAPE  H12Y17425   5.323   2.690   8.154 -1.3277  2.8295  1.5358
  156SAPE  C31317426   5.425   2.865   8.237 -0.0063 -0.2124  0.3920
  156SAPE  H13X17427   5.366   2.948   8.194  0.4021 -0.1110  0.0222
  156SAPE  H13Y17428   5.530   2.900   8.237  0.0174 -0.2819  0.3359
  156SAPE  C31417429   5.375   2.823   8.374  0.0226 -1.0589 -0.1766
  156SAPE  H14X17430   5.397   2.717   8.400  0.3488 -0.4961  2.1037
  156SAPE  H14Y17431   5.264   2.828   8.370  0.0954  0.1400 -1.7694
  156SAPE  C31517432   5.433   2.928   8.478  0.9474  0.4274 -0.0947
  156SAPE  H15X17433   5.423   3.031   8.437  0.7903 -0.5216 -2.5890
  156SAPE  H15Y17434   5.541   2.915   8.501  0.9742  1.2236  0.2659
  156SAPE  C31617435   5.354   2.911   8.607  0.5883  0.5632 -0.0912
  156SAPE  H16X17436   5.395   2.825   8.664 -0.9818 -1.3255 -1.6406
  156SAPE  H16Y17437   5.249   2.882   8.587  0.6540  0.0999  0.2120
  156SAPE  C31717438   5.353   3.030   8.703 -0.4836  0.9263 -0.1341
  156SAPE  H17X17439   5.302   3.115   8.655 -2.1960 -0.2129 -0.4040
  156SAPE  H17Y17440   5.461   3.051   8.719 -0.5441  0.8277  0.4271
  156SAPE  C31817441   5.287   3.018   8.840  0.5377  0.1505  0.1559
  156SAPE  H18X17442   5.350   2.973   8.919  0.7990  1.3026  0.6224
  156SAPE  H18Y17443   5.189   2.967   8.835  1.2786 -1.2354 -0.7229
  156SAPE  H18Z17444   5.282   3.123   8.877  2.4795  0.4195 -0.2188
  157SAPE     N17445   3.188   3.351   6.276 -0.4751 -0.2217 -0.2556
  157SAPE   HN117446   3.170   3.267   6.218 -2.4394 -1.4401  1.9367
  157SAPE   HN217447   3.169   3.435   6.217  2.0777  1.7142  1.4653
  157SAPE   HN317448   3.290   3.359   6.290 -0.4445 -0.4556 -0.3335
  157SAPE   C1217449   3.111   3.357   6.409  0.3719 -0.0600  0.0776
  157SAPE  H12A17450   3.003   3.348   6.386 -0.1596  1.6568  1.6753
  157SAPE  H12B17451   3.137   3.443   6.474  1.6048 -1.0907  1.0166
  157SAPE   C1117452   3.148   3.244   6.504  0.1752 -0.0752  0.3424
  157SAPE  H11A17453   3.089   3.246   6.598  0.1113  0.7566  0.2891
  157SAPE  H11B17454   3.253   3.254   6.538  0.2905  1.9236 -0.5048
  157SAPE     P17455   3.134   2.977   6.520 -0.0306  0.2184  0.2140
  157SAPE   O1317456   3.073   2.874   6.431  0.5153 -0.2795 -0.5257
  157SAPE   O1417457   3.276   2.955   6.555 -0.3734 -0.6816  0.2594
  157SAPE   O1217458   3.135   3.120   6.441  0.5639 -0.2723 -0.1137
  157SAPE   O1117459   3.039   3.005   6.653 -0.5770  0.0284  0.1033
  157SAPE    C117460   3.093   2.994   6.781 -0.9012  0.5911 -0.6604
  157SAPE    HA17461   3.201   3.023   6.781 -0.2136 -1.7398 -0.4846
  157SAPE    HB17462   3.037   3.059   6.852 -1.7050  0.0483 -0.7972
  157SAPE    C217463   3.087   2.853   6.839 -0.2848 -0.6030 -0.0014
  157SAPE    HS17464   3.141   2.786   6.769 -1.6515 -0.8424 -0.8786
  157SAPE   O2117465   2.949   2.815   6.862  0.1635  0.7512  0.2640
  157SAPE   C2117466   2.882   2.754   6.761  0.1972 -0.4151 -0.5761
  157SAPE   O2217467   2.924   2.671   6.678 -0.2731 -0.3248 -0.1239
  157SAPE   C2217468   2.737   2.793   6.767  0.0335  0.7672  0.0432
  157SAPE   H2R17469   2.731   2.904   6.763  2.2187  0.8947 -1.6928
  157SAPE   H2S17470   2.685   2.761   6.674 -1.0186  0.8586  0.5880
  157SAPE    C317471   3.160   2.837   6.973 -0.5218  0.5637 -0.4630
  157SAPE    HX17472   3.146   2.728   6.992  0.6518  0.0642 -2.1571
  157SAPE    HY17473   3.120   2.903   7.052 -0.6406  1.5728 -1.3385
  157SAPE   O3117474   3.305   2.870   6.963 -0.5720 -0.0727 -0.0063
  157SAPE   C3117475   3.391   2.771   6.931 -1.1238  0.6767  0.3707
  157SAPE   O3217476   3.368   2.653   6.918  0.9905  0.9120  0.1313
  157SAPE   C3217477   3.540   2.816   6.915 -0.6446 -0.0681 -0.9203
  157SAPE   H2X17478   3.550   2.925   6.891  2.2523 -0.0368  0.0407
  157SAPE   H2Y17479   3.584   2.758   6.831 -0.3910 -0.6064 -0.4211
  157SAPE   C2317480   2.662   2.750   6.892  0.6575 -0.2309  0.0270
  157SAPE   H3R17481   2.729   2.785   6.973  3.4002 -2.0999 -1.2793
  157SAPE   H3S17482   2.655   2.639   6.893 -0.0236 -0.1982 -0.1993
  157SAPE   C2417483   2.514   2.798   6.890  0.6226 -1.0550 -0.0602
  157SAPE   H4R17484   2.470   2.778   6.790 -2.5451  3.7776  0.0190
  157SAPE   H4S17485   2.520   2.908   6.908  0.5322 -1.3696  2.1627
  157SAPE   C2517486   2.426   2.726   6.996 -0.1135  0.4816 -0.4662
  157SAPE   H5R17487   2.415   2.618   6.977 -1.4090  0.5681 -0.2696
  157SAPE   C2617488   2.362   2.772   7.104  0.1493 -0.4450  0.1209
  157SAPE   H6R17489   2.308   2.699   7.166  0.0613  2.0147  3.1604
  157SAPE   C2717490   2.385   2.909   7.165 -0.4305  0.3796  0.3727
  157SAPE   H7R17491   2.452   2.965   7.096  1.5209 -1.7931  0.3656
  157SAPE   H7S17492   2.444   2.901   7.258  0.0243  0.6492  0.1165
  157SAPE   C2817493   2.257   2.975   7.194  0.6641 -0.9449  0.1010
  157SAPE   H8R17494   2.221   3.025   7.103  2.4261  2.1469  0.9538
  157SAPE   C2917495   2.176   2.972   7.302 -0.9738 -0.8035 -0.2305
  157SAPE   H9R17496   2.078   3.021   7.309 -1.1000 -0.7349 -2.0928
  157SAPE  C21017497   2.219   2.896   7.425 -0.2398 -0.0363 -0.2030
  157SAPE  H10R17498   2.279   2.808   7.396  3.4236  1.5875  1.7979
  157SAPE  H10S17499   2.127   2.857   7.473 -0.0897  0.2601  0.3322
  157SAPE  C21117500   2.296   2.976   7.524 -0.4315 -0.6447  0.5384
  157SAPE  H11R17501   2.358   3.057   7.483  2.0297 -2.1086  1.1629
  157SAPE  C21217502   2.288   2.959   7.658  0.1018 -0.3456  0.6642
  157SAPE  H12R17503   2.327   3.030   7.732  0.1932  0.3776 -0.0598
  157SAPE  C21317504   2.218   2.854   7.736  0.5439 -0.0763  0.2182
  157SAPE  H13R17505   2.285   2.775   7.775 -0.4370 -0.0550  2.0591
  157SAPE  H13S17506   2.152   2.801   7.664 -1.1485  1.9333  0.1905
  157SAPE  C21417507   2.119   2.915   7.837  0.3341 -0.2159  0.0506
  157SAPE  H14R17508   2.054   2.997   7.802 -0.3999 -1.3920 -1.4412
  157SAPE  C21517509   2.111   2.883   7.963 -0.0106  0.7764 -0.2960
  157SAPE  H15R17510   2.032   2.932   8.021 -0.7658 -1.5233  0.7495
  157SAPE  C21617511   2.180   2.768   8.034 -0.4242  0.4926  0.6097
  157SAPE  H16R17512   2.274   2.802   8.083 -1.6550 -0.3424  3.7516
  157SAPE  H16S17513   2.201   2.683   7.966 -2.5827 -0.2748  0.8234
  157SAPE  C21717514   2.096   2.711   8.147 -0.3741 -0.4389  1.1506
  157SAPE  H17R17515   2.159   2.629   8.189  3.2342  2.0784  1.1227
  157SAPE  H17S17516   1.999   2.685   8.099  1.6307  1.5189 -4.8157
  157SAPE  C21817517   2.080   2.813   8.267  0.3074 -0.5067 -0.2572
  157SAPE  H18R17518   1.986   2.872   8.264  0.2649 -0.5276  0.5714
  157SAPE  H18S17519   2.155   2.895   8.255  1.2292 -0.8543  2.5025
  157SAPE  C21917520   2.107   2.754   8.402  0.4549 -0.5535 -0.3061
  157SAPE  H19R17521   2.206   2.705   8.408  1.0373  0.3338 -2.0845
  157SAPE  H19S17522   2.030   2.679   8.430 -1.0317  0.8119 -0.5631
  157SAPE  C22017523   2.100   2.853   8.523 -0.5795  0.3882  0.6730
  157SAPE  H20R17524   2.004   2.909   8.521  0.3687  2.0923 -1.8364
  157SAPE  H20S17525   2.174   2.935   8.514 -1.6664  1.2810 -0.4039
  157SAPE  H20T17526   2.112   2.795   8.618 -1.4111 -1.1651 -0.1288
  157SAPE   C3317527   3.622   2.791   7.047 -0.5485 -0.4459 -0.4746
  157SAPE   H3X17528   3.612   2.686   7.083 -1.3250  0.0673  0.8625
  157SAPE   H3Y17529   3.584   2.857   7.127  1.1849 -0.6822  0.6074
  157SAPE   C3417530   3.773   2.809   7.031 -0.2420  0.8311  0.0500
  157SAPE   H4X17531   3.789   2.895   6.962  0.9210 -0.2134 -1.0387
  157SAPE   H4Y17532   3.810   2.721   6.974  0.6082  0.3328  1.3170
  157SAPE   C3517533   3.847   2.830   7.160  0.4265  0.5542 -0.3379
  157SAPE   H5X17534   3.777   2.900   7.211  0.4774 -0.1746  0.7859
  157SAPE   H5Y17535   3.947   2.878   7.150 -0.1035  1.6010 -0.8004
  157SAPE   C3617536   3.849   2.704   7.254 -0.4675 -0.2625  0.5859
  157SAPE   H6X17537   3.946   2.656   7.228  0.4610  1.2272  1.1750
  157SAPE   H6Y17538   3.764   2.636   7.232 -1.1284  1.2259 -1.9213
  157SAPE   C3717539   3.860   2.752   7.406 -0.3611 -0.1316  0.4710
  157SAPE   H7X17540   3.759   2.762   7.452 -0.3272  0.8553  0.3626
  157SAPE   H7Y17541   3.910   2.851   7.401 -0.3185 -0.1539  0.4528
  157SAPE   C3817542   3.931   2.657   7.503 -0.0068  0.5049  0.5736
  157SAPE   H8X17543   4.025   2.636   7.448 -1.2371 -0.9024 -1.1202
  157SAPE   H8Y17544   3.868   2.568   7.523 -1.2128  0.6806 -2.0641
  157SAPE   C3917545   3.970   2.722   7.631 -0.2678 -0.2590 -0.5059
  157SAPE   H9X17546   3.883   2.766   7.685  0.7654  0.0976  0.9255
  157SAPE   H9Y17547   4.046   2.798   7.605 -0.1983  0.1541  0.8418
  157SAPE  C31017548   4.037   2.629   7.739 -0.6251  0.2587 -0.6736
  157SAPE  H10X17549   4.117   2.563   7.698 -0.9789  0.6552 -2.0744
  157SAPE  H10Y17550   3.962   2.551   7.765 -0.3115 -0.7052 -2.4313
  157SAPE  C31117551   4.085   2.702   7.867 -0.2881  0.0752  0.8685
  157SAPE  H11X17552   4.034   2.801   7.867 -1.7047 -0.6121 -0.2985
  157SAPE  H11Y17553   4.195   2.716   7.865 -0.2794 -0.0622  0.2927
  157SAPE  C31217554   4.050   2.622   7.991  0.4652 -0.4600 -0.2360
  157SAPE  H12X17555   4.109   2.528   7.990 -0.5452 -1.1130  0.0281
  157SAPE  H12Y17556   3.942   2.597   7.978  0.3860  0.9549 -3.3183
  157SAPE  C31317557   4.074   2.705   8.117  0.9053 -0.1357  0.0628
  157SAPE  H13X17558   4.008   2.794   8.114 -0.2731 -1.0022 -0.6880
  157SAPE  H13Y17559   4.179   2.740   8.108  0.5682  0.2606 -4.4691
  157SAPE  C31417560   4.043   2.627   8.247 -0.3959  0.1872  0.1079
  157SAPE  H14X17561   4.104   2.534   8.234  0.3496  0.7220 -0.2863
  157SAPE  H14Y17562   3.936   2.598   8.252 -0.2151 -0.5156  0.0507
  157SAPE  C31517563   4.092   2.678   8.388 -0.6277 -0.5029 -0.2305
  157SAPE  H15X17564   4.202   2.683   8.402 -0.7918  2.5207  0.9144
  157SAPE  H15Y17565   4.049   2.612   8.466 -1.9207  1.4102  0.7611
  157SAPE  C31617566   4.041   2.820   8.429 -0.2663  0.2568  0.2933
  157SAPE  H16X17567   4.029   2.869   8.330  0.6916 -1.8773 -0.9414
  157SAPE  H16Y17568   4.118   2.876   8.487 -0.2914  0.7450 -0.1393
  157SAPE  C31717569   3.924   2.820   8.522  0.7816 -0.2714  0.6052
  157SAPE  H17X17570   3.916   2.916   8.577 -0.7429 -0.1263  0.1730
  157SAPE  H17Y17571   3.928   2.737   8.596  0.3089 -0.9751 -0.1421
  157SAPE  C31817572   3.796   2.810   8.434  0.4289  0.9761  0.4598
  157SAPE  H18X17573   3.705   2.810   8.496 -0.3224 -0.8263 -0.5705
  157SAPE  H18Y17574   3.793   2.730   8.357 -0.2283 -0.0784  1.5513
  157SAPE  H18Z17575   3.789   2.900   8.369 -0.6842 -0.3891 -1.3964
  158SAPE     N17576   5.005   0.848   5.896  0.3608  0.4190  0.6233
  158SAPE   HN117577   4.935   0.773   5.879  0.1032  0.7956 -0.0108
  158SAPE   HN217578   4.959   0.932   5.936  0.4465 -0.1819  2.0487
  158SAPE   HN317579   5.032   0.874   5.799 -0.4630  0.4210  0.3879
  158SAPE   C1217580   5.129   0.818   5.979  0.0151  0.6097 -0.1252
  158SAPE  H12A17581   5.167   0.918   6.010 -1.8582  1.8909 -1.6921
  158SAPE  H12B17582   5.200   0.766   5.911 -2.1702 -0.2454 -1.8912
  158SAPE   C1117583   5.104   0.717   6.095  0.2657  0.7771 -0.1210
  158SAPE  H11A17584   5.021   0.750   6.161 -0.1805 -1.3633  0.4666
  158SAPE  H11B17585   5.199   0.707   6.151  0.7048  1.0056 -0.8058
  158SAPE     P17586   5.067   0.461   6.137 -0.6863 -0.5123  0.1794
  158SAPE   O1317587   4.995   0.353   6.070 -0.4803  0.4884 -0.1082
  158SAPE   O1417588   5.208   0.443   6.184 -0.3998 -0.5063  0.2998
  158SAPE   O1217589   5.061   0.590   6.039 -0.7718  0.1001  0.0827
  158SAPE   O1117590   4.979   0.494   6.267 -0.2457  0.3559 -0.4628
  158SAPE    C117591   4.838   0.479   6.266  0.1699  0.3691 -0.4443
  158SAPE    HA17592   4.799   0.531   6.177 -0.7127 -2.1509 -1.6347
  158SAPE    HB17593   4.809   0.372   6.263  0.4806  0.1980  1.3098
  158SAPE    C217594   4.766   0.547   6.385  0.3568  0.8616  0.5297
  158SAPE    HS17595   4.659   0.535   6.360  0.8605 -0.9242 -1.0235
  158SAPE   O2117596   4.793   0.686   6.399 -0.0793 -0.2692  0.4129
  158SAPE   C2117597   4.726   0.767   6.326 -0.4420  0.6920 -0.1982
  158SAPE   O2217598   4.623   0.751   6.267  0.0149 -0.3371  0.0742
  158SAPE   C2217599   4.793   0.907   6.344 -0.1246 -0.1450 -0.6549
  158SAPE   H2R17600   4.891   0.909   6.292  0.7177  0.1330  0.8896
  158SAPE   H2S17601   4.719   0.980   6.306 -0.0860 -0.2082 -0.8525
  158SAPE    C317602   4.792   0.468   6.514  0.2936 -0.0554  1.0101
  158SAPE    HX17603   4.899   0.444   6.532  0.9189  0.4554 -1.5781
  158SAPE    HY17604   4.742   0.370   6.503 -3.1919  1.6325  0.4097
  158SAPE   O3117605   4.745   0.520   6.637 -0.3739 -0.0779  0.7456
  158SAPE   C3117606   4.609   0.533   6.655  0.1054  0.0198  0.4384
  158SAPE   O3217607   4.524   0.500   6.577  0.2646  0.3507 -0.4956
  158SAPE   C3217608   4.590   0.604   6.795  0.0730  0.3150  0.9275
  158SAPE   H2X17609   4.604   0.711   6.772  4.0839 -0.6293 -2.1933
  158SAPE   H2Y17610   4.677   0.571   6.855 -1.5080 -0.4319  2.9236
  158SAPE   C2317611   4.820   0.942   6.491  1.0240 -0.2912  0.6570
  158SAPE   H3R17612   4.861   1.044   6.504 -1.8786  0.9803  0.6499
  158SAPE   H3S17613   4.897   0.871   6.527 -0.0235 -1.9271 -0.1607
  158SAPE   C2417614   4.705   0.929   6.590  0.9040  0.7549 -0.5533
  158SAPE   H4R17615   4.737   0.951   6.694 -0.0377  0.2524 -0.1456
  158SAPE   H4S17616   4.684   0.820   6.589  1.9024  0.5480 -0.0260
  158SAPE   C2517617   4.578   1.002   6.562  0.3814 -0.4855  0.5797
  158SAPE   H5R17618   4.554   1.014   6.456  0.9565  1.2745  0.6148
  158SAPE   C2617619   4.500   1.057   6.655 -0.1556 -0.5252  0.5617
  158SAPE   H6R17620   4.412   1.110   6.615  0.7200  0.5919  0.0490
  158SAPE   C2717621   4.512   1.054   6.805  0.2516  0.4227 -0.0743
  158SAPE   H7R17622   4.556   0.957   6.835 -0.4828  0.4554  1.1978
  158SAPE   H7S17623   4.412   1.068   6.853  0.2448 -3.0811  1.2121
  158SAPE   C2817624   4.597   1.160   6.876 -0.2497 -0.3897 -0.3309
  158SAPE   H8R17625   4.611   1.251   6.815 -2.1091 -0.5860 -1.1122
  158SAPE   C2917626   4.657   1.142   7.000  0.7579 -0.0560 -1.0218
  158SAPE   H9R17627   4.716   1.227   7.037 -0.7241 -0.3275  2.4436
  158SAPE  C21017628   4.631   1.024   7.090 -1.0699  0.0027  0.3622
  158SAPE  H10R17629   4.723   0.964   7.109 -0.5972  0.5135 -0.2639
  158SAPE  H10S17630   4.564   0.947   7.045 -0.6616  0.8253 -1.8039
  158SAPE  C21117631   4.567   1.064   7.223  0.0517 -0.3770  0.5870
  158SAPE  H11R17632   4.483   1.135   7.216 -0.3809 -0.9257  0.1833
  158SAPE  C21217633   4.593   1.012   7.345 -0.0856 -0.4124  0.0680
  158SAPE  H12R17634   4.540   1.055   7.431 -0.9599 -1.7478  0.2349
  158SAPE  C21317635   4.695   0.897   7.372  0.1504  0.5814  0.6075
  158SAPE  H13R17636   4.789   0.930   7.422  0.0493 -0.5327  1.5909
  158SAPE  H13S17637   4.735   0.857   7.277 -0.0500  2.5749 -0.3780
  158SAPE  C21417638   4.636   0.790   7.464 -0.6415  0.9552 -1.2230
  158SAPE  H14R17639   4.582   0.706   7.418  2.0093 -1.2472 -0.5729
  158SAPE  C21517640   4.647   0.799   7.598 -0.1340  0.3379 -0.2978
  158SAPE  H15R17641   4.597   0.719   7.655 -1.4196 -0.0806 -1.9373
  158SAPE  C21617642   4.697   0.905   7.690 -0.5295  0.2740  0.2282
  158SAPE  H16R17643   4.637   0.996   7.669 -0.8951  0.3279  1.4395
  158SAPE  H16S17644   4.801   0.921   7.653 -0.5313 -1.7286 -0.7883
  158SAPE  C21717645   4.711   0.873   7.841 -0.5374  0.9945  0.0983
  158SAPE  H17R17646   4.761   0.774   7.847 -1.2808  0.6185  0.3142
  158SAPE  H17S17647   4.606   0.862   7.877 -0.8105 -0.1347 -0.9573
  158SAPE  C21817648   4.811   0.953   7.922  0.4824  0.5509 -0.0496
  158SAPE  H18R17649   4.798   1.063   7.915 -0.0048  0.6330  1.6778
  158SAPE  H18S17650   4.908   0.944   7.868  0.0057  1.9010 -1.2158
  158SAPE  C21917651   4.838   0.913   8.065  0.4207 -0.5262 -0.2649
  158SAPE  H19R17652   4.865   0.806   8.073  0.1786 -0.8173 -2.6786
  158SAPE  H19S17653   4.738   0.923   8.113 -0.4364  0.0559 -2.0687
  158SAPE  C22017654   4.940   1.008   8.136  0.1359  0.0903  0.6696
  158SAPE  H20R17655   4.947   0.987   8.244  1.6222 -2.1901  0.1813
  158SAPE  H20S17656   4.909   1.110   8.102 -0.7268 -0.1975  0.5745
  158SAPE  H20T17657   5.039   0.982   8.093 -0.1106 -0.4403  0.4202
  158SAPE   C3317658   4.460   0.588   6.872 -0.5102 -0.0840  0.7123
  158SAPE   H3X17659   4.437   0.479   6.876  0.4677 -0.2680  2.3158
  158SAPE   H3Y17660   4.371   0.634   6.824 -2.0052 -2.9956  0.4642
  158SAPE   C3417661   4.469   0.643   7.014  0.3771 -0.2652  0.8927
  158SAPE   H4X17662   4.467   0.754   7.008  1.8287 -0.3010 -1.7011
  158SAPE   H4Y17663   4.565   0.607   7.055  1.0971 -1.2030 -1.4401
  158SAPE   C3517664   4.345   0.606   7.090  0.2721  0.2392 -0.4991
  158SAPE   H5X17665   4.331   0.497   7.106  0.6320 -0.1232 -2.3723
  158SAPE   H5Y17666   4.252   0.634   7.036 -0.4294 -2.4596 -0.8460
  158SAPE   C3617667   4.343   0.664   7.236  0.0072 -0.3698 -0.0330
  158SAPE   H6X17668   4.343   0.775   7.234 -0.3646 -0.1873  3.4009
  158SAPE   H6Y17669   4.436   0.639   7.292  1.1680  0.6505 -1.4306
  158SAPE   C3717670   4.206   0.626   7.308 -0.1052 -0.5402 -0.2562
  158SAPE   H7X17671   4.128   0.642   7.231 -0.8259  2.0919  0.9296
  158SAPE   H7Y17672   4.204   0.518   7.335  0.2487 -0.2492  1.0062
  158SAPE   C3817673   4.163   0.712   7.428 -0.4732  0.6579 -0.3744
  158SAPE   H8X17674   4.055   0.688   7.443 -0.2954  0.0476 -0.0411
  158SAPE   H8Y17675   4.182   0.818   7.403  0.5617  0.3295 -1.0486
  158SAPE   C3917676   4.255   0.680   7.544  0.1209 -0.0312 -0.4244
  158SAPE   H9X17677   4.359   0.703   7.512  0.6550 -0.9475  0.5723
  158SAPE   H9Y17678   4.240   0.570   7.555  0.7529 -0.2729 -1.7419
  158SAPE  C31017679   4.218   0.767   7.665 -0.1931  0.3705  0.2572
  158SAPE  H10X17680   4.108   0.755   7.673 -0.3712  0.4691 -1.5444
  158SAPE  H10Y17681   4.231   0.877   7.651  1.2914  0.1685 -0.0821
  158SAPE  C31117682   4.290   0.719   7.790 -0.0938  0.4727 -0.5364
  158SAPE  H11X17683   4.398   0.745   7.780 -0.1559  0.1048 -2.2859
  158SAPE  H11Y17684   4.287   0.608   7.788  1.5693  0.3986 -3.0109
  158SAPE  C31217685   4.242   0.777   7.926 -0.1246  0.1589  0.0418
  158SAPE  H12X17686   4.245   0.888   7.927 -1.3996  0.2693  2.9016
  158SAPE  H12Y17687   4.314   0.744   8.004 -0.5668 -1.1191 -0.0662
  158SAPE  C31317688   4.096   0.741   7.961  0.0216  0.7800 -0.5688
  158SAPE  H13X17689   4.034   0.779   7.877  0.2384 -0.3487 -1.2592
  158SAPE  H13Y17690   4.066   0.792   8.055  1.5343  0.2573  0.2354
  158SAPE  C31417691   4.055   0.592   7.964 -0.3183  1.3032 -0.4301
  158SAPE  H14X17692   4.121   0.546   8.041  1.1245  1.1078 -1.7362
  158SAPE  H14Y17693   4.075   0.537   7.870 -0.0660 -3.3947  2.0763
  158SAPE  C31517694   3.908   0.558   7.995  0.1712 -0.8765 -0.3205
  158SAPE  H15X17695   3.866   0.559   7.892  1.9730  2.1676 -1.1523
  158SAPE  H15Y17696   3.864   0.639   8.058  0.6158 -0.8267 -0.0714
  158SAPE  C31617697   3.888   0.418   8.059  0.7626  0.7802  0.4660
  158SAPE  H16X17698   3.964   0.395   8.137  3.5111 -1.2266 -2.5775
  158SAPE  H16Y17699   3.910   0.342   7.981 -2.4257 -0.8897  1.0209
  158SAPE  C31717700   3.740   0.398   8.087  0.3194 -0.1622 -0.4327
  158SAPE  H17X17701   3.685   0.401   7.990  2.5806  2.9067 -1.7899
  158SAPE  H17Y17702   3.702   0.482   8.149  3.0529  2.0142 -1.4541
  158SAPE  C31817703   3.706   0.253   8.147 -0.0609 -0.1991  0.0816
  158SAPE  H18X17704   3.606   0.206   8.156  0.9288 -2.1762  1.5965
  158SAPE  H18Y17705   3.763   0.237   8.241  1.0176 -2.1785 -0.8415
  158SAPE  H18Z17706   3.754   0.190   8.070 -0.1691  0.1033 -0.2365
  159SAPE     N17707   3.905   5.596   6.077  0.6978 -0.2780  0.0190
  159SAPE   HN117708   3.817   5.560   6.033 -0.0264 -0.9286  1.9168
  159SAPE   HN217709   3.915   5.697   6.054  1.4044 -0.3219  0.0955
  159SAPE   HN317710   3.983   5.558   6.020 -1.3706 -2.8534 -1.3251
  159SAPE   C1217711   3.916   5.567   6.222  1.1699 -0.5964 -0.1099
  159SAPE  H12A17712   3.838   5.492   6.248 -1.0518  0.9948 -1.8915
  159SAPE  H12B17713   3.882   5.656   6.280 -3.1634 -1.2151 -1.4076
  159SAPE   C1117714   4.060   5.517   6.249 -0.0985  0.4846 -0.3292
  159SAPE  H11A17715   4.054   5.493   6.357 -3.0601  3.9683  0.4781
  159SAPE  H11B17716   4.128   5.604   6.247  1.9792 -1.0647 -2.5233
  159SAPE     P17717   4.251   5.344   6.187 -0.4016 -0.3149  0.3097
  159SAPE   O1317718   4.243   5.199   6.211  0.0803 -0.1687 -0.6606
  159SAPE   O1417719   4.344   5.392   6.081  0.2742  0.3117  0.0784
  159SAPE   O1217720   4.115   5.414   6.165  0.2021 -0.0811  0.2590
  159SAPE   O1117721   4.300   5.412   6.315 -0.4337  0.5214 -0.5551
  159SAPE    C117722   4.302   5.326   6.435  0.1288  0.2519  0.5883
  159SAPE    HA17723   4.198   5.294   6.456  0.7989 -1.8050  1.1095
  159SAPE    HB17724   4.364   5.233   6.432  0.7207  0.5669  2.1355
  159SAPE    C217725   4.351   5.404   6.561 -0.2645 -0.1040  0.0522
  159SAPE    HS17726   4.291   5.498   6.564 -0.1526  0.0133 -0.9080
  159SAPE   O2117727   4.490   5.446   6.526  0.8198 -0.2579  0.0940
  159SAPE   C2117728   4.541   5.534   6.611  0.5987 -0.0964 -0.4446
  159SAPE   O2217729   4.487   5.576   6.715 -0.2446  0.4204  0.0951
  159SAPE   C2217730   4.685   5.579   6.572 -0.7670  0.3337 -0.1782
  159SAPE   H2R17731   4.721   5.515   6.488  0.7146  0.1311  0.5789
  159SAPE   H2S17732   4.680   5.679   6.523  2.4016 -0.0684 -1.5635
  159SAPE    C317733   4.342   5.314   6.687 -0.1081  0.2496  0.5509
  159SAPE    HX17734   4.385   5.354   6.781  1.3925 -2.7502  1.2653
  159SAPE    HY17735   4.413   5.229   6.675 -1.9338 -0.9441 -3.1992
  159SAPE   O3117736   4.213   5.258   6.710  0.1047  0.1635  0.1899
  159SAPE   C3117737   4.114   5.328   6.759  0.3462 -0.8600 -0.4313
  159SAPE   O3217738   4.134   5.441   6.806  0.0331 -0.4789 -0.0770
  159SAPE   C3217739   3.992   5.238   6.772 -0.3084 -0.2927 -0.5963
  159SAPE   H2X17740   4.014   5.132   6.750 -2.4795 -1.0111  0.4045
  159SAPE   H2Y17741   3.923   5.281   6.696  0.8694  2.3227 -0.2940
  159SAPE   C2317742   4.776   5.593   6.694 -1.0171 -0.3165  0.5094
  159SAPE   H3R17743   4.729   5.659   6.769 -1.8440  0.3136 -0.5279
  159SAPE   H3S17744   4.864   5.652   6.662 -1.6839 -0.1916 -1.2207
  159SAPE   C2417745   4.799   5.454   6.763 -0.3012  1.1719 -0.1739
  159SAPE   H4R17746   4.705   5.413   6.808 -1.8662  2.5537 -2.0389
  159SAPE   H4S17747   4.869   5.468   6.848 -1.1374 -0.3406  0.8282
  159SAPE   C2517748   4.853   5.342   6.671  0.9890 -0.8886  0.4281
  159SAPE   H5R17749   4.790   5.300   6.591  0.4363 -5.3840  2.8980
  159SAPE   C2617750   4.971   5.278   6.686  0.9855 -0.3315  0.1650
  159SAPE   H6R17751   4.984   5.190   6.620  0.3773  0.2535 -0.7608
  159SAPE   C2717752   5.080   5.308   6.791  0.2212  0.3508 -0.1058
  159SAPE   H7R17753   5.062   5.401   6.848 -0.2115  0.5162 -0.5074
  159SAPE   H7S17754   5.162   5.341   6.724  0.9732 -1.2372 -0.0237
  159SAPE   C2817755   5.120   5.197   6.890 -0.1670 -0.2829  0.4338
  159SAPE   H8R17756   5.176   5.117   6.841 -0.0156  0.5106 -0.7300
  159SAPE   C2917757   5.100   5.191   7.024 -0.4080 -0.0116  0.1830
  159SAPE   H9R17758   5.128   5.098   7.076 -3.0724  0.1443  2.0875
  159SAPE  C21017759   5.034   5.295   7.110 -0.3305  0.3321  0.2684
  159SAPE  H10R17760   4.973   5.370   7.055 -0.4397 -0.6345 -0.9785
  159SAPE  H10S17761   5.111   5.360   7.157  0.1142 -0.8856  1.2426
  159SAPE  C21117762   4.952   5.221   7.214 -0.5579 -0.3541 -0.1503
  159SAPE  H11R17763   4.927   5.115   7.198 -1.3819  0.0939 -2.1789
  159SAPE  C21217764   4.906   5.275   7.328  0.1669  0.9892 -0.3765
  159SAPE  H12R17765   4.854   5.207   7.397 -0.1774 -0.7632 -2.2643
  159SAPE  C21317766   4.935   5.415   7.377  0.9081  0.5626  0.4950
  159SAPE  H13R17767   4.835   5.462   7.389  0.3365 -0.1988 -1.0760
  159SAPE  H13S17768   4.990   5.476   7.301 -0.1984  1.5324  0.4382
  159SAPE  C21417769   5.019   5.417   7.498 -0.4747  0.5322  0.2350
  159SAPE  H14R17770   5.119   5.373   7.487  0.0949  1.5975  1.0616
  159SAPE  C21517771   5.001   5.487   7.610 -0.1569 -0.7949 -0.4838
  159SAPE  H15R17772   5.079   5.476   7.686  0.3322 -0.8305 -0.9857
  159SAPE  C21617773   4.883   5.576   7.626  0.2264 -0.0072  0.2217
  159SAPE  H16R17774   4.851   5.614   7.527  2.0725 -0.1844 -0.4864
  159SAPE  H16S17775   4.907   5.663   7.690  0.8470 -0.2667  0.3574
  159SAPE  C21717776   4.764   5.502   7.696 -0.2719 -0.0917  0.4584
  159SAPE  H17R17777   4.792   5.444   7.787  1.1570  1.5623  1.1112
  159SAPE  H17S17778   4.730   5.421   7.627  0.8107 -0.7154  0.6384
  159SAPE  C21817779   4.643   5.579   7.735 -0.6809 -0.4230 -0.6886
  159SAPE  H18R17780   4.672   5.658   7.807 -0.1231  1.3248 -2.7239
  159SAPE  H18S17781   4.565   5.510   7.773  0.7825 -1.3956  0.6620
  159SAPE  C21917782   4.581   5.656   7.619 -0.0756  0.3969  0.3075
  159SAPE  H19R17783   4.594   5.595   7.527  0.5531  0.3456  0.4285
  159SAPE  H19S17784   4.640   5.747   7.597 -1.1508  0.7879 -1.1340
  159SAPE  C22017785   4.438   5.692   7.645  0.1954  0.6516 -0.4913
  159SAPE  H20R17786   4.392   5.745   7.560 -2.5046 -1.7829 -0.7071
  159SAPE  H20S17787   4.426   5.761   7.731  0.1473  0.4658 -0.3465
  159SAPE  H20T17788   4.371   5.609   7.679 -0.6954  2.5392  2.8411
  159SAPE   C3317789   3.934   5.255   6.917 -0.4277 -0.3449 -0.3317
  159SAPE   H3X17790   3.836   5.206   6.932 -0.9315  0.5315 -0.6537
  159SAPE   H3Y17791   3.922   5.359   6.956 -0.7293 -0.8065  0.8461
  159SAPE   C3417792   4.038   5.185   7.007  0.2072  0.0424 -0.2835
  159SAPE   H4X17793   4.132   5.244   7.017  0.0782  0.0851  0.7292
  159SAPE   H4Y17794   4.050   5.088   6.954  0.9993 -1.5553  2.6200
  159SAPE   C3517795   3.997   5.165   7.162 -0.2156  0.6271  0.1875
  159SAPE   H5X17796   4.094   5.130   7.204 -0.7653 -1.0116  0.1385
  159SAPE   H5Y17797   3.917   5.089   7.169 -0.4635  0.6385 -1.9750
  159SAPE   C3617798   3.953   5.294   7.236 -0.6248  0.3518 -0.1748
  159SAPE   H6X17799   3.878   5.339   7.167 -2.0120 -1.9147 -0.2534
  159SAPE   H6Y17800   4.040   5.364   7.229 -0.0065 -0.4434 -0.6216
  159SAPE   C3717801   3.914   5.274   7.383 -0.1092  0.6210  0.1200
  159SAPE   H7X17802   3.823   5.210   7.382  0.0261  0.4145 -1.2602
  159SAPE   H7Y17803   3.887   5.367   7.437 -0.2837  0.7191 -0.1356
  159SAPE   C3817804   4.013   5.193   7.472 -0.1614  0.4109  0.1709
  159SAPE   H8X17805   4.105   5.255   7.468  0.4730 -0.1658  3.2883
  159SAPE   H8Y17806   4.039   5.094   7.431 -0.2863  0.3413  0.2600
  159SAPE   C3917807   3.971   5.192   7.615  0.0573 -0.0467  0.2402
  159SAPE   H9X17808   3.899   5.114   7.647 -0.6262 -0.1473 -1.4470
  159SAPE   H9Y17809   3.926   5.286   7.652 -1.1942 -0.9505  1.0939
  159SAPE  C31017810   4.096   5.173   7.710  0.3275  0.4690  0.8003
  159SAPE  H10X17811   4.170   5.247   7.672 -1.2719  1.9942  0.5121
  159SAPE  H10Y17812   4.146   5.074   7.708  1.8013  1.1848  1.1831
  159SAPE  C31117813   4.071   5.222   7.849  0.4592  0.1086 -0.2483
  159SAPE  H11X17814   3.981   5.287   7.847  0.5396  0.3435  1.5440
  159SAPE  H11Y17815   4.164   5.278   7.871  0.9842 -0.2022 -1.6019
  159SAPE  C31217816   4.056   5.106   7.947  0.2081  0.0845  0.3874
  159SAPE  H12X17817   4.127   5.025   7.919 -1.0793  0.1027 -3.5639
  159SAPE  H12Y17818   3.952   5.070   7.932 -0.4691  2.0683 -0.0263
  159SAPE  C31317819   4.080   5.139   8.092 -0.6280  0.1734  1.3626
  159SAPE  H13X17820   3.999   5.205   8.128  0.6833  1.1075  2.7349
  159SAPE  H13Y17821   4.173   5.198   8.110 -1.1539  1.2093  0.7709
  159SAPE  C31417822   4.090   5.013   8.178  0.5919  0.1923 -0.2846
  159SAPE  H14X17823   4.005   4.950   8.144 -1.6573  4.3586 -3.2614
  159SAPE  H14Y17824   4.078   5.041   8.285 -0.1393 -2.4266  0.3822
  159SAPE  C31517825   4.229   4.940   8.165  0.1497 -0.1586 -0.5114
  159SAPE  H15X17826   4.255   4.917   8.060  0.2320 -3.7432  0.1723
  159SAPE  H15Y17827   4.220   4.847   8.225 -0.3365  0.1144 -0.1542
  159SAPE  C31617828   4.337   5.018   8.228  0.0257 -0.2794 -0.3123
  159SAPE  H16X17829   4.298   5.054   8.326 -0.0211  2.4144 -1.2254
  159SAPE  H16Y17830   4.349   5.109   8.165 -2.9887  0.4737  0.0529
  159SAPE  C31717831   4.466   4.937   8.244 -0.0418 -0.0957 -0.4167
  159SAPE  H17X17832   4.509   4.903   8.147  0.8017  2.2410 -0.9337
  159SAPE  H17Y17833   4.437   4.844   8.298 -0.1545 -0.1156 -0.5110
  159SAPE  C31817834   4.580   5.017   8.316  0.4763 -0.1413 -0.6648
  159SAPE  H18X17835   4.548   5.075   8.404  0.7048  1.5670 -1.6654
  159SAPE  H18Y17836   4.622   5.088   8.241  0.2985  0.5769 -0.0876
  159SAPE  H18Z17837   4.658   4.945   8.348  0.2063 -0.2839 -0.3304
  160SAPE     N17838   4.464   5.601   6.234  0.2480  1.2421  0.1646
  160SAPE   HN117839   4.415   5.643   6.316 -1.4023 -0.0557 -0.1076
  160SAPE   HN217840   4.430   5.505   6.217  1.7705  0.7989 -0.5801
  160SAPE   HN317841   4.565   5.595   6.256  0.3036 -0.0940 -0.4005
  160SAPE   C1217842   4.460   5.680   6.109 -0.2627 -0.0660 -0.5094
  160SAPE  H12A17843   4.352   5.687   6.085 -0.4895 -2.2279 -0.3103
  160SAPE  H12B17844   4.521   5.635   6.027 -0.2738  0.9191 -1.0786
  160SAPE   C1117845   4.515   5.825   6.129  0.9817  0.1358  0.1646
  160SAPE  H11A17846   4.626   5.822   6.122  0.8769  0.4124 -3.1312
  160SAPE  H11B17847   4.491   5.868   6.229 -1.8222 -1.4447  0.2798
  160SAPE     P17848   4.332   5.989   6.001 -0.3875  0.4090  0.0598
  160SAPE   O1317849   4.328   6.039   5.862  0.3494 -0.3710 -0.1603
  160SAPE   O1417850   4.218   5.907   6.051  0.1759  0.1762 -0.1263
  160SAPE   O1217851   4.468   5.901   6.016 -0.3509  0.5006 -0.3455
  160SAPE   O1117852   4.347   6.118   6.094  0.5215 -0.5245  0.1342
  160SAPE    C117853   4.238   6.205   6.128 -0.0555  0.3113 -0.1992
  160SAPE    HA17854   4.239   6.300   6.071 -1.2793  1.0715  0.9832
  160SAPE    HB17855   4.144   6.153   6.101  0.0286  1.2451 -2.4975
  160SAPE    C217856   4.237   6.244   6.277 -0.6372  0.4112 -0.4076
  160SAPE    HS17857   4.297   6.338   6.282  1.0027 -0.4883 -1.7868
  160SAPE   O2117858   4.286   6.131   6.352  0.3251  0.1527 -0.3912
  160SAPE   C2117859   4.391   6.158   6.422 -0.8753 -0.2659  0.1266
  160SAPE   O2217860   4.433   6.269   6.445 -0.5448 -0.3864  0.7022
  160SAPE   C2217861   4.446   6.031   6.489  0.1098 -0.1362  0.3418
  160SAPE   H2R17862   4.365   5.958   6.469 -1.7506  1.8862  0.0890
  160SAPE   H2S17863   4.540   6.001   6.438 -0.3771 -2.8981  0.9064
  160SAPE    C317864   4.098   6.280   6.333 -0.3150  0.1980 -0.2023
  160SAPE    HX17865   4.030   6.193   6.320 -1.4518  0.6546  2.2968
  160SAPE    HY17866   4.063   6.362   6.266 -0.6086 -1.7342 -2.5467
  160SAPE   O3117867   4.096   6.315   6.475 -0.4142 -0.1057 -0.1435
  160SAPE   C3117868   4.131   6.435   6.508 -0.4078 -0.2844 -0.1850
  160SAPE   O3217869   4.155   6.526   6.431  0.2009  0.4207 -0.2142
  160SAPE   C3217870   4.132   6.442   6.662  0.1140  0.0244 -0.5217
  160SAPE   H2X17871   4.030   6.406   6.688 -0.8210  2.0249 -1.2093
  160SAPE   H2Y17872   4.139   6.548   6.696 -0.6734 -0.4932  1.4014
  160SAPE   C2317873   4.483   6.051   6.633 -0.6288 -0.7725  0.8241
  160SAPE   H3R17874   4.394   6.084   6.691 -0.7255  0.5840 -0.0587
  160SAPE   H3S17875   4.547   6.141   6.643 -0.0177 -0.8705 -1.7226
  160SAPE   C2417876   4.558   5.944   6.702 -0.5335  0.0336 -0.0332
  160SAPE   H4R17877   4.650   5.924   6.643 -0.2915  0.5822  0.1560
  160SAPE   H4S17878   4.496   5.852   6.702 -0.3920 -0.1692 -2.7416
  160SAPE   C2517879   4.603   5.985   6.839 -0.1207 -0.0758  0.3305
  160SAPE   H5R17880   4.701   6.036   6.838  0.0262 -0.3565  0.3263
  160SAPE   C2617881   4.532   5.968   6.953 -0.8917 -0.2037 -0.0126
  160SAPE   H6R17882   4.584   5.991   7.047  0.0818 -1.4145 -0.2321
  160SAPE   C2717883   4.396   5.906   6.981  0.2324  0.6241 -0.7118
  160SAPE   H7R17884   4.380   5.829   6.902  1.2957  1.4790 -1.8132
  160SAPE   H7S17885   4.319   5.985   6.970 -1.4116 -0.5238  1.7649
  160SAPE   C2817886   4.380   5.850   7.118  0.1627 -0.5201  0.0911
  160SAPE   H8R17887   4.350   5.933   7.184  1.6923  1.5398 -1.6691
  160SAPE   C2917888   4.419   5.725   7.154 -0.3135  0.2064 -0.5776
  160SAPE   H9R17889   4.407   5.692   7.258 -0.4625  2.1383  0.0424
  160SAPE  C21017890   4.468   5.620   7.057  0.1121  0.6443  0.3698
  160SAPE  H10R17891   4.524   5.669   6.973  2.6220 -1.7040  0.5386
  160SAPE  H10S17892   4.394   5.569   6.992 -1.3207  1.4594  1.3185
  160SAPE  C21117893   4.576   5.531   7.113  0.4284  0.4194  0.4605
  160SAPE  H11R17894   4.669   5.586   7.134 -0.0131  1.5515 -0.4420
  160SAPE  C21217895   4.581   5.403   7.138  1.3766  0.0116 -0.6466
  160SAPE  H12R17896   4.671   5.365   7.188  1.2955  0.6414  0.0038
  160SAPE  C21317897   4.459   5.322   7.133 -0.0888 -0.0992 -0.3363
  160SAPE  H13R17898   4.491   5.225   7.090  0.3793  0.9231 -2.4348
  160SAPE  H13S17899   4.399   5.353   7.045  1.7018 -1.7872 -2.2814
  160SAPE  C21417900   4.372   5.318   7.255 -0.0277  0.2768  0.3183
  160SAPE  H14R17901   4.279   5.376   7.263  0.1084  0.3674  1.4273
  160SAPE  C21517902   4.398   5.235   7.357  0.2638  0.3426 -0.7559
  160SAPE  H15R17903   4.315   5.228   7.430 -1.0288 -1.0161 -2.2756
  160SAPE  C21617904   4.509   5.138   7.376  0.7328 -0.3117  0.7733
  160SAPE  H16R17905   4.586   5.165   7.301  2.3759 -1.1687  2.1084
  160SAPE  H16S17906   4.486   5.030   7.367  1.1389 -0.2894 -0.8768
  160SAPE  C21717907   4.575   5.163   7.508  0.1714 -0.2767 -0.6596
  160SAPE  H17R17908   4.595   5.269   7.532  1.0243 -0.4727 -0.4920
  160SAPE  H17S17909   4.669   5.104   7.512 -0.8758 -2.1513 -2.0499
  160SAPE  C21817910   4.478   5.124   7.625  0.1975 -0.4149  0.6247
  160SAPE  H18R17911   4.444   5.018   7.622 -1.4714  0.1033 -1.6525
  160SAPE  H18S17912   4.388   5.186   7.606 -0.0496 -1.1901 -0.8821
  160SAPE  C21917913   4.529   5.167   7.764 -0.0430  0.5017  0.0675
  160SAPE  H19R17914   4.458   5.128   7.840  0.2193  1.4003  0.7930
  160SAPE  H19S17915   4.528   5.278   7.774 -3.6962  0.8190 -1.9682
  160SAPE  C22017916   4.670   5.119   7.807  0.0629 -0.0610  0.0761
  160SAPE  H20R17917   4.670   5.009   7.793 -1.2832 -0.1943  1.0144
  160SAPE  H20S17918   4.707   5.136   7.910 -0.3167  0.2800  0.1556
  160SAPE  H20T17919   4.756   5.159   7.748  1.8511 -0.9660  1.9316
  160SAPE   C3317920   4.259   6.377   6.723  0.0810  0.5281  0.3450
  160SAPE   H3X17921   4.349   6.423   6.676 -0.9656  1.2027 -1.1009
  160SAPE   H3Y17922   4.255   6.270   6.696 -0.7026  0.5798  0.2436
  160SAPE   C3417923   4.270   6.385   6.873  0.0741 -0.5872 -0.4844
  160SAPE   H4X17924   4.181   6.332   6.915 -1.4485  1.6751 -0.6660
  160SAPE   H4Y17925   4.258   6.491   6.903  0.4238 -0.5359 -0.5270
  160SAPE   C3517926   4.392   6.320   6.928  0.1137 -0.1615 -0.4955
  160SAPE   H5X17927   4.480   6.371   6.885 -0.1517  2.5830  1.9139
  160SAPE   H5Y17928   4.384   6.211   6.904 -1.8791 -0.6915  2.0731
  160SAPE   C3617929   4.406   6.325   7.086 -0.0030  0.1646  0.5928
  160SAPE   H6X17930   4.400   6.432   7.116  1.9739  0.2916  0.6804
  160SAPE   H6Y17931   4.498   6.269   7.113 -0.7952 -2.5347 -1.8470
  160SAPE   C3717932   4.281   6.262   7.159 -0.3468 -1.1168 -0.5147
  160SAPE   H7X17933   4.255   6.156   7.138 -0.0535 -1.4482  0.6975
  160SAPE   H7Y17934   4.192   6.327   7.145 -2.5592 -3.8202  0.0371
  160SAPE   C3817935   4.315   6.255   7.310  0.2564  0.0293  0.5131
  160SAPE   H8X17936   4.305   6.356   7.357 -1.4436  0.7706 -1.3023
  160SAPE   H8Y17937   4.420   6.218   7.314  0.3351  0.1641 -0.1272
  160SAPE   C3917938   4.226   6.168   7.399  0.1459  0.1721 -0.0899
  160SAPE   H9X17939   4.233   6.064   7.361  1.6245 -0.4534  1.7062
  160SAPE   H9Y17940   4.119   6.198   7.402  0.0996 -0.0703  1.2124
  160SAPE  C31017941   4.277   6.167   7.550  0.5747 -0.4701 -0.7107
  160SAPE  H10X17942   4.255   6.269   7.589  2.8664  0.4545 -1.6414
  160SAPE  H10Y17943   4.386   6.150   7.545  0.4499 -0.9460 -2.3180
  160SAPE  C31117944   4.216   6.060   7.643  0.3813  0.0462  0.1873
  160SAPE  H11X17945   4.276   5.969   7.620  0.9563  1.0593 -2.7758
  160SAPE  H11Y17946   4.109   6.048   7.615  0.8211  1.2465 -2.2889
  160SAPE  C31217947   4.221   6.105   7.785  0.8467 -0.3113 -0.6552
  160SAPE  H12X17948   4.177   6.206   7.797  0.7183 -0.6017  2.0498
  160SAPE  H12Y17949   4.329   6.108   7.813  0.8266 -0.0249 -0.6061
  160SAPE  C31317950   4.140   6.008   7.879  0.0463  0.2497  0.6458
  160SAPE  H13X17951   4.154   5.904   7.844 -2.0133 -0.0268  0.5324
  160SAPE  H13Y17952   4.032   6.030   7.865 -0.4940 -0.5315  3.2058
  160SAPE  C31417953   4.186   6.034   8.021 -0.8751 -0.0754  0.8858
  160SAPE  H14X17954   4.190   6.144   8.037  0.4813  0.0432 -0.1400
  160SAPE  H14Y17955   4.290   5.998   8.034  0.0540  1.2531 -2.1523
  160SAPE  C31517956   4.087   5.963   8.107  0.0848  0.3188  0.0369
  160SAPE  H15X17957   4.097   5.854   8.088  1.0177  0.5713 -1.0158
  160SAPE  H15Y17958   3.988   5.993   8.066 -0.1718 -2.0646 -1.2653
  160SAPE  C31617959   4.104   6.007   8.252  0.5181  0.4181 -0.4104
  160SAPE  H16X17960   4.208   5.999   8.292 -0.2479  2.3717  2.2554
  160SAPE  H16Y17961   4.051   5.925   8.306  1.9465 -0.1952  0.0982
  160SAPE  C31717962   4.048   6.146   8.288 -0.5522 -0.3762  0.3473
  160SAPE  H17X17963   4.108   6.223   8.236  0.9908 -2.1437 -0.6326
  160SAPE  H17Y17964   4.057   6.162   8.398  2.8431 -3.9821  0.8332
  160SAPE  C31817965   3.905   6.178   8.253  0.2235  0.0539  1.3537
  160SAPE  H18X17966   3.822   6.131   8.311 -1.1419  0.1829 -0.4268
  160SAPE  H18Y17967   3.894   6.153   8.146 -0.0296 -0.0187  1.3945
  160SAPE  H18Z17968   3.887   6.287   8.244 -0.6052 -0.2392 -1.2079
  161SOPE     N17969   2.953   4.281  10.594 -0.2693 -0.2252  0.7208
  161SOPE   HN117970   2.897   4.265  10.680 -0.8470 -1.7573  0.0892
  161SOPE   HN217971   2.967   4.189  10.549  2.1061  0.0586  0.7339
  161SOPE   HN317972   3.049   4.317  10.612  0.2738 -2.0638  1.7607
  161SOPE   C1217973   2.877   4.381  10.507 -0.2502  0.5755  0.3791
  161SOPE  H12A17974   2.780   4.337  10.474 -0.3588  0.8663  0.3053
  161SOPE  H12B17975   2.932   4.378  10.410 -1.1684 -2.7245 -0.1451
  161SOPE   C1117976   2.889   4.526  10.561  0.4110 -0.0459  0.5755
  161SOPE  H11A17977   2.820   4.548  10.646  1.7492  3.3596  0.9363
  161SOPE  H11B17978   2.848   4.592  10.481 -1.6497  1.0900  2.4299
  161SOPE     P17979   3.059   4.724  10.573 -0.0436 -0.0352  0.1201
  161SOPE   O1317980   3.203   4.742  10.597  0.2797 -0.0104  0.0522
  161SOPE   O1417981   2.961   4.798  10.654 -0.1031 -0.4826  0.3452
  161SOPE   O1217982   3.025   4.568  10.583  0.0426  0.0314  0.3766
  161SOPE   O1117983   3.026   4.757  10.425 -0.1420  0.3178 -0.0063
  161SOPE    C117984   3.078   4.695  10.312  0.3146  0.4876  0.0407
  161SOPE    HA17985   3.019   4.737  10.227  2.9686 -0.1356 -2.2691
  161SOPE    HB17986   3.071   4.584  10.316 -0.6987  0.5800  1.2713
  161SOPE    C217987   3.220   4.729  10.274 -0.0190  0.3421 -0.2553
  161SOPE    HS17988   3.284   4.689  10.355  0.5683  1.6776 -0.0376
  161SOPE   O2117989   3.238   4.878  10.266 -0.1741  0.2351 -0.1713
  161SOPE   C2117990   3.364   4.919  10.262  0.7790  0.3843 -0.3249
  161SOPE   O2217991   3.457   4.840  10.273 -0.2042 -0.1253  0.9721
  161SOPE   C2217992   3.366   5.065  10.213  0.5896  0.2471  0.1048
  161SOPE   H2R17993   3.353   5.140  10.294  0.5331 -1.1676  1.4553
  161SOPE   H2S17994   3.278   5.076  10.146  1.1043 -1.6306 -0.9540
  161SOPE    C317995   3.257   4.668  10.137 -0.3048  0.2932 -0.4155
  161SOPE    HX17996   3.268   4.561  10.161  0.2756  1.3552  5.3216
  161SOPE    HY17997   3.357   4.710  10.113  1.9739 -3.0203  2.3499
  161SOPE   O3117998   3.166   4.701  10.028  0.3368 -0.2436 -0.3685
  161SOPE   C3117999   3.113   4.601   9.957 -1.0924  0.4752 -0.8174
  161SOPE   O3218000   3.146   4.484   9.978 -0.6914 -0.3269 -0.5727
  161SOPE   C3218001   3.029   4.646   9.840 -0.9491 -0.3917 -0.1127
  161SOPE   H2X18002   3.026   4.757   9.829  0.0989 -0.2828  0.5211
  161SOPE   H2Y18003   2.924   4.616   9.863 -0.7588  0.0565  1.4574
  161SOPE   C2318004   3.490   5.087  10.122  0.0328  0.0212 -0.6929
  161SOPE   H3R18005   3.578   5.069  10.187 -0.4804  1.4608  0.4468
  161SOPE   H3S18006   3.492   5.196  10.100 -1.6822  0.2628  0.1696
  161SOPE   C2418007   3.497   5.002   9.993  0.4004  0.4733  0.7482
  161SOPE   H4R18008   3.588   5.041   9.942 -0.2509  1.2852  0.1819
  161SOPE   H4S18009   3.501   4.893  10.015 -0.9288  0.5210  1.3285
  161SOPE   C2518010   3.385   5.025   9.900 -0.2584  0.3161  0.1065
  161SOPE   H5R18011   3.319   4.945   9.938  1.8421 -0.9242  1.3080
  161SOPE   H5S18012   3.340   5.126   9.912 -1.6381 -0.5573  3.5570
  161SOPE   C2618013   3.420   5.015   9.746  0.4121 -0.9402 -0.8468
  161SOPE   H6R18014   3.502   5.089   9.733  0.1629 -0.8670 -2.1353
  161SOPE   H6S18015   3.463   4.914   9.730  1.9121 -0.6624  1.0296
  161SOPE   C2718016   3.300   5.047   9.663 -0.7026 -0.8749  0.1427
  161SOPE   H7R18017   3.214   4.982   9.691 -0.5862 -0.8358  0.5958
  161SOPE   H7S18018   3.240   5.139   9.683 -1.9994 -1.2129 -1.9654
  161SOPE   C2818019   3.329   5.039   9.509 -0.1725  0.5692  0.0108
  161SOPE   H8R18020   3.430   5.068   9.473  0.6460 -1.0439  0.8921
  161SOPE   H8S18021   3.320   4.930   9.488 -0.4682  0.5957 -0.0017
  161SOPE   C2918022   3.230   5.123   9.433 -0.2200 -0.3371 -0.8787
  161SOPE   H9118023   3.138   5.150   9.485  1.3454  1.1333  1.2658
  161SOPE  C21018024   3.263   5.206   9.328  0.4298 -0.4566 -0.0634
  161SOPE  H10118025   3.184   5.274   9.295  0.3036 -0.4139  0.3214
  161SOPE  C21118026   3.389   5.214   9.244 -0.2323  0.4276 -0.7149
  161SOPE  H11R18027   3.466   5.139   9.273  0.3968  1.2406 -0.2641
  161SOPE  H11S18028   3.440   5.311   9.257  0.0901  0.0834  0.8477
  161SOPE  C21218029   3.358   5.201   9.089 -0.5447 -0.1414  0.9933
  161SOPE  H12R18030   3.296   5.285   9.050  0.2740  0.7771  1.6061
  161SOPE  H12S18031   3.294   5.112   9.072 -2.7963  1.4921  0.4697
  161SOPE  C21318032   3.479   5.175   8.996 -0.2046  0.0284 -0.1831
  161SOPE  H13R18033   3.547   5.112   9.058  0.4668  1.3628  0.4881
  161SOPE  H13S18034   3.526   5.274   8.978  0.0429 -0.2425 -1.0831
  161SOPE  C21418035   3.448   5.115   8.860  1.0217 -0.4980 -0.8081
  161SOPE  H14R18036   3.419   5.204   8.800  1.1214 -0.6575 -1.0931
  161SOPE  H14S18037   3.365   5.041   8.862  0.8187 -0.2637 -0.4210
  161SOPE  C21518038   3.566   5.055   8.788 -0.7525 -0.1967  0.9753
  161SOPE  H15R18039   3.613   4.985   8.859  0.0855  0.3997  1.0272
  161SOPE  H15S18040   3.642   5.131   8.756  0.6862 -2.0823 -0.3548
  161SOPE  C21618041   3.522   4.974   8.661 -0.5509  0.3089 -0.6934
  161SOPE  H16R18042   3.459   5.041   8.598 -0.4989  0.0845 -0.9872
  161SOPE  H16S18043   3.460   4.894   8.706 -1.0129  0.6471 -0.7190
  161SOPE  C21718044   3.634   4.897   8.584 -0.4291  0.0677  0.5544
  161SOPE  H17R18045   3.582   4.836   8.507 -0.3495  2.5855 -1.6590
  161SOPE  H17S18046   3.691   4.837   8.658 -2.6750 -2.2689  0.5138
  161SOPE  C21818047   3.727   4.988   8.500 -0.8168  0.3437 -0.3729
  161SOPE  H18R18048   3.793   4.931   8.431 -1.1455 -0.0071 -0.3966
  161SOPE  H18S18049   3.796   5.039   8.570  1.8769 -1.6501 -1.3965
  161SOPE  H18T18050   3.673   5.061   8.435  0.5860  1.5129 -0.2746
  161SOPE   C3318051   3.063   4.583   9.703 -0.0604 -0.5329 -0.1139
  161SOPE   H3X18052   3.061   4.472   9.702  1.9182 -0.6126 -2.0583
  161SOPE   H3Y18053   3.162   4.617   9.667 -0.5857 -0.2695 -1.3751
  161SOPE   C3418054   2.956   4.636   9.601 -0.6432  0.4454  0.5454
  161SOPE   H4X18055   2.937   4.743   9.623 -1.4337  0.2862  0.6774
  161SOPE   H4Y18056   2.867   4.575   9.630  1.7029 -1.8259  3.7839
  161SOPE   C3518057   2.997   4.615   9.452 -0.8374  0.8624  0.1809
  161SOPE   H5X18058   3.092   4.559   9.453 -1.6552 -0.7379 -2.4733
  161SOPE   H5Y18059   3.020   4.717   9.414 -3.1803  1.3423 -0.1572
  161SOPE   C3618060   2.884   4.556   9.366 -0.1894  0.2823 -0.2319
  161SOPE   H6X18061   2.801   4.629   9.358 -0.9059 -0.4109  0.6333
  161SOPE   H6Y18062   2.842   4.460   9.401 -1.2022 -0.8590 -4.0920
  161SOPE   C3718063   2.934   4.521   9.220  0.2880 -0.2311 -0.2011
  161SOPE   H7X18064   3.024   4.457   9.216 -0.1042 -0.8603  0.7288
  161SOPE   H7Y18065   2.954   4.621   9.174 -0.0266  1.2315  2.6509
  161SOPE   C3818066   2.819   4.465   9.147  0.2494  1.0009  0.0186
  161SOPE   H8X18067   2.751   4.553   9.151  2.0385  2.4872 -0.7974
  161SOPE   H8Y18068   2.768   4.378   9.194  0.8201  1.2786  1.2009
  161SOPE   C3918069   2.857   4.413   9.004 -0.0405  0.7919 -0.5491
  161SOPE   H9X18070   2.933   4.333   9.016 -0.6452 -0.1332 -2.4240
  161SOPE   H9Y18071   2.904   4.505   8.962  1.0756  1.7201  2.4811
  161SOPE  C31018072   2.734   4.369   8.920 -0.3245  0.1438 -0.4984
  161SOPE  H10X18073   2.678   4.460   8.889 -0.5186 -0.3343 -1.6013
  161SOPE  H10Y18074   2.659   4.302   8.967 -0.0857  0.4513  0.3379
  161SOPE  C31118075   2.773   4.301   8.786  0.1183 -0.4726  0.0186
  161SOPE  H11X18076   2.795   4.194   8.807 -0.6525 -0.7279 -0.4450
  161SOPE  H11Y18077   2.866   4.348   8.746 -0.1249  1.1973  1.3176
  161SOPE  C31218078   2.651   4.302   8.694  0.4855 -0.4332 -0.4447
  161SOPE  H12X18079   2.579   4.386   8.705 -1.3993 -1.9536 -0.6065
  161SOPE  H12Y18080   2.581   4.219   8.720 -2.0736  1.7638  0.1663
  161SOPE  C31318081   2.675   4.303   8.539  0.1533 -0.0587 -0.1150
  161SOPE  H13X18082   2.576   4.276   8.496  0.0094  0.8857 -0.3963
  161SOPE  H13Y18083   2.749   4.222   8.525  0.2984 -0.0489  0.5678
  161SOPE  C31418084   2.734   4.429   8.476 -0.2387 -0.0453  0.0883
  161SOPE  H14X18085   2.819   4.449   8.545  0.3473 -1.4898 -0.1626
  161SOPE  H14Y18086   2.667   4.515   8.494  1.3013  1.2309 -0.0514
  161SOPE  C31518087   2.791   4.411   8.334 -0.3707 -0.3910 -0.0374
  161SOPE  H15X18088   2.845   4.314   8.332 -1.2291 -1.0177 -4.6022
  161SOPE  H15Y18089   2.862   4.492   8.306  2.3513 -2.2789  0.9888
  161SOPE  C31618090   2.684   4.385   8.222  0.6280 -0.1538 -0.3290
  161SOPE  H16X18091   2.612   4.309   8.260 -0.3843  0.2093 -1.4581
  161SOPE  H16Y18092   2.736   4.340   8.135  0.8466  1.1400 -0.8827
  161SOPE  C31718093   2.631   4.518   8.167  0.1726 -0.4640 -0.1041
  161SOPE  H17X18094   2.723   4.578   8.150 -0.1323  0.0542  0.0322
  161SOPE  H17Y18095   2.577   4.562   8.254 -2.3788 -2.0884 -0.7517
  161SOPE  C31818096   2.550   4.499   8.042  0.1174  0.0940 -1.3700
  161SOPE  H18X18097   2.576   4.400   7.999 -2.8406 -1.7591  0.7248
  161SOPE  H18Y18098   2.556   4.583   7.969 -0.9033  1.0349 -0.4288
  161SOPE  H18Z18099   2.441   4.485   8.061 -0.0591  2.7508  0.0830
  162SOPE     N18100   3.029   0.080  10.680 -0.4528 -0.3565 -0.0266
  162SOPE   HN118101   3.018   0.034  10.773 -1.5550  0.5392  0.3158
  162SOPE   HN218102   3.119   0.041  10.645 -1.1598 -0.5942 -1.7290
  162SOPE   HN318103   3.048   0.181  10.688  1.6727 -0.6404 -0.8082
  162SOPE   C1218104   2.917   0.037  10.590 -0.2706 -0.1429  0.1628
  162SOPE  H12A18105   2.907  -0.073  10.581 -0.7090  0.0811 -5.1458
  162SOPE  H12B18106   2.947   0.080  10.492 -0.3436 -1.0542 -0.2652
  162SOPE   C1118107   2.783   0.096  10.639 -0.3808 -0.1861 -0.0825
  162SOPE  H11A18108   2.703   0.070  10.566 -1.5137 -0.8742  1.3470
  162SOPE  H11B18109   2.792   0.206  10.646 -0.5083  0.0142 -2.1967
  162SOPE     P18110   2.684  -0.092  10.808  0.4407  0.0582  0.1417
  162SOPE   O1318111   2.544  -0.050  10.797  0.1151 -0.0250 -0.2252
  162SOPE   O1418112   2.734  -0.148  10.933  0.0875 -0.0689 -0.2055
  162SOPE   O1218113   2.760   0.042  10.772  0.0902  0.2988 -0.3398
  162SOPE   O1118114   2.720  -0.179  10.688  0.7334 -0.6217  0.1018
  162SOPE    C118115   2.687  -0.316  10.670  0.6743 -0.1566  0.0202
  162SOPE    HA18116   2.579  -0.327  10.691  0.7024 -3.6715 -0.9558
  162SOPE    HB18117   2.752  -0.374  10.738  0.1168 -0.9289 -0.0958
  162SOPE    C218118   2.690  -0.349  10.523 -0.5717  0.7477 -0.2680
  162SOPE    HS18119   2.796  -0.370  10.495 -0.8248 -1.0494 -0.0292
  162SOPE   O2118120   2.635  -0.236  10.452 -0.4426 -0.6160  0.4932
  162SOPE   C2118121   2.713  -0.164  10.373  0.4365  0.3175  0.0096
  162SOPE   O2218122   2.832  -0.190  10.347 -0.6667 -0.0943 -0.0170
  162SOPE   C2218123   2.625  -0.048  10.318 -0.7508 -0.4910  0.0948
  162SOPE   H2R18124   2.693   0.040  10.321 -0.6782 -0.5514  0.2872
  162SOPE   H2S18125   2.547  -0.036  10.396  0.4265  2.0041  1.0211
  162SOPE    C318126   2.611  -0.481  10.497  0.4194  0.0838  0.5448
  162SOPE    HX18127   2.508  -0.463  10.534  1.0758  0.0815  2.4654
  162SOPE    HY18128   2.643  -0.556  10.573 -1.6069 -1.3659  0.0334
  162SOPE   O3118129   2.625  -0.522  10.370  0.1876 -0.0736  0.3676
  162SOPE   C3118130   2.520  -0.517  10.284  0.3157  0.6584  0.3601
  162SOPE   O3218131   2.407  -0.493  10.315 -0.9438  0.5062 -0.4677
  162SOPE   C3218132   2.567  -0.541  10.142  0.7512 -0.0568 -0.1680
  162SOPE   H2X18133   2.604  -0.645  10.132  0.0957 -0.4974  1.6521
  162SOPE   H2Y18134   2.654  -0.473  10.127 -0.3682  1.7993  1.2675
  162SOPE   C2318135   2.570  -0.076  10.178  0.7078  0.1675  0.5279
  162SOPE   H3R18136   2.492   0.000  10.155 -1.5589 -2.0100  0.5888
  162SOPE   H3S18137   2.512  -0.171  10.177 -1.1112  1.1816 -2.3510
  162SOPE   C2418138   2.672  -0.079  10.061 -1.2176  0.5753 -0.4869
  162SOPE   H4R18139   2.734   0.007  10.092 -0.8573 -0.1833  0.9896
  162SOPE   H4S18140   2.728  -0.175  10.058 -2.0685  0.0660 -0.4129
  162SOPE   C2518141   2.607  -0.056   9.922 -0.5857 -0.3457 -0.4722
  162SOPE   H5R18142   2.520  -0.123   9.902 -1.8805  1.3725 -0.7598
  162SOPE   H5S18143   2.560   0.044   9.921 -1.4367 -0.7361 -0.3837
  162SOPE   C2618144   2.704  -0.073   9.803 -0.3157  0.4055 -0.2603
  162SOPE   H6R18145   2.800  -0.020   9.821 -0.5013  1.7147 -2.7059
  162SOPE   H6S18146   2.728  -0.181   9.790 -0.3326  0.2048  1.2079
  162SOPE   C2718147   2.649  -0.019   9.674 -0.0897 -0.2327  0.1237
  162SOPE   H7R18148   2.633   0.090   9.677 -0.2328 -0.1351 -2.0491
  162SOPE   H7S18149   2.731  -0.044   9.603  2.4641  2.5135  1.8962
  162SOPE   C2818150   2.516  -0.075   9.622  0.0125 -0.4231  0.0900
  162SOPE   H8R18151   2.431  -0.054   9.691 -1.2427 -1.6039 -1.0428
  162SOPE   H8S18152   2.480  -0.020   9.532  0.1174 -0.9950 -0.3085
  162SOPE   C2918153   2.512  -0.219   9.599 -0.5276  0.5119 -0.1640
  162SOPE   H9118154   2.568  -0.273   9.677  2.0747 -1.7195 -3.3146
  162SOPE  C21018155   2.472  -0.300   9.500 -0.0075 -0.0811  0.7174
  162SOPE  H10118156   2.480  -0.410   9.503 -0.9380 -0.1298  2.4109
  162SOPE  C21118157   2.389  -0.260   9.378  0.0426 -0.6111 -0.2625
  162SOPE  H11R18158   2.367  -0.151   9.382  1.3541 -0.3644  2.0491
  162SOPE  H11S18159   2.297  -0.322   9.387  0.4859 -1.0935  1.1497
  162SOPE  C21218160   2.449  -0.290   9.238  0.0842 -0.1302 -0.3395
  162SOPE  H12R18161   2.505  -0.386   9.238  0.7088  0.2274  0.0143
  162SOPE  H12S18162   2.525  -0.209   9.225 -0.1492  0.1261 -0.1200
  162SOPE  C21318163   2.342  -0.269   9.126 -0.2417  0.5869 -1.3994
  162SOPE  H13R18164   2.353  -0.162   9.097  2.1971  1.1549  1.1941
  162SOPE  H13S18165   2.242  -0.278   9.173 -1.0124  0.0337 -3.0373
  162SOPE  C21418166   2.367  -0.378   9.021  0.4332  0.1203  0.0755
  162SOPE  H14R18167   2.350  -0.478   9.067 -0.5611  0.3283  0.1618
  162SOPE  H14S18168   2.468  -0.374   8.974  0.9140 -0.4461  1.0294
  162SOPE  C21518169   2.271  -0.362   8.897  0.2977  0.3362  0.7504
  162SOPE  H15R18170   2.259  -0.254   8.873 -3.0012  0.0181  0.4322
  162SOPE  H15S18171   2.172  -0.400   8.932  0.5762 -2.9858 -1.5858
  162SOPE  C21618172   2.309  -0.451   8.773 -0.6792 -0.7544 -0.7047
  162SOPE  H16R18173   2.300  -0.559   8.799  0.0223 -1.0083 -1.4910
  162SOPE  H16S18174   2.410  -0.417   8.744 -0.9778  0.6675 -0.1803
  162SOPE  C21718175   2.216  -0.417   8.660  0.4822 -0.2088 -0.1530
  162SOPE  H17R18176   2.214  -0.307   8.648  2.2263 -0.1356 -0.1352
  162SOPE  H17S18177   2.115  -0.445   8.697  0.8545 -0.7054  0.5172
  162SOPE  C21818178   2.237  -0.495   8.532  0.2495  0.1949 -0.6866
  162SOPE  H18R18179   2.326  -0.462   8.475 -0.1569  0.5035 -1.1447
  162SOPE  H18S18180   2.153  -0.475   8.463  0.9383  0.7382 -1.3831
  162SOPE  H18T18181   2.246  -0.605   8.545 -1.1345  0.1312 -0.0433
  162SOPE   C3318182   2.444  -0.516  10.048  0.4735  0.5360 -0.5941
  162SOPE   H3X18183   2.400  -0.416  10.067 -1.7243 -0.7522  1.6616
  162SOPE   H3Y18184   2.371  -0.598  10.063  0.4969  0.7090  0.5950
  162SOPE   C3418185   2.485  -0.531   9.905  0.1650 -0.3908 -0.7275
  162SOPE   H4X18186   2.539  -0.627   9.890  0.6132 -0.1150 -0.9004
  162SOPE   H4Y18187   2.556  -0.448   9.884 -1.6182  1.3344 -0.3008
  162SOPE   C3518188   2.358  -0.514   9.813  0.2595 -0.0823  0.5291
  162SOPE   H5X18189   2.351  -0.407   9.786  0.9238 -0.2001 -0.1147
  162SOPE   H5Y18190   2.267  -0.537   9.873 -0.5761 -3.7014 -1.8168
  162SOPE   C3618191   2.348  -0.615   9.704  0.2353 -0.4608  0.9397
  162SOPE   H6X18192   2.319  -0.711   9.751 -2.0057  1.2041  3.2283
  162SOPE   H6Y18193   2.449  -0.629   9.658  0.2785 -2.2129  1.4947
  162SOPE   C3718194   2.250  -0.579   9.592 -0.0606 -0.2345  0.2377
  162SOPE   H7X18195   2.288  -0.502   9.522 -0.6486 -1.1605 -1.1418
  162SOPE   H7Y18196   2.156  -0.538   9.636 -2.0629 -1.3445 -2.6728
  162SOPE   C3818197   2.210  -0.702   9.512 -0.5810  0.4870  0.4024
  162SOPE   H8X18198   2.191  -0.784   9.585 -0.1491  0.7951  0.8630
  162SOPE   H8Y18199   2.291  -0.734   9.443 -1.9436 -2.4908  0.0061
  162SOPE   C3918200   2.081  -0.692   9.420 -0.3877 -0.0194 -0.0621
  162SOPE   H9X18201   1.989  -0.692   9.482 -2.3699  0.7539 -2.8061
  162SOPE   H9Y18202   2.080  -0.783   9.356  1.3552  1.1161 -1.8152
  162SOPE  C31018203   2.078  -0.571   9.317 -0.0560  0.4852  0.2628
  162SOPE  H10X18204   2.149  -0.588   9.232 -0.8309 -2.5823  0.0930
  162SOPE  H10Y18205   2.101  -0.481   9.377  0.7413  1.3358 -1.2578
  162SOPE  C31118206   1.938  -0.555   9.251 -0.5407  0.2164  0.2407
  162SOPE  H11X18207   1.869  -0.515   9.329 -1.5493 -3.6980  1.5718
  162SOPE  H11Y18208   1.896  -0.655   9.230  1.4254 -0.9610  1.6040
  162SOPE  C31218209   1.953  -0.468   9.128 -0.8804  0.3667 -0.4663
  162SOPE  H12X18210   2.021  -0.520   9.056 -0.6397  0.3250 -0.2070
  162SOPE  H12Y18211   2.001  -0.370   9.150  0.6001 -0.7273  1.4383
  162SOPE  C31318212   1.818  -0.444   9.054 -0.1542  0.1692  0.0942
  162SOPE  H13X18213   1.763  -0.365   9.110 -1.5703  0.7553 -2.0008
  162SOPE  H13Y18214   1.764  -0.539   9.035  0.4969 -0.6278  1.9721
  162SOPE  C31418215   1.841  -0.359   8.927 -0.4070  0.2325  0.1246
  162SOPE  H14X18216   1.744  -0.357   8.873 -2.1315 -2.2468  2.8050
  162SOPE  H14Y18217   1.903  -0.423   8.861 -0.9098 -0.0018 -0.1280
  162SOPE  C31518218   1.888  -0.215   8.945  0.0977  0.6055 -0.3054
  162SOPE  H15X18219   1.989  -0.210   8.992  0.5503 -1.5329 -0.9601
  162SOPE  H15Y18220   1.815  -0.158   9.007  0.2028  1.1141 -0.6430
  162SOPE  C31618221   1.888  -0.124   8.816 -0.1536 -0.3409  0.1995
  162SOPE  H16X18222   1.975  -0.144   8.750  0.7353  0.7823  0.9860
  162SOPE  H16Y18223   1.920  -0.029   8.864 -0.8862  0.2265 -0.4100
  162SOPE  C31718224   1.751  -0.103   8.748 -0.5199 -0.5097 -0.0381
  162SOPE  H17X18225   1.681  -0.061   8.823 -0.6374  0.2660 -0.5749
  162SOPE  H17Y18226   1.692  -0.197   8.736 -1.0289 -0.0351 -1.5036
  162SOPE  C31818227   1.759  -0.009   8.626  0.2907 -0.6071  0.5280
  162SOPE  H18X18228   1.776  -0.061   8.529 -3.3004 -0.0102 -0.5804
  162SOPE  H18Y18229   1.850   0.054   8.634  0.9239 -0.7983 -3.1705
  162SOPE  H18Z18230   1.671   0.060   8.624  1.6418  1.1755 -0.3834
  163SOPE     N18231   2.570   2.182  10.620 -0.4133  1.1457  0.2389
  163SOPE   HN118232   2.561   2.105  10.551 -0.5255 -0.0433  1.5280
  163SOPE   HN218233   2.502   2.168  10.697  2.7711 -2.4342  2.8428
  163SOPE   HN318234   2.544   2.265  10.563 -0.8095  0.5507 -0.4584
  163SOPE   C1218235   2.710   2.175  10.671  0.0064  0.1416  0.3465
  163SOPE  H12A18236   2.736   2.069  10.694  2.5407  1.0435  2.0254
  163SOPE  H12B18237   2.729   2.241  10.758 -2.0798  2.0790 -0.5546
  163SOPE   C1118238   2.808   2.214  10.561  0.5537 -0.4941  0.3000
  163SOPE  H11A18239   2.766   2.295  10.498  1.2186  0.7468  1.3893
  163SOPE  H11B18240   2.814   2.120  10.501 -0.5164 -1.0328  1.0081
  163SOPE     P18241   3.073   2.270  10.539  0.1456  0.1784 -0.4037
  163SOPE   O1318242   3.147   2.143  10.525  0.9641 -0.1767  0.3107
  163SOPE   O1418243   3.139   2.380  10.614 -0.0572 -0.1126  0.6783
  163SOPE   O1218244   2.935   2.249  10.614  0.2264  0.1377 -0.1661
  163SOPE   O1118245   3.025   2.313  10.391 -0.9314 -0.3058  0.1150
  163SOPE    C118246   2.972   2.439  10.354 -0.4981  0.2946 -0.4523
  163SOPE    HA18247   3.046   2.521  10.338 -1.6452  1.5125  0.3817
  163SOPE    HB18248   2.902   2.483  10.427 -0.7797  0.2043 -0.6668
  163SOPE    C218249   2.886   2.427  10.232 -0.4313 -0.2754 -0.1560
  163SOPE    HS18250   2.802   2.368  10.275 -0.4858  0.1089  0.2769
  163SOPE   O2118251   2.964   2.362  10.129 -0.0943  0.1076 -0.7630
  163SOPE   C2118252   2.890   2.317  10.031 -0.1717  0.0133 -0.2935
  163SOPE   O2218253   2.769   2.319  10.023 -0.0441 -0.5395  0.1491
  163SOPE   C2218254   2.984   2.279   9.922  0.0939  0.1586  0.7530
  163SOPE   H2R18255   3.035   2.184   9.946  0.9862  0.3354 -0.3622
  163SOPE   H2S18256   3.060   2.360   9.921 -0.3749  0.6174  1.4400
  163SOPE    C318257   2.826   2.569  10.184  0.0577 -0.0883 -0.8962
  163SOPE    HX18258   2.771   2.602  10.275 -0.1582 -3.6769  0.4514
  163SOPE    HY18259   2.761   2.551  10.097  0.7636  0.3720 -1.5303
  163SOPE   O3118260   2.936   2.663  10.155  0.0664  0.5038  0.1128
  163SOPE   C3118261   2.886   2.765  10.083 -1.4116 -0.7463  0.1637
  163SOPE   O3218262   2.768   2.801  10.064 -0.6917  0.0461 -0.1907
  163SOPE   C3218263   3.008   2.841  10.027 -0.0440 -0.0682  0.0212
  163SOPE   H2X18264   3.083   2.769   9.989  1.6017  2.3924 -1.7080
  163SOPE   H2Y18265   3.057   2.890  10.114 -0.8553  1.3126 -0.2602
  163SOPE   C2318266   2.908   2.269   9.788  0.0343 -0.0907 -0.1222
  163SOPE   H3R18267   2.810   2.321   9.782 -2.5872 -4.4850  0.0301
  163SOPE   H3S18268   2.883   2.165   9.757 -0.0205 -0.0894 -0.0821
  163SOPE   C2418269   3.003   2.319   9.678 -0.1994 -1.3445  0.0621
  163SOPE   H4R18270   3.011   2.429   9.691 -0.9759 -0.7604 -3.2640
  163SOPE   H4S18271   3.094   2.257   9.690  0.5476 -0.9260 -2.6993
  163SOPE   C2518272   2.946   2.294   9.532 -0.4498 -0.3331  0.4784
  163SOPE   H5R18273   2.927   2.186   9.514  3.7319 -1.3009  0.7463
  163SOPE   H5S18274   2.852   2.354   9.531 -0.4688 -0.3542  0.8882
  163SOPE   C2618275   3.042   2.343   9.419  0.0387  0.3846  0.0471
  163SOPE   H6R18276   3.038   2.453   9.424  2.6405  0.5221  0.2175
  163SOPE   H6S18277   3.148   2.313   9.432 -0.3868 -1.0223  0.4530
  163SOPE   C2718278   3.000   2.284   9.283  0.1573 -0.0464 -0.7337
  163SOPE   H7R18279   3.014   2.174   9.282 -0.9749 -0.2021 -0.6569
  163SOPE   H7S18280   2.890   2.298   9.286 -0.0397 -1.6447  1.8278
  163SOPE   C2818281   3.064   2.371   9.172 -0.3123  0.0814  1.1447
  163SOPE   H8R18282   3.016   2.471   9.159  2.1304  1.0298 -1.8673
  163SOPE   H8S18283   3.168   2.390   9.206  0.3361 -0.1882 -0.5715
  163SOPE   C2918284   3.070   2.294   9.038  0.4245 -0.7664 -0.8878
  163SOPE   H9118285   3.149   2.218   9.033  0.8376 -0.7503  2.6613
  163SOPE  C21018286   3.005   2.327   8.922  0.1381  0.5810 -0.1397
  163SOPE  H10118287   3.018   2.252   8.844  1.4360 -0.3889  0.9659
  163SOPE  C21118288   2.909   2.442   8.899 -0.2917  0.4690 -0.0638
  163SOPE  H11R18289   2.911   2.498   8.994  0.5484  1.3937 -0.6126
  163SOPE  H11S18290   2.806   2.406   8.876 -0.3834  1.2811 -0.9579
  163SOPE  C21218291   2.950   2.536   8.793 -0.1768  0.4150  0.5788
  163SOPE  H12R18292   3.053   2.567   8.818  0.3911 -2.0347  1.6200
  163SOPE  H12S18293   2.883   2.625   8.798 -0.5337  0.1042  1.8825
  163SOPE  C21318294   2.945   2.482   8.649 -0.3498  0.2935 -0.3055
  163SOPE  H13R18295   2.914   2.570   8.590 -0.4342  0.0583 -0.6164
  163SOPE  H13S18296   2.861   2.410   8.649  1.9914 -2.6576  0.4557
  163SOPE  C21418297   3.081   2.428   8.598  0.4607 -0.3527  0.0474
  163SOPE  H14R18298   3.098   2.328   8.644  1.8330 -1.0572 -1.9087
  163SOPE  H14S18299   3.158   2.504   8.623  0.0599 -0.0659  0.4434
  163SOPE  C21518300   3.072   2.419   8.437  0.7863 -0.4435 -0.6304
  163SOPE  H15R18301   3.062   2.525   8.409  0.3962 -0.2606  0.1629
  163SOPE  H15S18302   2.984   2.357   8.411 -0.1944  0.2703  0.8686
  163SOPE  C21618303   3.192   2.345   8.382  0.5879  0.2788  0.8671
  163SOPE  H16R18304   3.178   2.235   8.372 -0.8338  0.6504 -2.3294
  163SOPE  H16S18305   3.279   2.365   8.449  1.6842  0.5935 -0.5992
  163SOPE  C21718306   3.223   2.408   8.239  0.3329 -0.4771  0.8065
  163SOPE  H17R18307   3.135   2.464   8.202 -0.3877 -2.0122  0.0822
  163SOPE  H17S18308   3.242   2.325   8.167  2.3673  1.0457 -0.5183
  163SOPE  C21818309   3.353   2.490   8.219  0.8304  0.4700  0.3364
  163SOPE  H18R18310   3.341   2.593   8.260  1.2673 -0.4317  2.9152
  163SOPE  H18S18311   3.376   2.508   8.112 -0.3481  1.2315  0.1917
  163SOPE  H18T18312   3.439   2.430   8.255 -0.0949 -1.4198 -0.4409
  163SOPE   C3318313   2.968   2.942   9.921  0.6026 -0.0232  0.4293
  163SOPE   H3X18314   2.913   3.019   9.978 -0.3126  0.7931 -1.4677
  163SOPE   H3Y18315   2.903   2.896   9.844  1.9469 -0.1316 -0.6846
  163SOPE   C3418316   3.097   2.987   9.857 -0.3014 -0.4500  0.1090
  163SOPE   H4X18317   3.170   2.904   9.838  1.8169  1.3237  0.1025
  163SOPE   H4Y18318   3.157   3.058   9.918  1.9007 -0.3823 -1.9726
  163SOPE   C3518319   3.084   3.068   9.729  0.0636  0.3774 -0.2960
  163SOPE   H5X18320   3.181   3.114   9.700 -0.5554  1.1293 -1.2476
  163SOPE   H5Y18321   3.018   3.157   9.734  2.5324  2.3457 -0.4662
  163SOPE   C3618322   3.055   2.974   9.611 -0.1181 -0.6686 -0.4485
  163SOPE   H6X18323   2.950   2.941   9.622 -0.1312 -0.6456 -0.5063
  163SOPE   H6Y18324   3.111   2.879   9.625  1.5940 -0.1070 -2.8672
  163SOPE   C3718325   3.067   3.052   9.476  0.5896 -0.2715 -0.0645
  163SOPE   H7X18326   3.176   3.066   9.459  0.6165  0.0469  0.3580
  163SOPE   H7Y18327   3.020   3.152   9.479  1.1530 -0.0376  1.5933
  163SOPE   C3818328   3.014   2.963   9.363 -0.1332 -0.4121 -0.2467
  163SOPE   H8X18329   2.913   2.927   9.394 -0.3551  0.0375 -0.4267
  163SOPE   H8Y18330   3.070   2.868   9.355 -0.0271 -0.4282  0.6118
  163SOPE   C3918331   3.002   3.038   9.223 -0.1560 -0.0135 -0.3799
  163SOPE   H9X18332   3.107   3.031   9.187 -0.3816  0.2902 -1.1044
  163SOPE   H9Y18333   2.978   3.143   9.249  2.4844  0.7322 -0.6910
  163SOPE  C31018334   2.894   2.984   9.135  0.5164 -1.2355  0.0483
  163SOPE  H10X18335   2.800   2.975   9.192 -0.0243  0.1237 -0.5882
  163SOPE  H10Y18336   2.925   2.880   9.108  1.4388 -1.2029  0.9444
  163SOPE  C31118337   2.876   3.059   9.010 -0.5408 -0.2704 -0.3244
  163SOPE  H11X18338   2.974   3.062   8.958  0.0976 -1.5716  0.7577
  163SOPE  H11Y18339   2.843   3.162   9.035 -2.2844 -0.7842 -0.4178
  163SOPE  C31218340   2.769   3.004   8.911  0.9009  0.2976 -0.6127
  163SOPE  H12X18341   2.679   3.006   8.976  0.8657 -2.4841 -0.4609
  163SOPE  H12Y18342   2.791   2.896   8.894 -0.0805 -0.0217  0.0405
  163SOPE  C31318343   2.772   3.097   8.790 -0.2982  0.0093  0.5246
  163SOPE  H13X18344   2.877   3.100   8.752 -0.1127 -0.9501  0.9244
  163SOPE  H13Y18345   2.740   3.202   8.807  0.8333  0.4637 -0.0633
  163SOPE  C31418346   2.678   3.051   8.675  0.5369  0.2240  0.1081
  163SOPE  H14X18347   2.685   3.121   8.590  0.5345 -0.9183 -0.8608
  163SOPE  H14Y18348   2.576   3.071   8.716  0.5444  1.1575 -0.3265
  163SOPE  C31518349   2.695   2.912   8.620 -0.2651 -0.5914  0.3677
  163SOPE  H15X18350   2.633   2.888   8.532 -1.1252 -1.0950  1.0902
  163SOPE  H15Y18351   2.677   2.841   8.704  1.9799 -2.0689 -0.3137
  163SOPE  C31618352   2.840   2.877   8.573  0.4518  0.3260 -0.1965
  163SOPE  H16X18353   2.842   2.768   8.554  1.4930  0.6400 -2.1083
  163SOPE  H16Y18354   2.912   2.908   8.651  0.0249  2.6427 -0.6539
  163SOPE  C31718355   2.877   2.939   8.440  0.7504 -0.2080 -0.6113
  163SOPE  H17X18356   2.880   3.049   8.456 -0.0076 -0.1859 -0.5920
  163SOPE  H17Y18357   2.800   2.908   8.366  0.8001 -1.3967 -0.1747
  163SOPE  C31818358   3.017   2.897   8.386  0.1395 -1.1532 -0.2405
  163SOPE  H18X18359   3.037   2.788   8.380  0.6069 -1.0950  0.2759
  163SOPE  H18Y18360   3.097   2.950   8.441 -0.5251 -0.0368 -0.2981
  163SOPE  H18Z18361   3.015   2.934   8.281 -1.6540 -0.9424 -0.1788
  164SOPE     N18362   4.954   0.347  11.128  0.5861 -0.7532  0.1861
  164SOPE   HN118363   4.898   0.320  11.044  1.6574 -0.8878 -0.5090
  164SOPE   HN218364   4.933   0.446  11.152  0.9022 -1.2246  2.5593
  164SOPE   HN318365   5.054   0.348  11.099  0.5015 -1.3963 -0.1431
  164SOPE   C1218366   4.939   0.240  11.237  0.8545 -0.1214 -0.1332
  164SOPE  H12A18367   4.839   0.248  11.285  1.9611 -1.8918  2.7599
  164SOPE  H12B18368   5.005   0.263  11.323 -0.2248  0.9896  0.4197
  164SOPE   C1118369   4.963   0.099  11.185 -0.0036 -0.0579  0.0121
  164SOPE  H11A18370   4.879   0.060  11.123  0.2448  0.3600 -0.5986
  164SOPE  H11B18371   4.969   0.036  11.276 -1.5732 -0.0150  0.1793
  164SOPE     P18372   5.128  -0.026  11.031  0.0012  0.0572  0.0324
  164SOPE   O1318373   5.040  -0.141  11.058 -0.0579  0.3134 -0.7247
  164SOPE   O1418374   5.276  -0.046  11.049 -0.3094  0.2550  0.3414
  164SOPE   O1218375   5.088   0.099  11.109  1.1596  0.6432  0.4488
  164SOPE   O1118376   5.104   0.013  10.874  0.0347 -0.1941  0.3028
  164SOPE    C118377   4.984   0.063  10.834  0.1533  0.8365  0.2969
  164SOPE    HA18378   4.961   0.158  10.889 -1.6824  0.7863 -0.3099
  164SOPE    HB18379   4.897  -0.006  10.844 -0.3327  1.6399  2.1386
  164SOPE    C218380   5.004   0.099  10.687 -0.4388  0.0336 -0.6427
  164SOPE    HS18381   4.920   0.165  10.657  0.6928  1.5722 -0.5197
  164SOPE   O2118382   5.002  -0.028  10.621 -0.2836 -0.0236 -0.1772
  164SOPE   C2118383   4.890  -0.068  10.569  0.4976 -0.2463  0.3989
  164SOPE   O2218384   4.783  -0.005  10.574  0.6333 -0.5997  0.2291
  164SOPE   C2218385   4.913  -0.202  10.503  1.4256  0.0264 -0.9632
  164SOPE   H2R18386   4.813  -0.251  10.497  0.5208  1.5164  1.0299
  164SOPE   H2S18387   4.977  -0.268  10.566 -0.2736  0.1626  0.9984
  164SOPE    C318388   5.143   0.157  10.667 -0.5676  0.1868 -1.0101
  164SOPE    HX18389   5.219   0.080  10.642 -0.9304 -0.4519 -0.2004
  164SOPE    HY18390   5.189   0.205  10.757 -1.6681 -1.8715  0.7609
  164SOPE   O3118391   5.145   0.263  10.567 -0.1700  0.3526 -0.2788
  164SOPE   C3118392   5.131   0.229  10.440 -0.0007  0.0238  0.5553
  164SOPE   O3218393   5.140   0.118  10.395  0.0209 -0.4955  0.0515
  164SOPE   C3218394   5.106   0.353  10.361 -0.0904 -0.1740  0.0187
  164SOPE   H2X18395   5.175   0.437  10.384 -0.1718  0.0242 -0.4383
  164SOPE   H2Y18396   5.004   0.392  10.379 -0.4457  0.4569 -2.8852
  164SOPE   C2318397   4.972  -0.186  10.367 -0.4652 -0.3632  0.2630
  164SOPE   H3R18398   5.076  -0.146  10.376  0.4874 -1.8461 -2.6631
  164SOPE   H3S18399   4.914  -0.108  10.313 -0.7692 -0.3117  0.6568
  164SOPE   C2418400   4.975  -0.322  10.287 -0.6317 -0.5618  0.0780
  164SOPE   H4R18401   5.038  -0.392  10.347 -0.9929 -2.3563 -1.5505
  164SOPE   H4S18402   4.871  -0.357  10.271 -0.3943 -0.5260 -1.7288
  164SOPE   C2518403   5.041  -0.312  10.147  0.5771 -0.2230  0.3686
  164SOPE   H5R18404   5.135  -0.252  10.156 -0.2273  1.0674  0.4699
  164SOPE   H5S18405   5.060  -0.409  10.097  0.3127 -0.1226  0.0720
  164SOPE   C2618406   4.970  -0.236  10.031  0.0960  0.5200 -0.9031
  164SOPE   H6R18407   4.862  -0.262  10.032 -0.2333  1.8218 -1.0727
  164SOPE   H6S18408   4.986  -0.128  10.052 -0.7369  0.9392 -2.2679
  164SOPE   C2718409   5.035  -0.261   9.896  0.1741  0.6397 -0.4060
  164SOPE   H7R18410   5.138  -0.220   9.889  1.4610 -2.5486 -2.6529
  164SOPE   H7S18411   5.046  -0.370   9.879  0.3052  0.0531  2.8241
  164SOPE   C2818412   4.952  -0.198   9.776  0.3443  0.7886 -0.0788
  164SOPE   H8R18413   5.006  -0.221   9.682  2.6277  1.1233  1.0903
  164SOPE   H8S18414   4.857  -0.253   9.754  0.8232  1.1054 -3.5651
  164SOPE   C2918415   4.911  -0.057   9.777 -0.5527 -0.0050 -0.4148
  164SOPE   H9118416   4.821  -0.025   9.831 -0.6605  1.5135 -1.4341
  164SOPE  C21018417   4.987   0.041   9.731  0.2849 -0.1654 -0.1947
  164SOPE  H10118418   4.946   0.143   9.732  0.4071 -0.0965  2.0292
  164SOPE  C21118419   5.126   0.043   9.672 -0.1010  0.0124  0.0150
  164SOPE  H11R18420   5.198  -0.026   9.720 -0.0096 -0.4159 -0.7146
  164SOPE  H11S18421   5.154   0.150   9.687  2.9239 -0.7557  0.5489
  164SOPE  C21218422   5.124   0.015   9.512 -0.3268 -0.4001  0.5362
  164SOPE  H12R18423   5.098  -0.093   9.505 -0.7903 -0.1784 -4.0519
  164SOPE  H12S18424   5.230   0.023   9.480 -0.4654 -0.6401  0.0100
  164SOPE  C21318425   5.038   0.099   9.420 -0.6020 -0.6344 -0.1253
  164SOPE  H13R18426   4.939   0.119   9.466 -0.2189  2.1948 -0.3243
  164SOPE  H13S18427   5.020   0.049   9.322  0.7799 -1.9346  0.2413
  164SOPE  C21418428   5.090   0.238   9.376  0.2606 -0.1222 -0.8989
  164SOPE  H14R18429   5.108   0.301   9.465 -2.9463  0.2961 -0.4654
  164SOPE  H14S18430   5.017   0.285   9.307 -0.6466  1.6916  1.1960
  164SOPE  C21518431   5.220   0.224   9.301 -0.7290  0.2180 -0.8531
  164SOPE  H15R18432   5.185   0.206   9.197 -3.9493  2.1273 -0.2285
  164SOPE  H15S18433   5.287   0.151   9.351 -0.1698  1.3779  0.1643
  164SOPE  C21618434   5.295   0.359   9.298  0.1145 -0.1970 -0.3194
  164SOPE  H16R18435   5.320   0.401   9.397 -0.8101  2.1025 -0.9954
  164SOPE  H16S18436   5.238   0.442   9.250 -1.6685 -1.6480 -0.8266
  164SOPE  C21718437   5.432   0.360   9.232 -0.1664 -0.2545 -0.1263
  164SOPE  H17R18438   5.510   0.320   9.300  1.3731  1.0373 -1.0560
  164SOPE  H17S18439   5.463   0.465   9.213  1.3908 -0.5526  0.6192
  164SOPE  C21818440   5.438   0.295   9.096 -0.7457 -0.3038 -0.7162
  164SOPE  H18R18441   5.408   0.188   9.099  1.7078 -1.0872 -1.7158
  164SOPE  H18S18442   5.544   0.303   9.064 -0.1136 -0.0857  1.2839
  164SOPE  H18T18443   5.372   0.349   9.025 -2.1807 -0.1205  0.6960
  164SOPE   C3318444   5.108   0.334  10.207  0.1513  0.8086  0.4635
  164SOPE   H3X18445   5.043   0.251  10.173  1.8136 -0.3023 -0.1209
  164SOPE   H3Y18446   5.216   0.320  10.182  0.4974 -0.8720  2.5136
  164SOPE   C3418447   5.073   0.460  10.119  0.0864  0.4836 -0.5326
  164SOPE   H4X18448   5.156   0.534  10.125  1.3243 -0.8976  0.3395
  164SOPE   H4Y18449   4.985   0.507  10.167  0.3253 -1.1472  1.6712
  164SOPE   C3518450   5.053   0.411   9.975 -0.5552  0.4199 -0.4507
  164SOPE   H5X18451   4.976   0.330   9.981  1.5623 -1.6767  0.1549
  164SOPE   H5Y18452   5.136   0.345   9.941 -0.5078  1.4890 -2.5553
  164SOPE   C3618453   5.028   0.523   9.876  0.2633  0.8006 -0.2515
  164SOPE   H6X18454   5.110   0.597   9.881  1.1595 -0.2202  0.9791
  164SOPE   H6Y18455   4.937   0.581   9.903  1.0243  1.7741  0.2683
  164SOPE   C3718456   5.002   0.473   9.733  1.1835  0.4906  0.2811
  164SOPE   H7X18457   4.934   0.386   9.739  0.3849  1.1394  0.7733
  164SOPE   H7Y18458   5.100   0.440   9.692  0.8854 -0.4098  0.2553
  164SOPE   C3818459   4.957   0.570   9.621  0.5179 -0.1533 -0.7901
  164SOPE   H8X18460   4.856   0.609   9.645  0.0785  1.2639 -4.2868
  164SOPE   H8Y18461   4.944   0.511   9.528  2.7334 -2.1786  0.0843
  164SOPE   C3918462   5.063   0.679   9.603  0.7238 -0.5968 -0.3890
  164SOPE   H9X18463   5.110   0.707   9.700  0.6234  3.6358 -1.3752
  164SOPE   H9Y18464   5.002   0.761   9.559  0.9896 -1.4551 -2.5052
  164SOPE  C31018465   5.175   0.656   9.503  0.2137  0.0781  0.0390
  164SOPE  H10X18466   5.185   0.548   9.477  1.5251  0.1734  0.0863
  164SOPE  H10Y18467   5.276   0.680   9.542  0.8592 -2.1493 -0.1104
  164SOPE  C31118468   5.159   0.736   9.373  0.1403 -1.0633 -0.0002
  164SOPE  H11X18469   5.144   0.844   9.394  1.3645 -1.4176  3.2888
  164SOPE  H11Y18470   5.062   0.701   9.331  0.8221 -2.0807 -0.7654
  164SOPE  C31218471   5.261   0.707   9.260  0.2414 -0.1143  0.3217
  164SOPE  H12X18472   5.327   0.619   9.279  1.6278  0.8364  0.0419
  164SOPE  H12Y18473   5.329   0.790   9.233 -0.4336 -0.5240 -3.1911
  164SOPE  C31318474   5.197   0.676   9.125  0.4805  0.4336 -0.6998
  164SOPE  H13X18475   5.113   0.747   9.108 -0.4843 -0.6882 -0.7502
  164SOPE  H13Y18476   5.157   0.573   9.140 -1.9682  1.5049  0.8604
  164SOPE  C31418477   5.290   0.675   8.999  0.3585 -0.5183  0.2436
  164SOPE  H14X18478   5.363   0.592   9.008  0.0366 -0.8827 -0.4153
  164SOPE  H14Y18479   5.330   0.774   8.970  0.0951 -0.5804 -0.3379
  164SOPE  C31518480   5.213   0.628   8.877  0.1550 -0.1730 -0.1164
  164SOPE  H15X18481   5.150   0.709   8.835  0.5247 -0.0808 -0.5000
  164SOPE  H15Y18482   5.145   0.546   8.909  1.2958 -0.5003  1.5658
  164SOPE  C31618483   5.293   0.583   8.753  0.0599  0.1858  0.0934
  164SOPE  H16X18484   5.380   0.650   8.737 -0.0329  0.0255 -1.1490
  164SOPE  H16Y18485   5.228   0.589   8.663 -0.1943 -0.1196  0.2559
  164SOPE  C31718486   5.336   0.434   8.756  0.1833 -0.5891  0.5992
  164SOPE  H17X18487   5.246   0.369   8.750 -0.1699  0.0453 -3.0479
  164SOPE  H17Y18488   5.392   0.419   8.851  2.0372 -0.3129 -0.4084
  164SOPE  C31818489   5.430   0.412   8.637  0.0467  0.0639  0.1078
  164SOPE  H18X18490   5.498   0.500   8.634 -1.7970  1.5473  0.1448
  164SOPE  H18Y18491   5.371   0.398   8.543  0.6649  0.4999 -0.3583
  164SOPE  H18Z18492   5.492   0.321   8.650  0.0931  0.4117  2.8492
  165SOPE     N18493   2.453   1.356  10.692  0.3122 -0.1376  0.0156
  165SOPE   HN118494   2.367   1.360  10.750 -0.5454  0.9258 -1.2821
  165SOPE   HN218495   2.462   1.258  10.660  0.3043 -0.1977  0.1987
  165SOPE   HN318496   2.537   1.376  10.749 -0.1992  1.6085  0.2078
  165SOPE   C1218497   2.443   1.443  10.576  0.0628  0.4348  0.5280
  165SOPE  H12A18498   2.341   1.449  10.531  0.6297  2.7917 -0.5978
  165SOPE  H12B18499   2.522   1.418  10.502 -1.4458 -2.8119 -0.1964
  165SOPE   C1118500   2.462   1.586  10.629  0.4948 -0.1629  0.1999
  165SOPE  H11A18501   2.378   1.605  10.699 -1.8778 -1.3818 -2.1369
  165SOPE  H11B18502   2.449   1.646  10.537 -0.1070 -1.9605 -0.9332
  165SOPE     P18503   2.630   1.747  10.748 -0.1635 -0.0246  0.1064
  165SOPE   O1318504   2.745   1.720  10.831 -0.9688 -0.2181  0.2397
  165SOPE   O1418505   2.504   1.807  10.802 -0.3920  0.4356 -0.0630
  165SOPE   O1218506   2.591   1.603  10.684 -0.2956 -0.2621  0.1152
  165SOPE   O1118507   2.668   1.825  10.614  0.1462  0.1847  0.2020
  165SOPE    C118508   2.785   1.779  10.550 -0.6299 -0.6637 -0.1430
  165SOPE    HA18509   2.796   1.670  10.531  1.4434 -0.2574 -1.5550
  165SOPE    HB18510   2.882   1.818  10.589 -1.0779  0.5440 -0.1840
  165SOPE    C218511   2.778   1.834  10.399 -0.0547 -0.4036  0.1050
  165SOPE    HS18512   2.794   1.944  10.404 -0.7806 -0.3498  1.7846
  165SOPE   O2118513   2.656   1.811  10.328  0.1010 -0.2715  0.2634
  165SOPE   C2118514   2.563   1.902  10.341  0.1902  0.3897  0.0630
  165SOPE   O2218515   2.573   1.999  10.409 -0.3855  0.3021  0.2710
  165SOPE   C2218516   2.440   1.866  10.256 -0.5075 -0.4245 -0.6218
  165SOPE   H2R18517   2.369   1.815  10.324  0.9713 -0.5513  0.9028
  165SOPE   H2S18518   2.478   1.788  10.187  2.0436 -2.2517  2.5413
  165SOPE    C318519   2.910   1.784  10.326  0.6622  0.3878 -0.5834
  165SOPE    HX18520   2.922   1.675  10.345 -1.3890 -0.0258 -1.3458
  165SOPE    HY18521   3.001   1.830  10.369  0.4542  2.0155 -1.8010
  165SOPE   O3118522   2.899   1.823  10.190 -0.0975  0.4257  0.2276
  165SOPE   C3118523   2.999   1.782  10.116 -0.9925  0.8431  0.7321
  165SOPE   O3218524   3.089   1.707  10.148  0.0955  0.3711  0.3020
  165SOPE   C3218525   2.993   1.848   9.979  0.2717 -0.4919 -0.2146
  165SOPE   H2X18526   3.017   1.956   9.991 -0.1176 -0.3827 -0.4038
  165SOPE   H2Y18527   2.888   1.843   9.944  0.4397 -1.7534 -0.6030
  165SOPE   C2318528   2.380   1.994  10.191  1.3696  0.1435 -0.6677
  165SOPE   H3R18529   2.338   2.063  10.267 -2.0890 -0.7581 -1.5916
  165SOPE   H3S18530   2.298   1.957  10.126  1.1146 -2.6521  1.0424
  165SOPE   C2418531   2.483   2.069  10.103  0.0156  0.1435  0.2211
  165SOPE   H4R18532   2.433   2.148  10.043  3.9382  3.1975  0.6012
  165SOPE   H4S18533   2.555   2.122  10.168 -2.3532  0.9331  2.3479
  165SOPE   C2518534   2.555   1.975   9.992  0.2492  0.7328 -0.0198
  165SOPE   H5R18535   2.651   1.938  10.032 -0.1926  0.2017  0.5695
  165SOPE   H5S18536   2.504   1.879   9.973 -0.3743  1.5197 -2.8261
  165SOPE   C2618537   2.580   2.048   9.863 -0.4482  1.0956  0.7172
  165SOPE   H6R18538   2.488   2.094   9.821  0.2939  1.5001 -0.5189
  165SOPE   H6S18539   2.647   2.136   9.871 -0.1140  1.0023 -0.7335
  165SOPE   C2718540   2.639   1.946   9.761  0.3038  0.0256 -0.5214
  165SOPE   H7R18541   2.730   1.900   9.806 -0.2061 -0.6085 -0.1036
  165SOPE   H7S18542   2.572   1.858   9.748  0.0871  0.0848  0.1359
  165SOPE   C2818543   2.666   1.996   9.612 -0.8634 -0.5555 -0.2583
  165SOPE   H8R18544   2.573   2.049   9.582 -1.3501 -2.1855 -1.8687
  165SOPE   H8S18545   2.749   2.070   9.611 -1.6607  0.3548  0.3018
  165SOPE   C2918546   2.689   1.884   9.519 -0.3694 -0.0737 -0.3876
  165SOPE   H9118547   2.710   1.786   9.565 -0.0682  0.2418  0.1562
  165SOPE  C21018548   2.705   1.903   9.382 -0.3645  0.2433 -0.2720
  165SOPE  H10118549   2.719   1.822   9.310 -1.3406 -0.5105  0.3655
  165SOPE  C21118550   2.692   2.035   9.309 -0.0836  0.9626  1.0011
  165SOPE  H11R18551   2.792   2.055   9.265 -0.4772 -1.1796 -1.0800
  165SOPE  H11S18552   2.653   2.111   9.380  1.5280 -0.4155  3.5088
  165SOPE  C21218553   2.595   2.028   9.192  0.6203  0.2103  0.0127
  165SOPE  H12R18554   2.587   2.129   9.147 -1.5601 -1.0035 -2.6364
  165SOPE  H12S18555   2.499   1.990   9.232  0.1988 -0.9909 -1.9766
  165SOPE  C21318556   2.621   1.921   9.080 -1.0248  0.1307 -0.0292
  165SOPE  H13R18557   2.542   1.921   9.001  0.0462 -0.3275 -1.1322
  165SOPE  H13S18558   2.611   1.818   9.122  1.2721 -0.5857 -1.0915
  165SOPE  C21418559   2.758   1.925   9.017  0.0510  0.9130 -0.6085
  165SOPE  H14R18560   2.765   1.847   8.938  0.5692 -0.2541  0.5644
  165SOPE  H14S18561   2.841   1.902   9.086  0.2173  1.1232 -0.7381
  165SOPE  C21518562   2.795   2.053   8.948  0.1457  0.1864 -0.4960
  165SOPE  H15R18563   2.903   2.066   8.925  0.5181  0.3082  1.2262
  165SOPE  H15S18564   2.771   2.142   9.009  1.6512 -0.3243  0.9334
  165SOPE  C21618565   2.713   2.076   8.817  0.2236  0.0814  1.1664
  165SOPE  H16R18566   2.715   2.185   8.792 -3.7040  0.2663  1.0424
  165SOPE  H16S18567   2.606   2.044   8.811 -0.4991  2.3824  0.6462
  165SOPE  C21718568   2.779   2.000   8.704  0.1940 -0.0162  0.4550
  165SOPE  H17R18569   2.756   1.891   8.703 -1.6876  0.2936 -2.3842
  165SOPE  H17S18570   2.888   2.017   8.698 -0.0037  0.6667 -1.9212
  165SOPE  C21818571   2.734   2.038   8.565  0.1452 -0.3870  0.1806
  165SOPE  H18R18572   2.725   2.148   8.550 -0.8558 -0.7250 -2.1011
  165SOPE  H18S18573   2.643   1.983   8.534  0.2056  0.2891 -1.2909
  165SOPE  H18T18574   2.814   1.996   8.499  0.9271  1.3040 -0.0074
  165SOPE   C3318575   3.094   1.803   9.865  0.0936  0.2899 -0.0901
  165SOPE   H3X18576   3.074   1.698   9.835 -0.1485  1.1887 -3.4692
  165SOPE   H3Y18577   3.196   1.794   9.908 -0.2646  0.7211  0.8955
  165SOPE   C3418578   3.076   1.885   9.738  0.2124 -0.0910 -0.6718
  165SOPE   H4X18579   3.105   1.992   9.749 -1.5277  0.4687 -1.1785
  165SOPE   H4Y18580   2.969   1.873   9.713  0.2856 -2.6794 -0.0151
  165SOPE   C3518581   3.156   1.812   9.627  0.3313  0.2611  0.4125
  165SOPE   H5X18582   3.108   1.713   9.610  2.0763 -0.6261  0.4372
  165SOPE   H5Y18583   3.263   1.792   9.645  0.4642  0.0371 -0.6101
  165SOPE   C3618584   3.126   1.880   9.498 -0.3015  0.1465 -0.6775
  165SOPE   H6X18585   3.179   1.977   9.495  1.9800 -0.9300  1.2201
  165SOPE   H6Y18586   3.018   1.906   9.500 -0.1446  0.7952  1.5001
  165SOPE   C3718587   3.159   1.791   9.373 -1.2031  0.4543  1.1790
  165SOPE   H7X18588   3.098   1.699   9.378 -1.7018  0.5141 -1.8585
  165SOPE   H7Y18589   3.264   1.754   9.383 -1.0842 -0.0586 -1.2856
  165SOPE   C3818590   3.154   1.868   9.237 -0.5694  0.4475 -0.0225
  165SOPE   H8X18591   3.217   1.959   9.235  0.5688 -0.2925  0.6960
  165SOPE   H8Y18592   3.049   1.900   9.221 -1.1639 -0.7335  1.2862
  165SOPE   C3918593   3.196   1.783   9.119  0.3685  1.0809  0.0778
  165SOPE   H9X18594   3.146   1.683   9.122  2.0291  0.2407  1.1011
  165SOPE   H9Y18595   3.305   1.763   9.119 -0.0549 -1.6073  0.5818
  165SOPE  C31018596   3.154   1.845   8.986 -0.2642  0.0317 -0.0070
  165SOPE  H10X18597   3.179   1.953   8.986 -0.1469  0.0109  0.7482
  165SOPE  H10Y18598   3.043   1.840   8.973 -0.4251  2.0654  0.3359
  165SOPE  C31118599   3.216   1.800   8.854  0.3765 -0.0579  0.0096
  165SOPE  H11X18600   3.176   1.704   8.814  1.3596  0.2731 -1.8854
  165SOPE  H11Y18601   3.324   1.786   8.876  0.2929  0.5983  0.8856
  165SOPE  C31218602   3.191   1.911   8.754 -0.2648 -0.6232 -0.9298
  165SOPE  H12X18603   3.229   2.011   8.783 -1.8418 -0.4027  0.5590
  165SOPE  H12Y18604   3.081   1.915   8.741 -0.1261 -0.7302 -2.3065
  165SOPE  C31318605   3.241   1.880   8.616  0.1147  0.2876  0.2009
  165SOPE  H13X18606   3.352   1.872   8.618  0.0168 -2.1607 -0.4290
  165SOPE  H13Y18607   3.224   1.958   8.539 -0.5052 -0.1722 -0.1412
  165SOPE  C31418608   3.200   1.751   8.542 -0.0616  0.7393 -0.4360
  165SOPE  H14X18609   3.090   1.748   8.526  0.1486 -0.3743 -2.0115
  165SOPE  H14Y18610   3.224   1.665   8.608 -0.9742  1.8145  1.3650
  165SOPE  C31518611   3.268   1.739   8.409 -0.4459 -0.2159 -0.0778
  165SOPE  H15X18612   3.246   1.640   8.365 -0.0125 -1.0511  1.4897
  165SOPE  H15Y18613   3.379   1.744   8.419 -0.4855  0.9062 -0.0354
  165SOPE  C31618614   3.213   1.837   8.308 -0.6003 -0.5322  0.1477
  165SOPE  H16X18615   3.123   1.884   8.352 -0.8179  0.4725 -1.3158
  165SOPE  H16Y18616   3.166   1.786   8.221  1.2449 -1.3739 -0.4149
  165SOPE  C31718617   3.318   1.938   8.267  0.6888 -0.2798 -0.0527
  165SOPE  H17X18618   3.402   1.884   8.217  0.0608 -0.4872 -0.9058
  165SOPE  H17Y18619   3.369   1.986   8.354  0.1940 -0.7703  0.5202
  165SOPE  C31818620   3.275   2.042   8.168  0.7802  0.5197 -0.0813
  165SOPE  H18X18621   3.206   2.107   8.226 -1.7991 -2.5469  0.5890
  165SOPE  H18Y18622   3.219   1.988   8.088  0.0944 -1.7914  1.8590
  165SOPE  H18Z18623   3.357   2.098   8.119  3.3981 -0.0752  3.2474
  166SOPE     N18624   0.124   1.477  10.940  0.2779  0.9214 -0.4454
  166SOPE   HN118625   0.094   1.383  10.974  0.3082  0.8806 -0.5281
  166SOPE   HN218626   0.036   1.531  10.949  0.9811  1.8255  1.5948
  166SOPE   HN318627   0.157   1.479  10.841 -0.1352  2.4836 -0.5684
  166SOPE   C1218628   0.223   1.557  11.016  0.2292  0.6144  0.6606
  166SOPE  H12A18629   0.191   1.556  11.123  2.7973  0.8496  1.4802
  166SOPE  H12B18630   0.218   1.660  10.975 -2.3126 -0.3798 -1.8560
  166SOPE   C1118631   0.364   1.503  11.002  0.3801 -0.1710 -0.2026
  166SOPE  H11A18632   0.445   1.559  11.053  0.0719 -1.8257  2.3051
  166SOPE  H11B18633   0.389   1.508  10.894 -0.2094 -0.6343 -0.3672
  166SOPE     P18634   0.495   1.268  11.036  0.2439 -0.5758  0.2072
  166SOPE   O1318635   0.433   1.139  10.998  0.4811 -0.1347  0.1132
  166SOPE   O1418636   0.581   1.273  11.163 -0.2784  0.3747  0.3411
  166SOPE   O1218637   0.373   1.372  11.052 -0.0923  0.0880  0.6549
  166SOPE   O1118638   0.591   1.328  10.918  0.4927  0.0100  0.4562
  166SOPE    C118639   0.548   1.323  10.783 -0.9673  0.2361  0.7877
  166SOPE    HA18640   0.442   1.352  10.766 -0.7695  0.2885 -0.5057
  166SOPE    HB18641   0.560   1.218  10.746 -3.2527  0.3337 -0.4366
  166SOPE    C218642   0.634   1.405  10.683 -0.0572  0.0850  0.2302
  166SOPE    HS18643   0.646   1.503  10.733  2.0102  0.7342 -1.3708
  166SOPE   O2118644   0.576   1.420  10.547 -0.4544 -0.0928  0.6381
  166SOPE   C2118645   0.489   1.516  10.549 -0.0212 -0.0421 -0.4507
  166SOPE   O2218646   0.454   1.586  10.645 -0.3441  0.0201 -0.5251
  166SOPE   C2218647   0.442   1.534  10.411  0.7358  0.8023 -0.1115
  166SOPE   H2R18648   0.352   1.598  10.417  0.3637  0.1697  3.1781
  166SOPE   H2S18649   0.414   1.435  10.368 -1.0696  0.7928  1.0040
  166SOPE    C318650   0.776   1.345  10.692  0.3263 -0.1385  0.3332
  166SOPE    HX18651   0.771   1.239  10.659 -0.1544 -0.2179  0.6427
  166SOPE    HY18652   0.807   1.343  10.799  2.2547 -0.8950 -0.1960
  166SOPE   O3118653   0.874   1.421  10.612  0.1892  0.3557  0.5766
  166SOPE   C3118654   0.907   1.371  10.496 -0.5660  0.5206 -0.2065
  166SOPE   O3218655   0.884   1.259  10.457  0.3076 -0.5550 -0.1159
  166SOPE   C3218656   0.986   1.485  10.420  0.9525  0.2585 -0.2027
  166SOPE   H2X18657   0.999   1.577  10.482  0.5643  0.7925 -0.8944
  166SOPE   H2Y18658   0.909   1.512  10.345  1.3498  2.0880 -0.0075
  166SOPE   C2318659   0.545   1.603  10.322  0.0369 -0.0777 -0.0248
  166SOPE   H3R18660   0.645   1.554  10.327  0.0147  0.0266  2.2706
  166SOPE   H3S18661   0.556   1.710  10.350 -0.7704 -0.7774  3.3868
  166SOPE   C2418662   0.516   1.597  10.173  0.0343  0.4609  0.0592
  166SOPE   H4R18663   0.484   1.498  10.134 -1.2016  0.7232  0.3575
  166SOPE   H4S18664   0.435   1.670  10.152 -0.6786 -0.7761 -1.7810
  166SOPE   C2518665   0.638   1.633  10.089  0.0661  0.1030  0.8102
  166SOPE   H5R18666   0.597   1.668   9.992  0.0280  0.8817  1.0992
  166SOPE   H5S18667   0.680   1.723  10.138 -0.9407 -0.8220  3.5759
  166SOPE   C2618668   0.733   1.515  10.044 -0.4142 -0.1098  0.2143
  166SOPE   H6R18669   0.784   1.497  10.141  1.6508 -0.0467 -0.8028
  166SOPE   H6S18670   0.664   1.431  10.025 -1.5762  1.0112 -0.7008
  166SOPE   C2718671   0.829   1.531   9.929  1.0289  0.3272 -0.6388
  166SOPE   H7R18672   0.784   1.552   9.829 -1.9104 -1.3482  0.2325
  166SOPE   H7S18673   0.858   1.634   9.957 -1.6478  1.4717 -1.6838
  166SOPE   C2818674   0.946   1.438   9.931 -0.4148  0.8019 -0.6890
  166SOPE   H8R18675   1.009   1.473   9.847  0.2940 -2.4374 -1.6359
  166SOPE   H8S18676   1.001   1.447  10.027 -0.7930  0.0247 -0.3855
  166SOPE   C2918677   0.907   1.294   9.907 -0.1914 -0.5146  0.2625
  166SOPE   H9118678   0.893   1.237  10.001  0.0617  0.8352  1.1342
  166SOPE  C21018679   0.894   1.227   9.792  0.1780  0.9442  0.3560
  166SOPE  H10118680   0.848   1.127   9.799  1.1400  0.2586 -2.0870
  166SOPE  C21118681   0.908   1.279   9.653  0.4073 -0.3816  0.6139
  166SOPE  H11R18682   0.929   1.388   9.660 -2.9884  0.3093  1.7086
  166SOPE  H11S18683   0.807   1.266   9.609  1.6136 -0.2466 -2.4501
  166SOPE  C21218684   1.002   1.214   9.549 -0.6573 -0.3129  0.5477
  166SOPE  H12R18685   1.099   1.189   9.596 -0.0947  0.0071 -0.4119
  166SOPE  H12S18686   1.023   1.290   9.471  2.0811 -0.1303  1.3661
  166SOPE  C21318687   0.945   1.083   9.496 -0.3313  0.2270 -0.1540
  166SOPE  H13R18688   0.835   1.091   9.479 -0.1134  0.3435 -1.6028
  166SOPE  H13S18689   0.944   0.997   9.566  0.7818 -0.0873 -0.5081
  166SOPE  C21418690   0.997   1.030   9.358 -0.0394 -0.1938 -0.3116
  166SOPE  H14R18691   0.951   0.928   9.355 -0.2956 -0.1308  1.0262
  166SOPE  H14S18692   1.104   0.999   9.366 -0.3849 -1.9574 -1.7065
  166SOPE  C21518693   0.974   1.119   9.233 -0.2442  0.9102 -0.0684
  166SOPE  H15R18694   1.036   1.210   9.247  0.1549  0.4048  1.6954
  166SOPE  H15S18695   0.865   1.138   9.243 -0.8149 -1.9259  0.2045
  166SOPE  C21618696   1.002   1.054   9.096  0.1118  0.3826  0.0483
  166SOPE  H16R18697   0.958   0.952   9.085 -1.1682  0.7631  1.4094
  166SOPE  H16S18698   1.112   1.050   9.083  0.3409  1.0082  1.5974
  166SOPE  C21718699   0.940   1.141   8.987  0.3493 -0.3204 -0.1263
  166SOPE  H17R18700   0.966   1.249   8.994 -2.8438  0.4531  2.1916
  166SOPE  H17S18701   0.830   1.137   9.003  0.3260 -0.2724 -0.2760
  166SOPE  C21818702   0.965   1.103   8.847  0.4578  0.5593  0.0687
  166SOPE  H18R18703   0.950   0.995   8.829  1.0913  0.8058 -2.2735
  166SOPE  H18S18704   1.069   1.128   8.817  0.7010 -0.0459  0.3969
  166SOPE  H18T18705   0.904   1.163   8.776  0.7768  1.0258  0.1823
  166SOPE   C3318706   1.122   1.432  10.349 -0.2161 -0.7111  0.2644
  166SOPE   H3X18707   1.095   1.377  10.256 -1.3747  0.6785 -0.2555
  166SOPE   H3Y18708   1.166   1.354  10.414 -0.6606 -2.5541 -1.5313
  166SOPE   C3418709   1.226   1.540  10.324 -0.8610 -0.6094  0.4039
  166SOPE   H4X18710   1.332   1.509  10.343  1.0399  3.0191 -2.8756
  166SOPE   H4Y18711   1.209   1.619  10.400  2.2697  1.6151 -1.0015
  166SOPE   C3518712   1.203   1.611  10.185  0.5210 -0.0438  0.4142
  166SOPE   H5X18713   1.253   1.709  10.197  0.8703 -0.1904  0.1820
  166SOPE   H5Y18714   1.097   1.619  10.154  0.8125 -0.0342 -0.6357
  166SOPE   C3618715   1.273   1.546  10.064 -0.4282 -0.2468  0.1383
  166SOPE   H6X18716   1.234   1.442  10.060  3.2512 -1.9929  2.9410
  166SOPE   H6Y18717   1.383   1.554  10.076 -0.3936 -1.2046  0.5005
  166SOPE   C3718718   1.239   1.610   9.930 -0.0371 -0.6706  0.7004
  166SOPE   H7X18719   1.295   1.706   9.925 -1.4127  0.2737  2.1167
  166SOPE   H7Y18720   1.132   1.642   9.926  0.0055 -0.6730 -1.2196
  166SOPE   C3818721   1.272   1.510   9.811 -0.0318  0.3081  0.1741
  166SOPE   H8X18722   1.223   1.412   9.828 -0.7378  0.5938 -0.1361
  166SOPE   H8Y18723   1.379   1.485   9.802  0.7056  2.9271  0.7436
  166SOPE   C3918724   1.237   1.574   9.679  0.0212 -0.4641  0.2769
  166SOPE   H9X18725   1.131   1.606   9.670 -0.3047 -1.1777  1.3223
  166SOPE   H9Y18726   1.256   1.494   9.604  1.7588 -0.6534  0.8662
  166SOPE  C31018727   1.315   1.698   9.641  0.3076  0.4039  0.5285
  166SOPE  H10X18728   1.423   1.672   9.646 -0.0097 -1.3091 -0.9354
  166SOPE  H10Y18729   1.305   1.787   9.707  1.2595 -0.4019  1.8089
  166SOPE  C31118730   1.281   1.744   9.498 -0.1386 -0.6269 -0.2629
  166SOPE  H11X18731   1.302   1.849   9.469 -0.3756 -0.7026 -0.7050
  166SOPE  H11Y18732   1.170   1.741   9.495 -0.3167  2.8381 -0.7021
  166SOPE  C31218733   1.346   1.645   9.396 -0.3841  0.3249 -0.3003
  166SOPE  H12X18734   1.324   1.538   9.419 -3.5872  0.4091 -2.3171
  166SOPE  H12Y18735   1.457   1.646   9.397 -0.3710  0.2036  1.5469
  166SOPE  C31318736   1.304   1.667   9.248 -0.3649  0.3039  0.0213
  166SOPE  H13X18737   1.333   1.767   9.209  0.1206 -0.2057 -0.9420
  166SOPE  H13Y18738   1.193   1.658   9.247 -0.3732 -0.3107  1.9851
  166SOPE  C31418739   1.372   1.565   9.157  0.0956 -0.1135  0.4256
  166SOPE  H14X18740   1.371   1.466   9.209  0.7181 -1.9064 -2.7316
  166SOPE  H14Y18741   1.482   1.579   9.151  0.1771  0.0481  1.8751
  166SOPE  C31518742   1.321   1.545   9.010  0.3879  0.0387  0.4581
  166SOPE  H15X18743   1.391   1.476   8.959 -1.1738 -1.5501  0.3868
  166SOPE  H15Y18744   1.318   1.641   8.953 -0.8171  0.2855  0.9143
  166SOPE  C31618745   1.187   1.472   9.008 -0.1006 -0.2668  0.0094
  166SOPE  H16X18746   1.114   1.524   9.074 -1.0045 -1.1803 -0.2555
  166SOPE  H16Y18747   1.211   1.374   9.054 -1.1351 -0.8740 -0.7023
  166SOPE  C31718748   1.135   1.451   8.864 -0.2726 -0.4872  0.0076
  166SOPE  H17X18749   1.121   1.551   8.818 -1.8377  0.8190  3.0552
  166SOPE  H17Y18750   1.041   1.394   8.876  0.3300 -1.5197 -0.0216
  166SOPE  C31818751   1.223   1.367   8.766 -0.4700 -0.3242 -0.3260
  166SOPE  H18X18752   1.324   1.408   8.745 -0.4081 -0.2006  0.1974
  166SOPE  H18Y18753   1.169   1.343   8.672 -0.3033  1.0274 -0.7847
  166SOPE  H18Z18754   1.243   1.270   8.815  0.5618 -1.3141 -2.5896
  167SOPE     N18755   2.312   5.208   5.885  0.3669 -0.0963 -0.9273
  167SOPE   HN118756   2.220   5.168   5.911  1.3589 -1.2482  1.0813
  167SOPE   HN218757   2.361   5.243   5.970  3.0307  0.7138 -2.6740
  167SOPE   HN318758   2.301   5.292   5.824  1.5328  0.2853 -0.6412
  167SOPE   C1218759   2.379   5.099   5.806  0.1371 -0.0194 -0.1391
  167SOPE  H12A18760   2.333   5.093   5.705  0.8414  0.0678 -0.4701
  167SOPE  H12B18761   2.373   5.006   5.867 -0.9749 -1.2711 -2.0692
  167SOPE   C1118762   2.527   5.138   5.787 -0.2405  0.3740  0.3530
  167SOPE  H11A18763   2.528   5.226   5.719 -1.3995  0.4126  0.3676
  167SOPE  H11B18764   2.584   5.063   5.728 -0.3056  2.0559 -2.0190
  167SOPE     P18765   2.642   5.087   6.028 -0.1890  0.3738  0.0431
  167SOPE   O1318766   2.708   5.174   6.125  0.1844 -0.1222  0.4372
  167SOPE   O1418767   2.721   4.984   5.967 -0.0439  0.0065  0.0600
  167SOPE   O1218768   2.596   5.175   5.910 -0.0981  0.6016  0.0788
  167SOPE   O1118769   2.508   5.031   6.091 -0.3833  0.3460 -0.1333
  167SOPE    C118770   2.456   5.087   6.214  0.5210 -0.6104 -0.1347
  167SOPE    HA18771   2.347   5.065   6.215 -0.0229  1.8506 -0.0796
  167SOPE    HB18772   2.483   5.192   6.236 -0.5395 -0.6320  1.3773
  167SOPE    C218773   2.513   5.022   6.347 -0.4148 -0.5685  0.5778
  167SOPE    HS18774   2.621   5.005   6.331 -0.2987  1.7022 -1.7242
  167SOPE   O2118775   2.429   4.905   6.373  0.4271 -0.5146  0.0103
  167SOPE   C2118776   2.484   4.787   6.394 -0.2797 -0.0612 -0.6864
  167SOPE   O2218777   2.604   4.769   6.394  0.1007 -0.2639 -0.1247
  167SOPE   C2218778   2.372   4.686   6.425  0.2197 -0.3767  0.8149
  167SOPE   H2R18779   2.424   4.590   6.407  0.9471  0.5008 -2.4028
  167SOPE   H2S18780   2.296   4.705   6.347 -0.3097  1.2902  1.6728
  167SOPE    C318781   2.490   5.124   6.462  1.3583  0.6368  0.4690
  167SOPE    HX18782   2.380   5.122   6.477  0.9265 -0.9107 -2.2491
  167SOPE    HY18783   2.520   5.225   6.426  0.2983  1.6601  2.3247
  167SOPE   O3118784   2.583   5.092   6.570 -0.3545  0.6799 -0.2048
  167SOPE   C3118785   2.526   5.025   6.668  0.3810 -0.1102  0.7226
  167SOPE   O3218786   2.409   4.992   6.672  0.1884 -0.3945  0.8589
  167SOPE   C3218787   2.636   4.988   6.781 -0.4732 -0.3128  0.2105
  167SOPE   H2X18788   2.732   5.039   6.755 -1.6772  2.6767  1.1758
  167SOPE   H2Y18789   2.647   4.878   6.784  2.6973 -0.1904  5.0097
  167SOPE   C2318790   2.314   4.704   6.576 -1.1444  0.0825  0.9430
  167SOPE   H3R18791   2.231   4.630   6.582 -0.1853 -1.2539 -1.0249
  167SOPE   H3S18792   2.271   4.807   6.575 -0.1851  0.5388 -1.6182
  167SOPE   C2418793   2.420   4.682   6.684 -0.1202 -0.1086  0.9827
  167SOPE   H4R18794   2.510   4.746   6.675  1.1792 -1.7654  1.6506
  167SOPE   H4S18795   2.377   4.703   6.784 -2.3878  0.3440 -0.0099
  167SOPE   C2518796   2.483   4.539   6.684  0.5563  0.0600 -0.0834
  167SOPE   H5R18797   2.412   4.458   6.710  1.6375 -1.1281 -0.7040
  167SOPE   H5S18798   2.529   4.516   6.585 -0.0991 -1.8459  0.0080
  167SOPE   C2618799   2.592   4.528   6.793  0.3926  0.0198 -0.1314
  167SOPE   H6R18800   2.670   4.605   6.776 -0.3102  0.4463 -1.5747
  167SOPE   H6S18801   2.541   4.558   6.887  0.4600  1.9704 -0.6755
  167SOPE   C2718802   2.654   4.391   6.801 -0.3033 -0.2584 -0.8332
  167SOPE   H7R18803   2.575   4.322   6.838 -0.8978  1.0377  0.4475
  167SOPE   H7S18804   2.705   4.358   6.708  2.5078 -1.1197  0.8858
  167SOPE   C2818805   2.768   4.374   6.903 -0.2532 -0.7762  0.1800
  167SOPE   H8R18806   2.849   4.439   6.865 -1.5878  1.5654  1.1400
  167SOPE   H8S18807   2.742   4.438   6.989  2.8697  0.6470  0.1890
  167SOPE   C2918808   2.819   4.236   6.932 -0.3142  0.4317 -0.1749
  167SOPE   H9118809   2.879   4.183   6.855 -0.8607 -2.4865  1.2736
  167SOPE  C21018810   2.783   4.168   7.044  0.3492  0.2916 -0.3128
  167SOPE  H10118811   2.807   4.061   7.044 -0.3553  0.1326  0.2161
  167SOPE  C21118812   2.688   4.221   7.150 -0.0814 -0.6247 -0.0927
  167SOPE  H11R18813   2.621   4.142   7.189 -0.5210 -1.6514 -2.7337
  167SOPE  H11S18814   2.613   4.290   7.104  0.6980  0.2373 -0.1194
  167SOPE  C21218815   2.760   4.308   7.258  0.2239 -0.1039 -0.0962
  167SOPE  H12R18816   2.686   4.371   7.312  0.3781 -0.2389  0.2810
  167SOPE  H12S18817   2.836   4.373   7.211 -0.8113  1.1444 -0.1201
  167SOPE  C21318818   2.823   4.219   7.363 -0.5285  0.1096  0.1590
  167SOPE  H13R18819   2.901   4.162   7.309 -0.2845  0.9063 -0.3469
  167SOPE  H13S18820   2.752   4.142   7.400  0.4840 -0.0871  1.7783
  167SOPE  C21418821   2.879   4.298   7.488 -0.0424 -0.2444 -0.0038
  167SOPE  H14R18822   2.811   4.384   7.506 -1.3076 -1.4765  1.3898
  167SOPE  H14S18823   2.974   4.349   7.462 -0.3781 -0.7910 -2.5949
  167SOPE  C21518824   2.881   4.215   7.620  0.3598 -0.0634 -0.2726
  167SOPE  H15R18825   2.940   4.121   7.617  0.1459 -0.3521  2.1212
  167SOPE  H15S18826   2.777   4.184   7.641  0.9837 -2.0859  0.0812
  167SOPE  C21618827   2.931   4.307   7.732  0.3376 -0.5749  0.0963
  167SOPE  H16R18828   2.933   4.265   7.835  1.7096  2.3319  1.3603
  167SOPE  H16S18829   2.873   4.400   7.748 -1.0639 -1.5351  0.8247
  167SOPE  C21718830   3.069   4.366   7.720  0.8118 -0.4668 -0.0222
  167SOPE  H17R18831   3.075   4.430   7.629  0.8231  0.0560  0.3460
  167SOPE  H17S18832   3.141   4.282   7.707  1.5468  0.1674 -0.0810
  167SOPE  C21818833   3.111   4.452   7.836 -0.5832 -0.6642 -1.0050
  167SOPE  H18R18834   3.100   4.402   7.935  2.4500  0.5426  0.0737
  167SOPE  H18S18835   3.071   4.555   7.844 -0.6590 -0.7302 -0.5170
  167SOPE  H18T18836   3.221   4.463   7.825 -0.7347  0.0995 -1.8296
  167SOPE   C3318837   2.586   5.022   6.918 -0.0433  0.0968  0.0108
  167SOPE   H3X18838   2.488   4.974   6.938  0.6598 -2.0134 -1.3206
  167SOPE   H3Y18839   2.578   5.133   6.918 -0.8444  0.0631 -1.2312
  167SOPE   C3418840   2.675   4.967   7.035  0.1511  0.1556  0.2503
  167SOPE   H4X18841   2.780   4.994   7.010 -0.5769  1.7763 -1.3932
  167SOPE   H4Y18842   2.674   4.856   7.034  0.4022  0.1496  0.6784
  167SOPE   C3518843   2.635   5.015   7.177 -0.1544 -0.3252 -0.5594
  167SOPE   H5X18844   2.622   5.125   7.181  1.5104 -0.1649  1.9349
  167SOPE   H5Y18845   2.713   4.991   7.252 -0.6755  0.9542  0.4308
  167SOPE   C3618846   2.502   4.956   7.239 -0.0988 -0.2898  0.8199
  167SOPE   H6X18847   2.501   4.850   7.207 -0.5982  0.4705 -1.9057
  167SOPE   H6Y18848   2.411   4.998   7.191 -0.2980 -1.1630  0.4035
  167SOPE   C3718849   2.482   4.958   7.393  0.6676  0.3295  0.4688
  167SOPE   H7X18850   2.569   4.906   7.438  0.1422  0.1706  1.3291
  167SOPE   H7Y18851   2.384   4.912   7.420  0.9425 -0.7809 -0.3579
  167SOPE   C3818852   2.483   5.106   7.438  0.1068  0.0091 -0.0636
  167SOPE   H8X18853   2.390   5.165   7.419 -0.0755  0.7361  2.6154
  167SOPE   H8Y18854   2.555   5.161   7.374  1.0963  0.9975  1.7868
  167SOPE   C3918855   2.522   5.127   7.583  0.8175 -0.2389 -0.5468
  167SOPE   H9X18856   2.616   5.069   7.599  0.4738 -0.3479  1.2883
  167SOPE   H9Y18857   2.436   5.079   7.633 -0.5869  0.0795 -2.5527
  167SOPE  C31018858   2.534   5.274   7.626  0.1958 -0.4569  0.1044
  167SOPE  H10X18859   2.445   5.329   7.589  0.8305  2.2888  2.2943
  167SOPE  H10Y18860   2.618   5.337   7.590 -0.8886  0.4834 -0.8444
  167SOPE  C31118861   2.534   5.295   7.774 -0.2727  1.2846 -0.1882
  167SOPE  H11X18862   2.626   5.250   7.818 -0.4282  0.7603 -0.3917
  167SOPE  H11Y18863   2.451   5.237   7.820 -2.0098  1.4392 -2.9199
  167SOPE  C31218864   2.523   5.439   7.819 -0.2933  0.5475 -0.3237
  167SOPE  H12X18865   2.435   5.476   7.762 -1.5404 -0.0442  1.1476
  167SOPE  H12Y18866   2.617   5.497   7.808  0.1072  0.1854  0.9951
  167SOPE  C31318867   2.493   5.447   7.971  0.7183 -0.8508  0.8379
  167SOPE  H13X18868   2.393   5.401   7.988 -0.3489  1.1488  0.2266
  167SOPE  H13Y18869   2.472   5.552   7.998 -0.5399 -0.8807  0.0763
  167SOPE  C31418870   2.592   5.393   8.065 -0.0308  0.3136 -0.3236
  167SOPE  H14X18871   2.675   5.467   8.069 -1.1344  1.6429 -1.0256
  167SOPE  H14Y18872   2.630   5.297   8.025  0.7512  0.5699 -0.2130
  167SOPE  C31518873   2.549   5.388   8.212 -0.2932  0.4026 -0.6402
  167SOPE  H15X18874   2.479   5.472   8.228 -2.3413 -1.4630  0.8319
  167SOPE  H15Y18875   2.633   5.402   8.283 -0.0743  1.2079 -1.0530
  167SOPE  C31618876   2.482   5.254   8.244 -0.5243 -0.0775 -0.6708
  167SOPE  H16X18877   2.556   5.172   8.239  0.9972  1.1990  0.0726
  167SOPE  H16Y18878   2.393   5.238   8.179 -2.5104  3.0177  0.9758
  167SOPE  C31718879   2.420   5.263   8.386  0.5381 -0.3470 -0.3635
  167SOPE  H17X18880   2.364   5.359   8.383  0.7857 -0.0992  1.5684
  167SOPE  H17Y18881   2.499   5.285   8.461 -1.7379  0.3833  1.9817
  167SOPE  C31818882   2.329   5.143   8.434  0.6622 -0.1156 -0.7194
  167SOPE  H18X18883   2.388   5.052   8.458 -0.8520  0.1164  5.5878
  167SOPE  H18Y18884   2.258   5.121   8.351 -3.1756  1.3328  1.9132
  167SOPE  H18Z18885   2.277   5.155   8.531  1.4831  0.2844 -0.3156
  168SOPE     N18886   2.769   1.934   6.275  0.0438 -0.1964  0.1107
  168SOPE   HN118887   2.846   1.967   6.337  1.1348  1.1640 -1.8507
  168SOPE   HN218888   2.746   1.835   6.299 -1.6379  0.6084  2.2301
  168SOPE   HN318889   2.806   1.955   6.181 -0.8462  1.7163  0.1225
  168SOPE   C1218890   2.652   2.030   6.282  1.0799  0.4212 -0.0629
  168SOPE  H12A18891   2.653   2.091   6.189 -0.5593  1.3559  0.4961
  168SOPE  H12B18892   2.658   2.079   6.382 -0.1321  0.1244  0.1647
  168SOPE   C1118893   2.523   1.953   6.295 -0.1081  0.1483 -0.7365
  168SOPE  H11A18894   2.457   2.025   6.347 -1.1866 -2.1100  1.2227
  168SOPE  H11B18895   2.529   1.871   6.370  0.8337  0.6533 -0.2311
  168SOPE     P18896   2.326   1.883   6.139  0.2859  0.1295  0.2383
  168SOPE   O1318897   2.321   1.784   6.031 -0.0346 -0.1097  0.1691
  168SOPE   O1418898   2.267   2.017   6.109 -0.1364  0.2972  0.5474
  168SOPE   O1218899   2.478   1.915   6.162 -0.5642 -0.3532  0.1225
  168SOPE   O1118900   2.273   1.820   6.272 -0.0470 -0.6427  0.1577
  168SOPE    C118901   2.155   1.856   6.335  0.0957  0.5402  0.3772
  168SOPE    HA18902   2.084   1.771   6.344 -0.4794  0.5359 -2.7808
  168SOPE    HB18903   2.096   1.914   6.260 -0.7266 -0.5121  0.1949
  168SOPE    C218904   2.174   1.944   6.458 -0.3590  0.3531 -0.1268
  168SOPE    HS18905   2.248   2.020   6.425  0.1556 -0.2565 -0.3924
  168SOPE   O2118906   2.232   1.860   6.562 -0.9793  0.2802  0.2187
  168SOPE   C2118907   2.305   1.917   6.659  0.2736  0.2189  0.3440
  168SOPE   O2218908   2.332   2.035   6.664 -0.2920  1.1238  0.1388
  168SOPE   C2218909   2.292   1.820   6.780  0.3783 -0.2650  0.4468
  168SOPE   H2R18910   2.279   1.711   6.766 -0.7252 -0.1049  0.1275
  168SOPE   H2S18911   2.207   1.861   6.840  1.5422  1.0118  1.2760
  168SOPE    C318912   2.030   2.007   6.499 -0.5313 -0.0926 -0.8140
  168SOPE    HX18913   1.960   1.920   6.497  2.1592 -2.3894 -1.3414
  168SOPE    HY18914   2.001   2.065   6.409 -0.7369 -1.9068 -1.9583
  168SOPE   O3118915   2.033   2.065   6.626 -0.5106  0.3340 -0.4202
  168SOPE   C3118916   2.084   2.189   6.629 -0.2899 -0.0654  0.1173
  168SOPE   O3218917   2.115   2.250   6.532  0.2104 -0.0703  0.1236
  168SOPE   C3218918   2.106   2.240   6.765  0.5007 -0.4293  0.5240
  168SOPE   H2X18919   2.210   2.277   6.778 -0.1525  1.3020  1.1014
  168SOPE   H2Y18920   2.085   2.158   6.836 -0.7219  0.4057  1.1726
  168SOPE   C2318921   2.416   1.842   6.868  0.5000 -0.3806  1.2102
  168SOPE   H3R18922   2.432   1.948   6.897 -1.3581  0.3498 -0.2083
  168SOPE   H3S18923   2.507   1.812   6.811 -1.3128 -0.2774 -1.9422
  168SOPE   C2418924   2.424   1.747   6.990  0.3893  0.2143 -0.1657
  168SOPE   H4R18925   2.337   1.680   6.973 -0.9645  1.6219  0.9857
  168SOPE   H4S18926   2.513   1.682   6.978  1.6601  1.9097 -0.3180
  168SOPE   C2518927   2.406   1.822   7.121  0.1618 -0.7124 -0.0849
  168SOPE   H5R18928   2.484   1.899   7.141 -3.3220  2.8466  1.2352
  168SOPE   H5S18929   2.310   1.878   7.114  0.6499  0.5574  2.3137
  168SOPE   C2618930   2.393   1.719   7.233 -0.6375  0.0111 -0.6118
  168SOPE   H6R18931   2.296   1.667   7.240 -0.8164  0.4870  0.9244
  168SOPE   H6S18932   2.476   1.645   7.224  1.2256  1.6895  1.5397
  168SOPE   C2718933   2.420   1.801   7.368  0.5096 -0.3061  0.1080
  168SOPE   H7R18934   2.514   1.860   7.361 -0.0305  0.5269 -0.1320
  168SOPE   H7S18935   2.342   1.878   7.384 -0.3274 -0.7472 -1.5987
  168SOPE   C2818936   2.431   1.693   7.478  0.3620  0.1080 -0.1940
  168SOPE   H8R18937   2.330   1.648   7.486  0.4271 -0.4012 -1.8650
  168SOPE   H8S18938   2.484   1.610   7.427  0.9378  0.1718  0.2892
  168SOPE   C2918939   2.499   1.735   7.605  0.0829 -0.6019 -0.7083
  168SOPE   H9118940   2.596   1.685   7.619 -0.5717 -2.0881 -1.2810
  168SOPE  C21018941   2.437   1.812   7.694 -0.2138  0.7949 -0.4377
  168SOPE  H10118942   2.487   1.826   7.791 -0.3697  0.2119 -0.2679
  168SOPE  C21118943   2.296   1.875   7.682 -0.4625 -0.3065 -0.4447
  168SOPE  H11R18944   2.235   1.861   7.773 -0.3006 -2.6614 -0.6320
  168SOPE  H11S18945   2.234   1.838   7.597 -0.5136  2.0245 -1.5112
  168SOPE  C21218946   2.307   2.020   7.628  0.2288 -0.3181 -0.3515
  168SOPE  H12R18947   2.200   2.044   7.612  1.1476  2.8618 -3.1102
  168SOPE  H12S18948   2.366   2.012   7.534  2.5069  0.1114  0.9693
  168SOPE  C21318949   2.359   2.113   7.741  0.0096 -0.1540  0.1602
  168SOPE  H13R18950   2.455   2.076   7.783  0.4492  1.1873  0.4040
  168SOPE  H13S18951   2.292   2.106   7.830  1.3601 -0.4615  1.1865
  168SOPE  C21418952   2.365   2.265   7.700 -0.1205 -0.0064 -0.6945
  168SOPE  H14R18953   2.270   2.297   7.653 -0.3144 -1.4597 -1.3577
  168SOPE  H14S18954   2.434   2.275   7.614 -0.8906  1.2612 -1.1850
  168SOPE  C21518955   2.407   2.356   7.811  0.4729 -0.0347 -0.2895
  168SOPE  H15R18956   2.496   2.318   7.866 -0.4411 -1.2937  0.3847
  168SOPE  H15S18957   2.326   2.342   7.885 -1.1377  0.2196 -1.9405
  168SOPE  C21618958   2.420   2.501   7.764  0.0575 -0.2200  0.5522
  168SOPE  H16R18959   2.324   2.543   7.727 -0.2819 -0.9817  0.5545
  168SOPE  H16S18960   2.488   2.491   7.677  0.7264  0.3183  1.0075
  168SOPE  C21718961   2.494   2.603   7.862  0.3201  0.1796  0.1189
  168SOPE  H17R18962   2.422   2.625   7.944 -0.5447 -1.4815 -0.1375
  168SOPE  H17S18963   2.506   2.702   7.814 -3.5759  0.5240 -0.4444
  168SOPE  C21818964   2.617   2.550   7.920 -0.9934 -0.5734 -0.2829
  168SOPE  H18R18965   2.673   2.617   7.988 -1.1867  0.4205 -1.0825
  168SOPE  H18S18966   2.691   2.532   7.839 -0.1521  1.8887 -0.1542
  168SOPE  H18T18967   2.607   2.448   7.963 -0.9647 -0.4544  0.0077
  168SOPE   C3318968   2.002   2.355   6.803 -0.0495  0.0325  0.8422
  168SOPE   H3X18969   2.033   2.438   6.736  0.3623  0.4888  1.5852
  168SOPE   H3Y18970   2.023   2.399   6.903 -1.4969  1.4050  0.5927
  168SOPE   C3418971   1.849   2.325   6.795 -0.3893 -0.5222  0.5692
  168SOPE   H4X18972   1.842   2.221   6.833  0.7596 -0.6409  0.5005
  168SOPE   H4Y18973   1.815   2.324   6.689  1.5820 -0.2120 -0.1144
  168SOPE   C3518974   1.762   2.421   6.884  0.4838  0.0545 -0.1525
  168SOPE   H5X18975   1.772   2.527   6.849  0.2867  0.0187 -0.3223
  168SOPE   H5Y18976   1.811   2.431   6.983  0.2905  0.4915 -0.0945
  168SOPE   C3618977   1.618   2.382   6.898 -0.0327 -0.2652  0.5954
  168SOPE   H6X18978   1.572   2.374   6.797 -0.7243 -0.8961  0.9515
  168SOPE   H6Y18979   1.569   2.468   6.949 -2.4616 -1.1300 -0.1338
  168SOPE   C3718980   1.585   2.250   6.973  0.6078 -0.1113 -0.0664
  168SOPE   H7X18981   1.616   2.157   6.920 -0.9397 -1.2201  0.8861
  168SOPE   H7Y18982   1.474   2.243   6.978  0.5952 -1.5489 -1.3774
  168SOPE   C3818983   1.648   2.247   7.109 -0.5251 -0.7875  0.1775
  168SOPE   H8X18984   1.654   2.351   7.148 -2.3741 -0.0514 -1.3214
  168SOPE   H8Y18985   1.755   2.226   7.088 -0.6028  0.8181 -2.2940
  168SOPE   C3918986   1.572   2.159   7.201 -0.3724 -0.0141 -0.1718
  168SOPE   H9X18987   1.595   2.053   7.175 -1.3348 -1.0451  2.7467
  168SOPE   H9Y18988   1.462   2.157   7.182 -0.2566  0.0083 -0.8507
  168SOPE  C31018989   1.586   2.191   7.351 -0.1873 -0.2722 -0.0752
  168SOPE  H10X18990   1.567   2.300   7.363 -0.3549 -0.2179 -0.8080
  168SOPE  H10Y18991   1.690   2.186   7.389 -0.6895  4.1375  2.6357
  168SOPE  C31118992   1.485   2.110   7.428  0.4400  0.2086  0.3091
  168SOPE  H11X18993   1.505   2.002   7.409  0.9621  0.2998  0.3300
  168SOPE  H11Y18994   1.383   2.120   7.385  0.1503 -2.6040  0.1182
  168SOPE  C31218995   1.496   2.148   7.579 -0.0692  0.2334 -0.0257
  168SOPE  H12X18996   1.485   2.259   7.580  1.5530  0.4139  1.0501
  168SOPE  H12Y18997   1.598   2.118   7.610 -1.4383 -2.0991  2.6557
  168SOPE  C31318998   1.393   2.084   7.665  0.5598 -0.5907 -0.2714
  168SOPE  H13X18999   1.422   1.977   7.668  2.9785 -0.0129 -0.8820
  168SOPE  H13Y19000   1.296   2.118   7.624  0.4288  0.6245  0.9860
  168SOPE  C31419001   1.402   2.131   7.811 -0.4339  0.1615  0.2480
  168SOPE  H14X19002   1.321   2.069   7.855  0.6738 -0.3199  1.6979
  168SOPE  H14Y19003   1.380   2.239   7.821  0.8992  0.5082 -0.2326
  168SOPE  C31519004   1.537   2.101   7.870  0.4225 -0.4579  0.2451
  168SOPE  H15X19005   1.620   2.154   7.819 -0.1611 -0.3914 -0.6555
  168SOPE  H15Y19006   1.551   1.992   7.856  0.2160 -0.3706 -0.6742
  168SOPE  C31619007   1.545   2.175   8.003  0.3125  0.1242 -0.4940
  168SOPE  H16X19008   1.545   2.281   7.972  2.2288  0.3374  0.0946
  168SOPE  H16Y19009   1.646   2.172   8.048  0.5231 -3.7351 -0.8984
  168SOPE  C31719010   1.434   2.132   8.102  0.1989  0.0669 -0.4778
  168SOPE  H17X19011   1.440   2.023   8.123  0.3893  0.2764  0.6196
  168SOPE  H17Y19012   1.333   2.148   8.058 -0.5926 -2.7708  0.1468
  168SOPE  C31819013   1.449   2.202   8.233 -0.1574 -0.1280  0.0274
  168SOPE  H18X19014   1.447   2.313   8.220  0.6711 -0.1069 -0.0127
  168SOPE  H18Y19015   1.536   2.182   8.300 -0.5002  0.2036  0.5848
  168SOPE  H18Z19016   1.362   2.179   8.298 -0.8532 -0.2793 -0.9432
  169SOPE     N19017   2.813   4.740   5.912 -0.0245 -0.2370 -0.2329
  169SOPE   HN119018   2.800   4.839   5.940  0.9535  0.4022 -1.8663
  169SOPE   HN219019   2.726   4.704   5.868  0.2355 -1.0585 -0.0914
  169SOPE   HN319020   2.827   4.688   6.001  1.2584  0.2768 -0.1071
  169SOPE   C1219021   2.928   4.715   5.823  0.7083  0.3478  0.5584
  169SOPE  H12A19022   2.906   4.744   5.718 -0.1888 -1.0854  0.3323
  169SOPE  H12B19023   2.940   4.605   5.825  2.2376  0.4901  1.6298
  169SOPE   C1119024   3.055   4.787   5.860  0.0965 -0.0250 -0.2077
  169SOPE  H11A19025   3.128   4.765   5.779  0.2951 -0.3678  0.0612
  169SOPE  H11B19026   3.088   4.738   5.954  4.0415 -0.2126 -1.4919
  169SOPE     P19027   3.172   5.007   5.931 -0.0674 -0.3684 -0.4232
  169SOPE   O1319028   3.129   5.150   5.933  0.2114 -0.1280 -0.2999
  169SOPE   O1419029   3.293   4.968   5.863  0.0652  0.3442 -0.0050
  169SOPE   O1219030   3.038   4.927   5.887  0.8125  0.0099 -0.3242
  169SOPE   O1119031   3.190   4.966   6.083  0.0302  0.5353 -0.3894
  169SOPE    C119032   3.079   4.939   6.171 -0.4470 -0.5570  0.2151
  169SOPE    HA19033   3.104   4.849   6.230  1.1878 -0.6685 -0.5811
  169SOPE    HB19034   2.982   4.925   6.119  0.0704 -0.5462 -0.7754
  169SOPE    C219035   3.057   5.058   6.269  0.5056  0.2697 -0.2734
  169SOPE    HS19036   3.036   5.146   6.205 -0.2910 -0.1016 -0.5276
  169SOPE   O2119037   3.172   5.072   6.356  0.0006 -0.5801  0.0174
  169SOPE   C2119038   3.166   5.193   6.411  0.5003 -1.1499 -0.0814
  169SOPE   O2219039   3.073   5.274   6.393 -0.4859 -0.2006  0.1200
  169SOPE   C2219040   3.279   5.205   6.513 -0.0566 -0.2068  0.0623
  169SOPE   H2R19041   3.358   5.245   6.446  0.7335  2.0879  2.2215
  169SOPE   H2S19042   3.307   5.105   6.552 -0.9983 -1.0455 -1.2870
  169SOPE    C319043   2.922   5.034   6.348  0.0368  0.0943 -0.0233
  169SOPE    HX19044   2.849   5.041   6.264  0.0711  2.2703  0.0638
  169SOPE    HY19045   2.896   5.120   6.414  0.5787  0.5856 -0.4396
  169SOPE   O3119046   2.918   4.905   6.413  0.1682 -0.7626  0.6859
  169SOPE   C3119047   2.942   4.911   6.539 -0.2304  0.0498 -0.5689
  169SOPE   O3219048   2.937   5.011   6.605 -0.3902  0.1284  0.2020
  169SOPE   C3219049   2.957   4.767   6.597 -0.8033 -0.3908  0.7214
  169SOPE   H2X19050   2.876   4.696   6.569 -0.0895 -0.3139 -1.8033
  169SOPE   H2Y19051   2.948   4.782   6.707  1.0370 -0.2833  0.8956
  169SOPE   C2319052   3.282   5.308   6.620  0.0693 -0.0526  0.3470
  169SOPE   H3R19053   3.242   5.401   6.573  1.2023 -0.6799 -1.9974
  169SOPE   H3S19054   3.387   5.330   6.650  0.5508 -0.6400 -0.8356
  169SOPE   C2419055   3.189   5.266   6.741 -0.8858  0.2620 -0.2544
  169SOPE   H4R19056   3.085   5.279   6.703 -0.3325  0.0591 -1.9356
  169SOPE   H4S19057   3.214   5.159   6.758 -0.5575  0.6370  1.9142
  169SOPE   C2519058   3.204   5.357   6.861 -0.1233 -0.2186  0.0917
  169SOPE   H5R19059   3.301   5.331   6.910  1.0216  0.0953 -1.8894
  169SOPE   H5S19060   3.187   5.460   6.825 -1.2010 -0.8472 -1.3255
  169SOPE   C2619061   3.096   5.324   6.973  0.2703 -0.9315  0.6729
  169SOPE   H6R19062   3.112   5.393   7.058  0.5679  0.7158 -0.6610
  169SOPE   H6S19063   2.999   5.364   6.935  0.5111  3.5969  3.9991
  169SOPE   C2719064   3.093   5.181   7.026  0.5260  0.4606  0.2164
  169SOPE   H7R19065   3.039   5.115   6.955  0.2244  0.0684  0.8084
  169SOPE   H7S19066   3.198   5.147   7.032  0.8870  1.7160  1.5967
  169SOPE   C2819067   3.033   5.171   7.171  0.2892 -0.0042 -0.7660
  169SOPE   H8R19068   2.942   5.235   7.170  0.1989 -0.1257 -1.8349
  169SOPE   H8S19069   2.976   5.076   7.175  0.8776 -0.3417 -0.3881
  169SOPE   C2919070   3.127   5.191   7.287  0.3819  0.6606 -0.0604
  169SOPE   H9119071   3.210   5.119   7.279 -1.2575 -1.4273  0.9040
  169SOPE  C21019072   3.139   5.289   7.375  0.1295  0.7575 -0.5072
  169SOPE  H10119073   3.210   5.272   7.458 -0.9581 -1.5232  0.0358
  169SOPE  C21119074   3.033   5.386   7.395  0.0312  0.3910 -0.1439
  169SOPE  H11R19075   3.007   5.438   7.300 -0.7337 -0.2681 -0.3106
  169SOPE  H11S19076   3.073   5.478   7.442 -0.9406  1.1326 -0.7101
  169SOPE  C21219077   2.904   5.334   7.457  0.3668 -0.7851 -0.4527
  169SOPE  H12R19078   2.862   5.254   7.394  0.6722  0.1168 -1.8350
  169SOPE  H12S19079   2.829   5.416   7.465 -0.1462 -1.1132 -1.6870
  169SOPE  C21319080   2.936   5.281   7.602 -0.1733 -0.3274  0.0271
  169SOPE  H13R19081   3.014   5.202   7.596  0.0854 -0.0077 -0.9740
  169SOPE  H13S19082   2.842   5.234   7.638 -2.3714  1.7276 -2.5713
  169SOPE  C21419083   2.976   5.386   7.704  0.0293 -0.1937 -0.0854
  169SOPE  H14R19084   2.894   5.462   7.702 -1.9606 -2.1451  1.6577
  169SOPE  H14S19085   3.068   5.447   7.691 -0.4048  0.3449 -0.6788
  169SOPE  C21519086   2.965   5.325   7.846  0.3715 -0.1375  0.1551
  169SOPE  H15R19087   3.027   5.232   7.849 -0.7793 -1.1297 -2.7427
  169SOPE  H15S19088   2.857   5.302   7.854  0.4927 -1.1564 -0.8077
  169SOPE  C21619089   3.000   5.425   7.954  0.0374 -0.0244  0.2662
  169SOPE  H16R19090   2.938   5.516   7.938  1.0320  0.9776  1.8378
  169SOPE  H16S19091   3.105   5.461   7.961  0.7159 -1.9935  1.0152
  169SOPE  C21719092   2.978   5.371   8.094 -0.1847 -0.1367  0.8692
  169SOPE  H17R19093   3.025   5.271   8.093 -1.5104 -0.7807  0.9969
  169SOPE  H17S19094   2.870   5.353   8.117 -1.0830  1.8098 -1.3973
  169SOPE  C21819095   3.047   5.448   8.206  0.3296  0.2752  0.0254
  169SOPE  H18R19096   3.052   5.393   8.302  1.1365 -0.7856 -0.5957
  169SOPE  H18S19097   2.994   5.543   8.229 -0.3549  0.7209 -2.9771
  169SOPE  H18T19098   3.154   5.466   8.179  0.2110 -1.0435 -1.4698
  169SOPE   C3319099   3.088   4.697   6.583  0.5919  0.0513  0.1304
  169SOPE   H3X19100   3.092   4.650   6.483 -1.3409  0.1100 -0.0128
  169SOPE   H3Y19101   3.096   4.610   6.652 -1.5622 -0.4754 -0.1953
  169SOPE   C3419102   3.215   4.777   6.614 -0.4648  1.2941  0.1561
  169SOPE   H4X19103   3.227   4.855   6.535  1.5962 -0.4056 -1.3346
  169SOPE   H4Y19104   3.295   4.700   6.606 -0.3032  1.6050 -1.8065
  169SOPE   C3519105   3.220   4.850   6.754  0.6194  0.9372 -0.3201
  169SOPE   H5X19106   3.148   4.932   6.739  0.6569  1.1680  0.6480
  169SOPE   H5Y19107   3.325   4.884   6.769  1.6527 -0.9525 -2.5981
  169SOPE   C3619108   3.172   4.749   6.860  0.2887  0.3255  0.0236
  169SOPE   H6X19109   3.260   4.691   6.892  0.7872  0.4870 -1.0124
  169SOPE   H6Y19110   3.090   4.678   6.837 -0.3532  0.7102  1.0254
  169SOPE   C3719111   3.110   4.813   6.978 -0.0069 -0.2134  0.0871
  169SOPE   H7X19112   3.010   4.858   6.961 -0.1538 -0.8622 -0.8653
  169SOPE   H7Y19113   3.170   4.895   7.024 -1.5100  0.4380  0.9378
  169SOPE   C3819114   3.077   4.720   7.096 -0.7558  0.4983 -0.1891
  169SOPE   H8X19115   3.001   4.644   7.069  0.1761 -1.1126  1.4620
  169SOPE   H8Y19116   3.169   4.666   7.127 -1.0589 -1.3759 -2.2688
  169SOPE   C3919117   3.018   4.808   7.213 -0.4907  0.3592  1.0771
  169SOPE   H9X19118   2.920   4.852   7.184  0.3413  0.1174 -2.6848
  169SOPE   H9Y19119   3.087   4.892   7.237 -0.3439  1.0263 -1.3798
  169SOPE  C31019120   2.990   4.730   7.340  0.2562 -0.2217  0.2470
  169SOPE  H10X19121   3.088   4.696   7.379  0.6459 -1.6714 -1.8027
  169SOPE  H10Y19122   2.934   4.637   7.319 -2.3520  1.2606  0.2351
  169SOPE  C31119123   2.899   4.806   7.436  0.0278  0.5795 -0.0823
  169SOPE  H11X19124   2.802   4.830   7.388  0.2851 -1.0082 -1.4972
  169SOPE  H11Y19125   2.945   4.899   7.475 -1.7438  1.4667  0.0014
  169SOPE  C31219126   2.868   4.737   7.573 -0.3028 -0.3719  0.4249
  169SOPE  H12X19127   2.965   4.714   7.622  0.8689  1.1691 -1.0184
  169SOPE  H12Y19128   2.805   4.648   7.554 -3.4100  1.6831  0.4411
  169SOPE  C31319129   2.788   4.827   7.673  0.5822 -0.1795  0.0324
  169SOPE  H13X19130   2.698   4.870   7.624  0.8707 -1.2093 -1.4748
  169SOPE  H13Y19131   2.842   4.915   7.713 -1.2691  1.4696 -0.8948
  169SOPE  C31419132   2.750   4.747   7.793 -0.4432  0.6819  0.6724
  169SOPE  H14X19133   2.832   4.677   7.819 -0.1153  0.3929 -1.0253
  169SOPE  H14Y19134   2.666   4.684   7.756  0.7161 -0.3971 -0.1812
  169SOPE  C31519135   2.701   4.824   7.918 -0.0833  0.5684  0.5094
  169SOPE  H15X19136   2.742   4.927   7.927  2.0980 -0.0701 -1.2042
  169SOPE  H15Y19137   2.731   4.770   8.010  1.3633 -0.4676 -0.5281
  169SOPE  C31619138   2.551   4.852   7.914  0.0748 -0.2162  0.7753
  169SOPE  H16X19139   2.504   4.756   7.885 -1.0920  0.7175 -0.6130
  169SOPE  H16Y19140   2.527   4.925   7.833  1.1765  0.0665  0.6866
  169SOPE  C31719141   2.502   4.924   8.043  0.8863  0.2625  0.4629
  169SOPE  H17X19142   2.567   5.014   8.051  2.8975 -1.1916  1.3186
  169SOPE  H17Y19143   2.511   4.850   8.125  0.5663 -1.6415 -1.1395
  169SOPE  C31819144   2.349   4.959   8.027 -0.3052 -0.3943  0.2599
  169SOPE  H18X19145   2.294   4.868   7.994  1.5154 -0.6042 -2.4866
  169SOPE  H18Y19146   2.343   5.035   7.946  0.0853 -1.5203 -0.8540
  169SOPE  H18Z19147   2.313   4.996   8.125  0.3385  1.8478 -0.2974
  170SOPE     N19148   6.218   6.826   6.000 -0.1606  0.3951 -0.2826
  170SOPE   HN119149   6.272   6.884   5.933  2.0701 -1.0290  0.1553
  170SOPE   HN219150   6.264   6.839   6.093 -2.2575 -0.0852  0.8959
  170SOPE   HN319151   6.230   6.724   5.983 -1.9873  0.0574  0.2011
  170SOPE   C1219152   6.079   6.861   6.006  0.3887  0.3490  0.0639
  170SOPE  H12A19153   6.037   6.853   5.904 -0.6356  0.1103  0.4996
  170SOPE  H12B19154   6.077   6.966   6.043 -1.0985  0.0738  0.8296
  170SOPE   C1119155   6.000   6.764   6.093  0.6885 -0.0799 -0.2925
  170SOPE  H11A19156   5.893   6.780   6.068  0.1357 -1.4207  1.0359
  170SOPE  H11B19157   6.028   6.786   6.199  0.1785 -1.0116  0.0409
  170SOPE     P19158   5.954   6.499   6.113 -0.1107 -0.0845  0.3223
  170SOPE   O1319159   5.996   6.385   6.033  0.2497  0.3643  0.2299
  170SOPE   O1419160   5.811   6.525   6.119  0.1929  0.4162  0.6532
  170SOPE   O1219161   6.031   6.633   6.058 -0.2268 -0.0139  0.5059
  170SOPE   O1119162   6.015   6.498   6.251  0.7452 -0.1044 -0.6893
  170SOPE    C119163   5.962   6.560   6.369 -0.4730 -0.4869 -0.6391
  170SOPE    HA19164   5.866   6.519   6.408 -0.9024  1.5379  0.5947
  170SOPE    HB19165   5.955   6.671   6.359  0.0182 -0.4467 -0.5171
  170SOPE    C219166   6.066   6.534   6.478 -0.2114  0.3644  0.6648
  170SOPE    HS19167   6.089   6.427   6.460  1.6137  0.6950  0.8159
  170SOPE   O2119168   6.016   6.561   6.610 -0.4576  0.4879 -0.2236
  170SOPE   C2119169   5.927   6.478   6.668  0.3311  0.6045 -0.2011
  170SOPE   O2219170   5.887   6.372   6.623  0.5366 -0.2773 -0.0540
  170SOPE   C2219171   5.878   6.542   6.797 -0.3288  0.0236 -0.6646
  170SOPE   H2R19172   5.787   6.598   6.764 -0.6962 -1.1388 -1.7121
  170SOPE   H2S19173   5.952   6.609   6.845 -0.6261 -0.8876  1.1316
  170SOPE    C319174   6.202   6.609   6.459 -0.2189  0.8024 -0.0132
  170SOPE    HX19175   6.163   6.713   6.454 -2.9605 -0.0966  1.0707
  170SOPE    HY19176   6.251   6.571   6.367  0.0346 -1.6898  1.0833
  170SOPE   O3119177   6.299   6.590   6.573  1.0966  0.2288  0.6611
  170SOPE   C3119178   6.341   6.470   6.603  0.3622  0.3998  0.6767
  170SOPE   O3219179   6.310   6.363   6.551 -0.0336  0.1073  0.0084
  170SOPE   C3219180   6.431   6.484   6.727  0.3931  0.0278 -0.3005
  170SOPE   H2X19181   6.449   6.594   6.736 -1.3592  0.2373  1.1935
  170SOPE   H2Y19182   6.524   6.432   6.695  0.2261  0.3240 -1.2972
  170SOPE   C2319183   5.827   6.431   6.901  0.6345  0.5206  0.1310
  170SOPE   H3R19184   5.909   6.361   6.929  0.6781  0.2676 -0.6106
  170SOPE   H3S19185   5.743   6.378   6.853 -0.9755  0.0187  3.2865
  170SOPE   C2419186   5.765   6.481   7.030  0.1203  0.1601 -0.7534
  170SOPE   H4R19187   5.731   6.585   7.013 -1.7230 -0.3706 -0.5476
  170SOPE   H4S19188   5.683   6.417   7.070  2.3257 -2.0266  0.5276
  170SOPE   C2519189   5.863   6.483   7.148 -0.1466 -0.7655  0.5618
  170SOPE   H5R19190   5.921   6.388   7.154  0.2889 -0.7254 -1.8438
  170SOPE   H5S19191   5.940   6.559   7.123 -0.9041  0.1534  0.9891
  170SOPE   C2619192   5.797   6.505   7.284 -0.6480 -0.0669  0.2995
  170SOPE   H6R19193   5.784   6.614   7.302 -1.0568  0.1019 -0.9404
  170SOPE   H6S19194   5.693   6.466   7.281 -0.7937 -0.1460  3.2066
  170SOPE   C2719195   5.858   6.430   7.411 -0.5836 -0.1106  0.0524
  170SOPE   H7R19196   5.840   6.324   7.384  0.6711 -0.7039  1.3822
  170SOPE   H7S19197   5.965   6.452   7.392 -0.6836  0.5656  0.2269
  170SOPE   C2819198   5.806   6.481   7.549  0.1966 -0.6567 -0.5386
  170SOPE   H8R19199   5.791   6.591   7.545  2.5690 -0.3116 -2.7805
  170SOPE   H8S19200   5.707   6.436   7.570 -0.4590  0.5854 -0.8399
  170SOPE   C2919201   5.899   6.451   7.667 -0.5812  0.0548  0.3755
  170SOPE   H9119202   6.003   6.487   7.655  0.2287 -2.0036  0.8477
  170SOPE  C21019203   5.868   6.378   7.770 -0.3427 -0.3802 -0.4066
  170SOPE  H10119204   5.945   6.350   7.843  1.4963 -0.2080 -2.2003
  170SOPE  C21119205   5.724   6.322   7.800 -0.2998 -0.5753  0.1068
  170SOPE  H11R19206   5.645   6.388   7.759 -1.0674 -1.1886  0.5523
  170SOPE  H11S19207   5.713   6.343   7.909 -0.6652  1.9650 -0.3704
  170SOPE  C21219208   5.693   6.179   7.756 -0.2684 -0.2389 -0.5959
  170SOPE  H12R19209   5.595   6.154   7.803 -0.3919 -0.6565 -1.0685
  170SOPE  H12S19210   5.760   6.104   7.803 -0.5406  1.0449  2.0329
  170SOPE  C21319211   5.681   6.168   7.602  0.9121  0.3268 -0.3956
  170SOPE  H13R19212   5.784   6.199   7.573  0.6239  2.2255  0.4722
  170SOPE  H13S19213   5.603   6.242   7.571 -1.9919 -2.1216  0.6414
  170SOPE  C21419214   5.661   6.030   7.546 -0.7538  0.0181  0.1840
  170SOPE  H14R19215   5.552   6.007   7.541 -1.0075  1.3927 -1.4306
  170SOPE  H14S19216   5.701   5.955   7.618 -0.4927  1.3318  1.4698
  170SOPE  C21519217   5.732   6.003   7.406  0.7155 -0.0006  0.0282
  170SOPE  H15R19218   5.753   5.895   7.397  0.7382  0.1406 -2.0033
  170SOPE  H15S19219   5.825   6.061   7.390  0.2378  0.9815  0.6822
  170SOPE  C21619220   5.645   6.046   7.290  0.1526  0.2758 -0.5851
  170SOPE  H16R19221   5.617   6.154   7.294 -1.4859 -0.0995 -1.1770
  170SOPE  H16S19222   5.548   5.992   7.293 -0.9157  1.9231 -2.8102
  170SOPE  C21719223   5.716   6.030   7.154 -0.1570  0.6210  0.7065
  170SOPE  H17R19224   5.781   5.941   7.146 -1.8771 -0.6831  0.5132
  170SOPE  H17S19225   5.783   6.118   7.142  0.9839 -0.4268 -1.0874
  170SOPE  C21819226   5.621   6.027   7.029 -0.1857  0.1012 -0.9134
  170SOPE  H18R19227   5.539   6.098   7.052  0.2337  0.3124 -0.0219
  170SOPE  H18S19228   5.587   5.922   7.018  2.4448 -0.9121 -0.0605
  170SOPE  H18T19229   5.672   6.051   6.933  0.3533  0.5170 -0.5319
  170SOPE   C3319230   6.361   6.436   6.852 -0.4516 -0.0144 -0.4632
  170SOPE   H3X19231   6.440   6.403   6.924 -1.0518  0.5754  0.4844
  170SOPE   H3Y19232   6.298   6.349   6.822 -0.8281  0.0498  0.1256
  170SOPE   C3419233   6.277   6.548   6.915  0.1337 -0.1753 -0.1964
  170SOPE   H4X19234   6.222   6.515   7.005  1.4357 -0.9135  0.3630
  170SOPE   H4Y19235   6.210   6.589   6.836  0.2664 -0.2585 -0.3529
  170SOPE   C3519236   6.371   6.655   6.986  0.5072 -0.2889 -0.1849
  170SOPE   H5X19237   6.421   6.713   6.906  0.7993  0.6323  0.6433
  170SOPE   H5Y19238   6.438   6.613   7.065 -1.7961 -2.6621  0.6500
  170SOPE   C3619239   6.284   6.766   7.058  0.3393  0.4886  0.4983
  170SOPE   H6X19240   6.185   6.717   7.068  0.1876  0.6058 -0.3188
  170SOPE   H6Y19241   6.256   6.846   6.987 -2.0377 -0.5901  0.1057
  170SOPE   C3719242   6.341   6.822   7.185  0.1911  0.3100  0.0358
  170SOPE   H7X19243   6.281   6.911   7.215  0.4777  0.4246  0.2714
  170SOPE   H7Y19244   6.443   6.862   7.174 -0.9151  3.4148  0.0569
  170SOPE   C3819245   6.322   6.717   7.298  0.3475 -0.4555 -0.0422
  170SOPE   H8X19246   6.374   6.621   7.275 -0.8302 -0.3794 -3.5738
  170SOPE   H8Y19247   6.218   6.681   7.288  1.2164 -2.3803 -4.2846
  170SOPE   C3919248   6.355   6.769   7.445  0.4007 -0.2252 -0.1867
  170SOPE   H9X19249   6.260   6.800   7.492 -1.4441 -2.8261 -1.8846
  170SOPE   H9Y19250   6.417   6.861   7.438  0.7774 -0.3960  0.7502
  170SOPE  C31019251   6.419   6.659   7.534  0.0222 -0.5764  0.4644
  170SOPE  H10X19252   6.447   6.697   7.635 -0.9933 -1.0290  0.9386
  170SOPE  H10Y19253   6.511   6.622   7.484  0.8998  0.0552  1.5593
  170SOPE  C31119254   6.322   6.537   7.552  0.4006 -0.4611 -0.1538
  170SOPE  H11X19255   6.346   6.459   7.476 -0.4004 -0.1446 -0.7498
  170SOPE  H11Y19256   6.219   6.573   7.527  1.4419  2.1355 -1.0907
  170SOPE  C31219257   6.314   6.450   7.674 -0.9439 -0.8185  0.3527
  170SOPE  H12X19258   6.408   6.391   7.677  0.5762  1.4023 -0.6138
  170SOPE  H12Y19259   6.225   6.385   7.663 -1.4074 -0.5425  2.1935
  170SOPE  C31319260   6.303   6.530   7.801 -0.1355 -0.4287 -0.7546
  170SOPE  H13X19261   6.205   6.582   7.796 -0.6507 -1.4856 -3.2617
  170SOPE  H13Y19262   6.386   6.604   7.803 -1.5099  1.1562 -0.4184
  170SOPE  C31419263   6.307   6.430   7.920 -0.2494  0.6776  0.6768
  170SOPE  H14X19264   6.401   6.372   7.906 -1.9043 -2.2985  1.2398
  170SOPE  H14Y19265   6.238   6.344   7.910  0.0607  0.3453  1.3272
  170SOPE  C31519266   6.303   6.487   8.061  0.1704 -0.4066  0.5380
  170SOPE  H15X19267   6.293   6.410   8.140  0.7302  1.2776  2.3447
  170SOPE  H15Y19268   6.208   6.544   8.061  1.2203  1.6352 -2.4521
  170SOPE  C31619269   6.418   6.573   8.097 -0.7511  0.0123  0.2177
  170SOPE  H16X19270   6.402   6.632   8.190  2.3505  0.4376  0.5850
  170SOPE  H16Y19271   6.428   6.651   8.018 -1.3811 -2.0235 -1.9854
  170SOPE  C31719272   6.564   6.507   8.102  0.1821 -0.3343  1.3705
  170SOPE  H17X19273   6.635   6.586   8.137  0.5484  0.3994 -0.8536
  170SOPE  H17Y19274   6.612   6.493   8.003  0.4106  1.8381  1.1137
  170SOPE  C31819275   6.578   6.389   8.194 -0.0380  0.5994 -0.1526
  170SOPE  H18X19276   6.561   6.419   8.299  1.1651  1.3608 -0.1527
  170SOPE  H18Y19277   6.686   6.365   8.205  0.4437  2.4230 -0.5574
  170SOPE  H18Z19278   6.529   6.291   8.174  1.4755 -0.4583  1.0534
  171SOPE     N19279   4.137   1.697   6.292 -0.2572  0.4904 -0.2200
  171SOPE   HN119280   4.038   1.712   6.267 -0.4023  0.5263  0.3557
  171SOPE   HN219281   4.178   1.789   6.319 -0.4909  0.7590 -0.7662
  171SOPE   HN319282   4.193   1.662   6.212 -1.6642 -1.7035 -0.3342
  171SOPE   C1219283   4.135   1.599   6.408 -0.0804  0.1869  0.3149
  171SOPE  H12A19284   4.135   1.646   6.509 -1.4283  0.4209  0.2206
  171SOPE  H12B19285   4.213   1.520   6.409  0.0558  0.2652 -1.4440
  171SOPE   C1119286   4.003   1.516   6.393 -0.7859  0.4742  0.1796
  171SOPE  H11A19287   3.913   1.581   6.394  0.2054  1.8919  0.7336
  171SOPE  H11B19288   3.999   1.452   6.484 -0.6005 -1.1532 -0.9119
  171SOPE     P19289   3.913   1.309   6.244 -0.0886 -0.5170 -0.2949
  171SOPE   O1319290   3.993   1.188   6.205 -0.8429  0.7402 -0.0099
  171SOPE   O1419291   3.797   1.351   6.157  0.1265 -0.0567  0.0381
  171SOPE   O1219292   4.004   1.431   6.271  0.2352 -0.8519 -0.3224
  171SOPE   O1119293   3.864   1.274   6.387  0.2000 -0.2840  0.0760
  171SOPE    C119294   3.734   1.310   6.438 -0.8083 -0.2729 -0.1254
  171SOPE    HA19295   3.648   1.266   6.384 -0.4332  0.5777 -1.4446
  171SOPE    HB19296   3.731   1.420   6.425  1.6952 -0.2843 -1.3644
  171SOPE    C219297   3.722   1.287   6.597  0.3675 -0.3847  0.4398
  171SOPE    HS19298   3.802   1.332   6.659 -0.7761  1.8354  0.3907
  171SOPE   O2119299   3.689   1.147   6.619 -0.2541 -0.2825  0.3156
  171SOPE   C2119300   3.714   1.107   6.737 -0.3830 -1.2545 -0.3503
  171SOPE   O2219301   3.752   1.178   6.832  0.1316 -0.6574  0.1024
  171SOPE   C2219302   3.696   0.957   6.741 -0.4257 -0.4365  0.4368
  171SOPE   H2R19303   3.797   0.918   6.716  0.8761  2.3763  0.9151
  171SOPE   H2S19304   3.623   0.928   6.663 -1.9336  1.0986  1.1878
  171SOPE    C319305   3.604   1.376   6.639  0.6703  0.5979  0.1608
  171SOPE    HX19306   3.517   1.353   6.574 -0.9317  1.4614  1.8930
  171SOPE    HY19307   3.639   1.479   6.618  0.7401  0.8478  1.4099
  171SOPE   O3119308   3.563   1.362   6.781  0.5222  0.0450  0.2091
  171SOPE   C3119309   3.628   1.426   6.870  0.0523  0.6686 -0.0631
  171SOPE   O3219310   3.712   1.508   6.846 -0.5499 -0.0827  0.3761
  171SOPE   C3219311   3.586   1.374   7.009  0.4031  0.0930 -0.2068
  171SOPE   H2X19312   3.629   1.272   7.020 -2.7341 -1.5048 -1.5828
  171SOPE   H2Y19313   3.475   1.361   7.010  0.2381  1.2987  1.2076
  171SOPE   C2319314   3.648   0.914   6.877 -0.0327  0.1914 -0.0721
  171SOPE   H3R19315   3.555   0.974   6.888  0.5871  1.3288 -0.8287
  171SOPE   H3S19316   3.717   0.941   6.960 -1.5511 -0.1347  1.3614
  171SOPE   C2419317   3.619   0.756   6.862  0.4304  0.2583  0.3977
  171SOPE   H4R19318   3.522   0.751   6.808 -0.0938 -1.7811  1.4408
  171SOPE   H4S19319   3.689   0.714   6.787 -0.5985  0.4277 -0.6941
  171SOPE   C2519320   3.619   0.687   6.991  0.1364 -0.0800  0.0748
  171SOPE   H5R19321   3.596   0.582   6.962  0.5992 -0.6012  1.5212
  171SOPE   H5S19322   3.717   0.682   7.042  0.3634  0.6173 -0.2862
  171SOPE   C2619323   3.521   0.736   7.103  0.7405 -0.4700 -0.3414
  171SOPE   H6R19324   3.545   0.842   7.126 -0.1997 -0.3664  0.1956
  171SOPE   H6S19325   3.421   0.731   7.057  0.7222 -2.4709 -0.1659
  171SOPE   C2719326   3.514   0.639   7.219 -0.0472 -0.2363  0.3142
  171SOPE   H7R19327   3.480   0.538   7.190 -1.0594  0.2654 -0.2911
  171SOPE   H7S19328   3.619   0.636   7.256 -0.3172  0.8116  1.2181
  171SOPE   C2819329   3.427   0.685   7.334  0.6994  0.1345  0.1541
  171SOPE   H8R19330   3.321   0.698   7.303 -1.4886 -1.7705  5.6925
  171SOPE   H8S19331   3.440   0.605   7.409  1.6515  0.2459  0.1266
  171SOPE   C2919332   3.476   0.812   7.399  0.0810 -0.3561  0.8817
  171SOPE   H9119333   3.417   0.902   7.379  1.7035  0.5801  0.2249
  171SOPE  C21019334   3.567   0.819   7.497 -0.2356 -0.3812 -0.2066
  171SOPE  H10119335   3.593   0.908   7.556  0.6081 -1.7354  1.5881
  171SOPE  C21119336   3.635   0.695   7.559  0.5723 -0.2549 -1.1527
  171SOPE  H11R19337   3.737   0.727   7.589 -0.1604  2.0643 -0.9545
  171SOPE  H11S19338   3.644   0.603   7.498 -2.2131 -2.5370  1.5303
  171SOPE  C21219339   3.563   0.659   7.687 -0.6347  0.3150  0.2418
  171SOPE  H12R19340   3.588   0.554   7.714  3.4234  0.6113 -1.6404
  171SOPE  H12S19341   3.456   0.650   7.660 -0.0739  0.5886 -2.2682
  171SOPE  C21319342   3.583   0.763   7.801  0.1347 -0.6707  0.5200
  171SOPE  H13R19343   3.553   0.862   7.760  0.3761 -0.0048  1.8973
  171SOPE  H13S19344   3.687   0.797   7.822 -1.1831  3.6512  1.0657
  171SOPE  C21419345   3.519   0.720   7.930 -0.4662 -0.3971 -0.5749
  171SOPE  H14R19346   3.581   0.639   7.975  0.8759  0.7776 -0.2184
  171SOPE  H14S19347   3.426   0.665   7.902  0.0697 -1.5665 -0.1288
  171SOPE  C21519348   3.477   0.820   8.030 -0.0487 -0.8841 -0.3958
  171SOPE  H15R19349   3.464   0.918   7.980  2.4870  0.3469  1.1475
  171SOPE  H15S19350   3.561   0.829   8.102 -1.9831  1.0260  1.7555
  171SOPE  C21619351   3.359   0.793   8.123  0.7133  0.7902  0.3792
  171SOPE  H16R19352   3.264   0.787   8.066  1.7921 -0.6233 -1.3584
  171SOPE  H16S19353   3.352   0.887   8.182  1.0397  2.3750 -1.9331
  171SOPE  C21719354   3.385   0.662   8.205  0.1675 -0.6080 -0.2748
  171SOPE  H17R19355   3.491   0.667   8.241 -0.7440  3.6626  2.5936
  171SOPE  H17S19356   3.360   0.578   8.137  1.0209 -0.8678 -0.2791
  171SOPE  C21819357   3.291   0.671   8.324  0.5476  0.1149  0.2115
  171SOPE  H18R19358   3.313   0.582   8.386 -1.5949 -0.2284  0.5705
  171SOPE  H18S19359   3.184   0.668   8.292  0.0968 -1.3986  1.7222
  171SOPE  H18T19360   3.309   0.767   8.376 -0.2091  0.4441 -0.1174
  171SOPE   C3319361   3.625   1.465   7.128  0.1644  0.6818  0.7535
  171SOPE   H3X19362   3.598   1.571   7.107  0.7034  0.9929  1.5814
  171SOPE   H3Y19363   3.734   1.452   7.144 -0.0245 -1.0426  0.8075
  171SOPE   C3419364   3.564   1.437   7.267  0.4765  0.7437  0.1291
  171SOPE   H4X19365   3.457   1.464   7.258 -0.6047 -2.7736  0.8244
  171SOPE   H4Y19366   3.597   1.505   7.348 -0.9679  1.5867  0.0394
  171SOPE   C3519367   3.571   1.282   7.300 -0.6897 -1.7165 -0.5221
  171SOPE   H5X19368   3.678   1.257   7.310  0.2500  1.0127 -2.5732
  171SOPE   H5Y19369   3.537   1.225   7.210  0.4695  0.2986 -2.3428
  171SOPE   C3619370   3.493   1.252   7.428 -1.1206 -0.4412 -0.5906
  171SOPE   H6X19371   3.527   1.149   7.451 -0.1854 -0.1536 -0.6452
  171SOPE   H6Y19372   3.383   1.262   7.429 -1.0573  0.2761  0.3935
  171SOPE   C3719373   3.541   1.334   7.557  0.3684 -0.4102  0.3668
  171SOPE   H7X19374   3.517   1.441   7.541 -1.6708 -0.8278  0.3957
  171SOPE   H7Y19375   3.649   1.324   7.580  0.1578 -1.3412  0.9896
  171SOPE   C3819376   3.482   1.278   7.681  0.4200 -0.6046  0.2075
  171SOPE   H8X19377   3.527   1.178   7.693  1.5569  0.0120  1.3907
  171SOPE   H8Y19378   3.375   1.264   7.656  0.2512  1.4733 -0.4196
  171SOPE   C3919379   3.499   1.370   7.798  0.2509 -0.1186  0.0966
  171SOPE   H9X19380   3.596   1.422   7.781  0.4374 -1.1845 -2.4562
  171SOPE   H9Y19381   3.534   1.317   7.889  0.2009 -0.5855 -0.1513
  171SOPE  C31019382   3.377   1.454   7.826 -0.0545  0.0980 -0.0622
  171SOPE  H10X19383   3.298   1.388   7.869  1.0503 -1.7659 -0.7929
  171SOPE  H10Y19384   3.330   1.493   7.733 -0.0499  0.5395  0.1162
  171SOPE  C31119385   3.406   1.563   7.932  0.1075  0.8267  0.0268
  171SOPE  H11X19386   3.323   1.629   7.962  0.1270  0.1118  1.7849
  171SOPE  H11Y19387   3.482   1.634   7.894 -1.8544  1.4777 -3.0096
  171SOPE  C31219388   3.435   1.497   8.070  0.2584 -0.2203 -0.1673
  171SOPE  H12X19389   3.470   1.392   8.065 -0.9093 -0.6238 -0.0369
  171SOPE  H12Y19390   3.343   1.500   8.131  1.5459  1.6121  1.8157
  171SOPE  C31319391   3.533   1.590   8.148  0.2124 -0.1500  0.4411
  171SOPE  H13X19392   3.486   1.691   8.152 -1.4014 -0.7736 -1.1243
  171SOPE  H13Y19393   3.631   1.613   8.100  0.3757  0.7673  1.1762
  171SOPE  C31419394   3.564   1.545   8.297 -0.5601 -0.3448 -0.4471
  171SOPE  H14X19395   3.599   1.439   8.298 -0.8003 -0.4318 -0.9645
  171SOPE  H14Y19396   3.465   1.557   8.346  0.3819  2.7158  0.9594
  171SOPE  C31519397   3.660   1.639   8.374 -0.1161  0.5497  0.1904
  171SOPE  H15X19398   3.616   1.742   8.373 -0.5027  0.3919  0.7172
  171SOPE  H15Y19399   3.757   1.647   8.320 -1.6166 -0.5728 -2.9577
  171SOPE  C31619400   3.691   1.586   8.521 -0.0200 -0.0903  0.8092
  171SOPE  H16X19401   3.777   1.650   8.551 -1.7278  1.0822  3.6779
  171SOPE  H16Y19402   3.720   1.480   8.506  3.1364  0.7325  0.3863
  171SOPE  C31719403   3.592   1.607   8.625 -0.2896 -0.7832 -0.7977
  171SOPE  H17X19404   3.502   1.548   8.597 -1.4261 -0.5479  2.0113
  171SOPE  H17Y19405   3.552   1.709   8.641  0.9038 -0.2598 -1.0749
  171SOPE  C31819406   3.651   1.568   8.762  0.3644  0.1367 -0.2229
  171SOPE  H18X19407   3.688   1.463   8.762  0.7711  0.2765 -0.0967
  171SOPE  H18Y19408   3.569   1.568   8.837  1.2729 -0.5534  0.7921
  171SOPE  H18Z19409   3.728   1.639   8.800  0.9275  0.6842 -2.2347
  172SOPE     N19410   5.239   2.676   6.295  0.2518 -0.5983  0.0081
  172SOPE   HN119411   5.221   2.708   6.198  3.2475 -0.2719 -0.5358
  172SOPE   HN219412   5.172   2.595   6.296 -1.3483  0.6524  1.2555
  172SOPE   HN319413   5.204   2.743   6.367 -2.6907 -0.6292 -1.2469
  172SOPE   C1219414   5.383   2.629   6.306  0.4250 -0.4033 -0.5728
  172SOPE  H12A19415   5.400   2.572   6.212 -1.2966  0.5542 -1.5116
  172SOPE  H12B19416   5.373   2.554   6.387 -1.1175  1.9520  1.5864
  172SOPE   C1119417   5.485   2.745   6.313 -0.4511 -0.1442 -0.8430
  172SOPE  H11A19418   5.577   2.683   6.316 -1.6931 -2.2603 -2.8463
  172SOPE  H11B19419   5.480   2.798   6.410 -0.6566  0.3330 -1.1033
  172SOPE     P19420   5.587   2.819   6.092 -0.0548  0.0610 -0.2762
  172SOPE   O1319421   5.547   2.907   5.978  0.1579  0.5737 -0.2890
  172SOPE   O1419422   5.619   2.677   6.059 -0.1427  0.1685  0.6295
  172SOPE   O1219423   5.476   2.831   6.206 -0.1612 -0.3252  0.6066
  172SOPE   O1119424   5.711   2.885   6.166 -0.8750  0.2373  0.3642
  172SOPE    C119425   5.714   3.020   6.203  0.1394 -0.5920 -0.3032
  172SOPE    HA19426   5.661   3.091   6.136 -3.7457  0.3087  3.2831
  172SOPE    HB19427   5.823   3.041   6.205  0.1268 -0.1470 -1.9967
  172SOPE    C219428   5.646   3.054   6.333  0.3193 -0.0700  0.4219
  172SOPE    HS19429   5.537   3.032   6.333 -0.1549  2.0725  0.8326
  172SOPE   O2119430   5.669   3.189   6.362 -0.3146 -0.1686  0.0860
  172SOPE   C2119431   5.574   3.256   6.416  0.4548  1.0287 -0.1489
  172SOPE   O2219432   5.472   3.210   6.463  0.0783 -0.0127 -0.1279
  172SOPE   C2219433   5.634   3.392   6.447 -0.7061 -0.2369 -0.0513
  172SOPE   H2R19434   5.687   3.431   6.357  1.8874 -1.7350  0.7151
  172SOPE   H2S19435   5.708   3.365   6.526 -0.3161 -0.6797 -0.5522
  172SOPE    C319436   5.714   2.971   6.451 -0.0767  0.1789  0.3179
  172SOPE    HX19437   5.808   3.015   6.492 -0.0331  1.2491 -0.8399
  172SOPE    HY19438   5.750   2.880   6.399 -1.7661 -0.5233  0.3330
  172SOPE   O3119439   5.634   2.922   6.551 -0.3186 -0.2798 -0.2610
  172SOPE   C3119440   5.640   2.984   6.676 -0.1234  0.1984  0.3772
  172SOPE   O3219441   5.702   3.088   6.703  0.4367 -0.0719 -0.2903
  172SOPE   C3219442   5.561   2.907   6.780 -0.0970 -0.6501 -0.5889
  172SOPE   H2X19443   5.616   2.818   6.818  0.7092  1.4945  3.8526
  172SOPE   H2Y19444   5.465   2.866   6.742 -1.2476  0.1591  1.2975
  172SOPE   C2319445   5.540   3.499   6.494  0.6586 -0.4252 -0.6202
  172SOPE   H3R19446   5.442   3.490   6.442 -1.1662 -3.7240  2.8642
  172SOPE   H3S19447   5.588   3.596   6.468 -0.9275  0.7964  0.7918
  172SOPE   C2419448   5.509   3.486   6.643 -0.1159 -0.1577  0.0243
  172SOPE   H4R19449   5.441   3.571   6.663  0.6359  0.3487  0.4588
  172SOPE   H4S19450   5.457   3.389   6.661 -0.1328 -0.4162 -1.3053
  172SOPE   C2519451   5.620   3.494   6.752  0.4062 -0.1555 -0.0354
  172SOPE   H5R19452   5.698   3.417   6.740  0.7240  0.1129  0.2905
  172SOPE   H5S19453   5.673   3.592   6.747  0.1169  0.0794  1.2117
  172SOPE   C2619454   5.574   3.478   6.894 -0.6720  0.5598 -0.8116
  172SOPE   H6R19455   5.520   3.571   6.920 -2.2325 -1.1582  2.8435
  172SOPE   H6S19456   5.501   3.398   6.919 -1.4694  1.5895  0.3144
  172SOPE   C2719457   5.707   3.476   6.987  0.0274 -0.4990  0.2054
  172SOPE   H7R19458   5.768   3.388   6.956  0.3585 -0.2826  0.2378
  172SOPE   H7S19459   5.783   3.555   6.971  0.9822 -0.9681  2.0868
  172SOPE   C2819460   5.684   3.470   7.140  0.6589 -0.9259  0.5597
  172SOPE   H8R19461   5.652   3.566   7.185 -0.1131 -1.3210  0.8725
  172SOPE   H8S19462   5.603   3.394   7.146  0.8197 -1.1322  0.1814
  172SOPE   C2919463   5.791   3.411   7.228  0.0145  0.4359  0.4328
  172SOPE   H9119464   5.889   3.389   7.182 -0.3779 -1.0083  0.2390
  172SOPE  C21019465   5.804   3.430   7.360 -0.3236  0.8592  0.2387
  172SOPE  H10119466   5.889   3.376   7.405 -0.6582  0.2912  0.1889
  172SOPE  C21119467   5.708   3.485   7.455  0.3715  0.5868  0.6654
  172SOPE  H11R19468   5.680   3.400   7.521 -0.2392 -0.2508 -0.6301
  172SOPE  H11S19469   5.617   3.511   7.397  2.7427  2.0504 -2.7266
  172SOPE  C21219470   5.743   3.598   7.548  1.0199  0.3886  0.2956
  172SOPE  H12R19471   5.655   3.632   7.606  1.9731  1.2478  1.2803
  172SOPE  H12S19472   5.770   3.682   7.480 -0.1781 -1.6713 -2.9596
  172SOPE  C21319473   5.853   3.554   7.647 -0.0003 -0.3098 -0.9782
  172SOPE  H13R19474   5.927   3.632   7.676 -0.3206 -0.9814  1.9793
  172SOPE  H13S19475   5.913   3.471   7.605 -1.7359 -0.8766 -2.4851
  172SOPE  C21419476   5.803   3.505   7.782 -0.0690 -0.4918 -0.8142
  172SOPE  H14R19477   5.717   3.437   7.767 -0.4513 -0.3015  0.3828
  172SOPE  H14S19478   5.776   3.594   7.843  1.4636 -1.0945  0.8458
  172SOPE  C21519479   5.908   3.422   7.867  0.1583 -0.4202 -0.1589
  172SOPE  H15R19480   6.013   3.456   7.880  0.2828  0.0798 -2.0813
  172SOPE  H15S19481   5.916   3.327   7.810 -2.0364  0.5748 -2.2779
  172SOPE  C21619482   5.857   3.378   8.003  0.7120  0.2705 -0.1876
  172SOPE  H16R19483   5.891   3.274   8.023  1.1259  0.1655 -1.3872
  172SOPE  H16S19484   5.747   3.367   7.992  0.5771  1.0499  0.2677
  172SOPE  C21719485   5.889   3.481   8.111 -0.2325  0.0048  0.2969
  172SOPE  H17R19486   5.839   3.572   8.073  1.6239  0.7773 -0.3755
  172SOPE  H17S19487   5.998   3.503   8.114 -0.5086  1.5451 -0.3430
  172SOPE  C21819488   5.844   3.453   8.256  0.2856  0.0713 -0.4560
  172SOPE  H18R19489   5.863   3.542   8.319  3.0033  0.2192 -1.3662
  172SOPE  H18S19490   5.882   3.359   8.300 -3.9210 -2.7957 -2.3010
  172SOPE  H18T19491   5.733   3.446   8.252  0.3808 -1.3199 -1.7656
  172SOPE   C3319492   5.529   2.984   6.917  0.9607  0.4664  0.4962
  172SOPE   H3X19493   5.434   2.943   6.957 -0.0624  3.8844  1.8983
  172SOPE   H3Y19494   5.506   3.089   6.889 -0.9092 -0.1301 -0.3408
  172SOPE   C3419495   5.637   2.964   7.023  0.4173 -0.9516 -0.3986
  172SOPE   H4X19496   5.735   2.991   6.977 -0.2928  1.6073 -0.5372
  172SOPE   H4Y19497   5.651   2.857   7.049  0.8364 -0.8416 -0.1570
  172SOPE   C3519498   5.615   3.042   7.154 -0.4410 -0.4246 -0.0245
  172SOPE   H5X19499   5.505   3.056   7.160 -0.3246  0.3048  0.4299
  172SOPE   H5Y19500   5.655   3.145   7.149 -0.1926 -0.4159  1.5105
  172SOPE   C3619501   5.676   2.985   7.285  0.4312  0.2671  0.7127
  172SOPE   H6X19502   5.782   2.960   7.260 -0.1818 -0.6835 -1.0663
  172SOPE   H6Y19503   5.624   2.889   7.306  0.7190 -0.0249  0.1196
  172SOPE   C3719504   5.660   3.070   7.413 -0.7509  0.3174  0.4491
  172SOPE   H7X19505   5.555   3.107   7.418 -1.1105 -0.7826  1.5156
  172SOPE   H7Y19506   5.733   3.153   7.402  1.1736 -1.4994 -1.2876
  172SOPE   C3819507   5.700   2.986   7.539  0.7191 -1.1246  0.4704
  172SOPE   H8X19508   5.783   2.915   7.514 -0.3702 -2.0106 -0.8041
  172SOPE   H8Y19509   5.608   2.927   7.558 -0.7294  0.7929 -0.3718
  172SOPE   C3919510   5.747   3.068   7.657  0.4887  0.1917 -1.0646
  172SOPE   H9X19511   5.680   3.156   7.669  1.4328  0.5788  2.2741
  172SOPE   H9Y19512   5.844   3.121   7.643  0.7729  0.4198  1.4445
  172SOPE  C31019513   5.738   2.991   7.782  0.5236 -0.4613 -0.0698
  172SOPE  H10X19514   5.634   2.961   7.807  0.8906 -0.5518  1.4283
  172SOPE  H10Y19515   5.791   3.057   7.855 -0.3974 -0.5224  0.6709
  172SOPE  C31119516   5.812   2.857   7.771  0.5541 -0.0725  0.1353
  172SOPE  H11X19517   5.902   2.868   7.707 -0.5048 -2.0337 -1.8340
  172SOPE  H11Y19518   5.742   2.780   7.732 -0.7865  1.2048 -0.0721
  172SOPE  C31219519   5.868   2.806   7.911  0.2026  0.7145 -0.4798
  172SOPE  H12X19520   5.883   2.697   7.899 -2.2111  0.2314  0.4691
  172SOPE  H12Y19521   5.797   2.811   7.996  1.1727 -1.6146  0.5428
  172SOPE  C31319522   6.003   2.863   7.950 -0.8473  0.2301  0.5116
  172SOPE  H13X19523   6.000   2.973   7.961  2.4634  0.7062 -1.7305
  172SOPE  H13Y19524   6.065   2.847   7.860  0.4849  0.8143  1.2885
  172SOPE  C31419525   6.063   2.793   8.065 -0.2054  0.5630 -0.2535
  172SOPE  H14X19526   6.160   2.847   8.076 -1.3663  2.4546  1.3831
  172SOPE  H14Y19527   6.072   2.683   8.053 -1.9613  0.5157 -1.3126
  172SOPE  C31519528   5.995   2.838   8.196 -0.0771 -0.1405  0.2998
  172SOPE  H15X19529   6.041   2.789   8.285 -0.0408 -0.2508  0.2195
  172SOPE  H15Y19530   5.888   2.808   8.203 -0.8418  2.3967  0.3557
  172SOPE  C31619531   6.012   2.993   8.218  0.0265  0.1133  0.2465
  172SOPE  H16X19532   5.978   3.056   8.134 -0.7910  0.7591  1.0457
  172SOPE  H16Y19533   6.119   3.022   8.216 -0.5898  2.6351 -2.2231
  172SOPE  C31719534   5.954   3.045   8.356  0.0633 -0.5025  0.1647
  172SOPE  H17X19535   5.972   3.154   8.367  0.8643 -0.6569  0.4228
  172SOPE  H17Y19536   6.014   3.001   8.439  1.3983  0.2260 -0.3841
  172SOPE  C31819537   5.805   3.014   8.383  0.3376  0.0357  0.2837
  172SOPE  H18X19538   5.749   3.061   8.299  3.3174  0.6846 -1.5295
  172SOPE  H18Y19539   5.782   3.046   8.486 -0.3002  2.5905 -0.5701
  172SOPE  H18Z19540   5.784   2.906   8.369 -0.0074  0.2413 -0.8807
  173SAPI   C1219541   1.858   6.149  10.519  0.3493  0.1863  0.4031
  173SAPI    H219542   1.869   6.189  10.416  1.5944  1.9415  1.1679
  173SAPI    O219543   1.968   6.199  10.587 -0.1930 -0.4739 -0.1611
  173SAPI   HO219544   2.042   6.209  10.525  0.1686 -0.2179  0.3029
  173SAPI   C1319545   1.724   6.188  10.579 -0.6560  0.1183 -0.0830
  173SAPI    H319546   1.653   6.118  10.531  0.1430  0.0415 -1.2121
  173SAPI    O319547   1.682   6.317  10.545 -1.1135  0.9334 -0.2458
  173SAPI   HO319548   1.606   6.343  10.597  0.2912  2.3039  1.2808
  173SAPI   C1419549   1.722   6.158  10.733  0.2041  0.2130  0.4243
  173SAPI    H419550   1.806   6.219  10.774 -0.6785  1.2170  0.7956
  173SAPI    O419551   1.602   6.198  10.800 -0.5828  0.2664  0.1082
  173SAPI   HO419552   1.544   6.125  10.821 -2.0909  1.2646 -0.4540
  173SAPI   C1519553   1.758   6.008  10.765  0.4731 -0.2276  0.1624
  173SAPI    H519554   1.662   5.956  10.749  0.3462  0.4517 -1.4135
  173SAPI    O519555   1.804   5.981  10.898  0.2708 -0.2729  0.7270
  173SAPI   HO519556   1.735   6.008  10.958 -0.3621 -1.6987  0.6776
  173SAPI   C1619557   1.840   5.928  10.661  0.8626  0.0439 -0.5942
  173SAPI    H619558   1.942   5.910  10.702  0.2727 -3.6315 -0.3916
  173SAPI    O619559   1.789   5.798  10.631 -0.4403 -0.3023 -0.1411
  173SAPI   HO619560   1.801   5.785  10.537  1.1991 -1.9070  0.2145
  173SAPI   C1119561   1.861   5.997  10.523 -0.2813 -0.0499 -0.4571
  173SAPI    H119562   1.765   5.975  10.472 -0.6341 -1.1445  0.6199
  173SAPI     P19563   1.961   5.824  10.331 -0.2963 -0.2593 -0.2490
  173SAPI   O1319564   1.862   5.723  10.365 -0.2118  0.4993 -0.1776
  173SAPI   O1419565   2.094   5.763  10.305  0.5668 -0.6969  0.1373
  173SAPI   O1219566   1.972   5.944  10.449 -0.1601 -0.2396  0.1735
  173SAPI   O1119567   1.908   5.911  10.210  0.2015  0.2911 -0.0753
  173SAPI    C119568   1.988   5.976  10.114 -0.5070  0.4612  0.0185
  173SAPI    HA19569   2.053   6.053  10.162  1.8469 -0.6343 -1.2301
  173SAPI    HB19570   2.064   5.910  10.067  2.4385  2.7246  1.2321
  173SAPI    C219571   1.906   6.025   9.987 -0.0441  0.4616  0.4774
  173SAPI    HS19572   1.833   6.095  10.035 -3.4899 -1.6718 -1.2154
  173SAPI   O2119573   1.845   5.911   9.929 -0.8259  0.3850 -0.1607
  173SAPI   C2119574   1.737   5.938   9.859 -0.1559 -0.3640 -0.5643
  173SAPI   O2219575   1.662   6.032   9.879  0.0846  0.5224 -0.1439
  173SAPI   C2219576   1.714   5.834   9.745 -0.2629 -0.1421 -0.4908
  173SAPI   H2R19577   1.772   5.745   9.776  0.4995 -0.3261 -2.2754
  173SAPI   H2S19578   1.606   5.807   9.746 -0.2490 -0.5878  3.3805
  173SAPI    C319579   1.994   6.115   9.886 -0.5069  0.6799  0.0462
  173SAPI    HX19580   2.060   6.046   9.830  0.8037  1.1170  0.9923
  173SAPI    HY19581   2.062   6.186   9.937  3.3097 -1.9126 -1.0367
  173SAPI   O3119582   1.911   6.183   9.789  0.0678 -0.2885  0.6976
  173SAPI   C3119583   1.853   6.300   9.832 -0.3242  0.2698  0.1239
  173SAPI   O3219584   1.859   6.341   9.944 -0.1476  0.1498  0.0752
  173SAPI   C3219585   1.785   6.366   9.712  1.0063  0.6505  0.3820
  173SAPI   H2X19586   1.761   6.285   9.640 -0.9937  1.6361 -0.1608
  173SAPI   H2Y19587   1.847   6.448   9.669  3.3966 -0.5681  1.3760
  173SAPI   C2319588   1.756   5.901   9.614  0.6373  0.7914  0.1756
  173SAPI   H3R19589   1.760   5.825   9.534  2.1018 -0.0349  1.0058
  173SAPI   H3S19590   1.857   5.943   9.631  0.6083  1.2084 -0.6291
  173SAPI   C2419591   1.650   5.999   9.571  0.0514  0.3283 -0.0415
  173SAPI   H4R19592   1.634   6.081   9.645  0.5211  0.7025 -0.3482
  173SAPI   H4S19593   1.551   5.950   9.566 -1.2037  2.2812  2.8051
  173SAPI   C2519594   1.692   6.049   9.431  0.0016 -0.1778 -0.2290
  173SAPI   H5R19595   1.786   6.105   9.434 -0.5179  0.7686  3.3609
  173SAPI   C2619596   1.619   6.041   9.313  0.2745  0.2539  0.2390
  173SAPI   H6R19597   1.652   6.105   9.230 -1.5047  0.2432 -0.5103
  173SAPI   C2719598   1.470   5.991   9.296 -0.0671  0.5016 -0.8650
  173SAPI   H7R19599   1.418   5.979   9.393 -0.5977  1.3356 -1.0325
  173SAPI   H7S19600   1.471   5.887   9.257 -0.3865  0.2272 -0.1625
  173SAPI   C2819601   1.403   6.104   9.215 -1.1804 -0.5886  0.1854
  173SAPI   H8R19602   1.382   6.198   9.266  0.9056 -0.6104  1.1899
  173SAPI   C2919603   1.393   6.103   9.082  0.0742  0.1091  0.5613
  173SAPI   H9R19604   1.362   6.198   9.035 -0.2271 -0.8657 -1.3147
  173SAPI  C21019605   1.440   5.991   8.984 -0.2682 -0.3650 -0.0942
  173SAPI  H10R19606   1.469   5.895   9.033  0.1612  0.3580  1.1223
  173SAPI  H10S19607   1.539   6.018   8.942  0.2154  0.4572  1.4945
  173SAPI  C21119608   1.348   5.958   8.869  0.4669 -0.3132 -0.3645
  173SAPI  H11R19609   1.271   5.882   8.892  0.6738  0.2655  2.6704
  173SAPI  C21219610   1.322   6.030   8.751  0.1873 -0.2955 -0.4686
  173SAPI  H12R19611   1.243   5.991   8.684 -0.6090 -1.0552  0.8596
  173SAPI  C21319612   1.394   6.155   8.699 -0.7338  0.6614 -0.1247
  173SAPI  H13R19613   1.419   6.216   8.789 -0.6456  1.6348 -0.7972
  173SAPI  H13S19614   1.316   6.216   8.647 -0.2497  1.4246  0.0294
  173SAPI  C21419615   1.513   6.142   8.613  0.4656  0.0485 -0.5109
  173SAPI  H14R19616   1.544   6.040   8.587  0.6851 -0.7893  2.7092
  173SAPI  C21519617   1.587   6.249   8.579  0.0353 -0.6024  0.1456
  173SAPI  H15R19618   1.684   6.229   8.530 -0.2483 -2.3361  0.2231
  173SAPI  C21619619   1.563   6.397   8.611  0.4285  0.4696 -0.0692
  173SAPI  H16R19620   1.645   6.453   8.660  0.9778  0.2169 -0.6911
  173SAPI  H16S19621   1.480   6.400   8.685 -0.7580  2.1607 -1.3866
  173SAPI  C21719622   1.514   6.471   8.488 -0.4036 -0.2648  0.1254
  173SAPI  H17R19623   1.590   6.480   8.408  1.1947 -3.9660  1.0318
  173SAPI  H17S19624   1.490   6.574   8.524  2.0308  0.7483 -0.8856
  173SAPI  C21819625   1.405   6.396   8.402  0.5654 -0.1229 -0.2270
  173SAPI  H18R19626   1.308   6.392   8.455  0.2503  1.0104 -0.6939
  173SAPI  H18S19627   1.443   6.292   8.390  2.5938  0.2545  2.0159
  173SAPI  C21919628   1.373   6.476   8.275  0.7905  0.6031 -1.0531
  173SAPI  H19R19629   1.464   6.470   8.212  0.7826 -1.8932 -0.9261
  173SAPI  H19S19630   1.369   6.580   8.313  2.6802  0.5154 -0.5193
  173SAPI  C22019631   1.241   6.443   8.206 -0.2895  0.0162 -0.3526
  173SAPI  H20R19632   1.209   6.512   8.125  0.2530 -1.2766 -1.7148
  173SAPI  H20S19633   1.156   6.450   8.278 -1.5074 -0.5712 -1.6795
  173SAPI  H20T19634   1.233   6.333   8.191  1.7904 -0.4704  1.4831
  173SAPI   C3319635   1.651   6.436   9.740  0.4397  0.6057  0.6740
  173SAPI   H3X19636   1.670   6.531   9.795  2.5888 -1.2005  3.3193
  173SAPI   H3Y19637   1.580   6.372   9.796  0.4149 -1.8809 -1.9978
  173SAPI   C3419638   1.565   6.464   9.609  0.8122  0.0380 -0.8219
  173SAPI   H4X19639   1.479   6.524   9.646  1.1839 -0.2555  0.5849
  173SAPI   H4Y19640   1.526   6.369   9.569 -1.5077  0.5993 -0.0191
  173SAPI   C3519641   1.640   6.545   9.502  0.1938  0.4192  0.3568
  173SAPI   H5X19642   1.675   6.470   9.428  1.9662 -0.5346  2.0707
  173SAPI   H5Y19643   1.716   6.617   9.538  0.5734  0.5354 -0.6333
  173SAPI   C3619644   1.543   6.637   9.425 -0.7508  0.0272  0.3862
  173SAPI   H6X19645   1.600   6.686   9.342 -4.5800 -1.3870 -3.4333
  173SAPI   H6Y19646   1.512   6.716   9.496 -0.6276 -0.4432  0.9669
  173SAPI   C3719647   1.426   6.564   9.364 -1.0338 -0.1802 -0.1948
  173SAPI   H7X19648   1.377   6.504   9.443 -1.0711 -0.6181 -0.5478
  173SAPI   H7Y19649   1.465   6.499   9.283  0.3179 -0.0323  0.3095
  173SAPI   C3819650   1.320   6.664   9.309 -0.5040 -0.8987 -0.1012
  173SAPI   H8X19651   1.322   6.761   9.363  0.2288  0.5818 -2.6705
  173SAPI   H8Y19652   1.218   6.621   9.316 -0.3404 -1.4239 -0.7906
  173SAPI   C3919653   1.351   6.700   9.162  0.2207  0.1216  0.0285
  173SAPI   H9X19654   1.383   6.608   9.108 -1.5893 -1.3589  1.3410
  173SAPI   H9Y19655   1.431   6.777   9.170  1.3868 -1.1616  1.3025
  173SAPI  C31019656   1.229   6.758   9.097  0.0184 -0.1221  0.0877
  173SAPI  H10X19657   1.172   6.815   9.174 -1.0899 -0.1025 -0.7194
  173SAPI  H10Y19658   1.159   6.677   9.067 -1.3180  1.0376 -0.0855
  173SAPI  C31119659   1.247   6.847   8.971 -0.4641  0.6557  0.2487
  173SAPI  H11X19660   1.286   6.944   9.008  2.4127 -0.8847  1.6003
  173SAPI  H11Y19661   1.145   6.868   8.933  0.0199  0.4244 -1.2352
  173SAPI  C31219662   1.343   6.796   8.864 -0.6289 -0.1279  0.6218
  173SAPI  H12X19663   1.301   6.695   8.846 -2.1944  0.6286 -0.2738
  173SAPI  H12Y19664   1.438   6.769   8.914 -1.3534 -0.0060  2.1417
  173SAPI  C31319665   1.343   6.870   8.728 -0.2049  0.3397 -0.4403
  173SAPI  H13X19666   1.428   6.830   8.668  1.5544  0.8302  1.5825
  173SAPI  H13Y19667   1.376   6.975   8.741  1.8121 -0.3858  0.7377
  173SAPI  C31419668   1.217   6.869   8.652 -0.1982  0.1691  0.4316
  173SAPI  H14X19669   1.131   6.895   8.717  1.1031 -1.0670  2.7840
  173SAPI  H14Y19670   1.187   6.765   8.625  0.9620 -0.3506  1.0466
  173SAPI  C31519671   1.224   6.945   8.523  0.8279  0.1049 -0.7377
  173SAPI  H15X19672   1.297   7.027   8.536  2.2808 -1.5453  2.9674
  173SAPI  H15Y19673   1.133   7.004   8.497  1.6102  0.1427 -3.8692
  173SAPI  C31619674   1.255   6.853   8.408  0.3008  0.3226 -0.1743
  173SAPI  H16X19675   1.173   6.779   8.401 -0.1299  0.6349  1.2401
  173SAPI  H16Y19676   1.347   6.792   8.424  0.9841  1.3660 -0.0023
  173SAPI  C31719677   1.265   6.930   8.273 -0.8097  0.2120 -0.3641
  173SAPI  H17X19678   1.328   7.020   8.291 -0.5930 -0.1412  0.6981
  173SAPI  H17Y19679   1.168   6.974   8.242 -0.8642  0.9307  0.7783
  173SAPI  C31819680   1.325   6.849   8.157 -0.0895 -0.2954  0.2111
  173SAPI  H18X19681   1.265   6.760   8.127 -1.1600  0.6715 -0.5958
  173SAPI  H18Y19682   1.429   6.819   8.183 -0.1865  2.4137  4.9842
  173SAPI  H18Z19683   1.331   6.910   8.065  0.9369 -0.1859  0.3382
  174SAPI   C1219684   4.372   6.538  10.714 -0.2321  0.0789 -0.2909
  174SAPI    H219685   4.409   6.627  10.659  0.7821 -0.9803 -1.3828
  174SAPI    O219686   4.254   6.502  10.640  0.4137 -0.0330 -0.1475
  174SAPI   HO219687   4.282   6.474  10.553 -0.7420  1.0462 -0.8876
  174SAPI   C1319688   4.480   6.434  10.711 -0.1757 -0.4521 -0.2690
  174SAPI    H319689   4.556   6.481  10.778 -0.2540 -0.2128 -0.3472
  174SAPI    O319690   4.551   6.428  10.585 -0.0590  0.1464  0.2487
  174SAPI   HO319691   4.627   6.370  10.596 -0.1568 -0.8129 -2.9287
  174SAPI   C1419692   4.442   6.302  10.778  0.4642 -0.7850  1.0530
  174SAPI    H419693   4.369   6.263  10.704 -0.6684 -0.3366  1.9024
  174SAPI    O419694   4.561   6.221  10.786 -0.0724 -0.7861 -0.2439
  174SAPI   HO419695   4.545   6.136  10.744 -0.0904 -0.3321 -1.1780
  174SAPI   C1519696   4.368   6.312  10.913  0.1840  0.1103 -0.3903
  174SAPI    H519697   4.445   6.317  10.993  0.6632  1.5909 -0.9140
  174SAPI    O519698   4.304   6.182  10.937  0.1158 -0.0220  0.9291
  174SAPI   HO519699   4.371   6.118  10.959 -1.5140 -1.9275  0.7092
  174SAPI   C1619700   4.273   6.429  10.922 -0.0658  0.1485 -0.2302
  174SAPI    H619701   4.183   6.393  10.867  1.0074 -3.1818 -0.0456
  174SAPI    O619702   4.226   6.445  11.059 -0.7480  0.8175 -0.2782
  174SAPI   HO619703   4.302   6.468  11.114  0.1621 -0.4629 -0.9617
  174SAPI   C1119704   4.325   6.561  10.861 -0.9017 -0.7550  0.4717
  174SAPI    H119705   4.415   6.571  10.925 -0.6741 -0.1227  0.0663
  174SAPI     P19706   4.300   6.824  10.886 -0.0270  0.3678  0.1744
  174SAPI   O1319707   4.413   6.817  10.981  0.2110  0.1630  0.4821
  174SAPI   O1419708   4.184   6.910  10.920 -0.6862 -0.0521 -0.1579
  174SAPI   O1219709   4.235   6.674  10.870  0.1912  0.3867  0.9483
  174SAPI   O1119710   4.346   6.861  10.737 -0.0645 -0.0813 -0.2057
  174SAPI    C119711   4.248   6.887  10.637  0.0340 -0.4853  0.3340
  174SAPI    HA19712   4.209   6.793  10.592 -0.9224  0.3518 -0.6546
  174SAPI    HB19713   4.162   6.945  10.676 -0.9308 -1.3294 -0.4911
  174SAPI    C219714   4.306   6.975  10.519 -0.3418  0.6785 -1.1477
  174SAPI    HS19715   4.228   6.979  10.440 -0.4510  0.4903 -1.0529
  174SAPI   O2119716   4.422   6.911  10.464  0.0264 -0.3773  0.1045
  174SAPI   C2119717   4.408   6.793  10.407 -0.1626  0.5220  0.0181
  174SAPI   O2219718   4.302   6.740  10.372  0.1210 -0.6218 -0.1113
  174SAPI   C2219719   4.545   6.733  10.377 -0.1821 -0.1178 -0.0794
  174SAPI   H2R19720   4.627   6.803  10.352 -0.1940 -0.4914 -1.2416
  174SAPI   H2S19721   4.589   6.697  10.472  3.9340  1.0420 -1.3283
  174SAPI    C319722   4.337   7.121  10.561  0.0182 -0.3905 -0.1364
  174SAPI    HX19723   4.431   7.121  10.620 -0.4558  2.4267  0.7746
  174SAPI    HY19724   4.251   7.171  10.611 -1.4557 -1.3959 -1.5210
  174SAPI   O3119725   4.353   7.192  10.432 -0.2922 -0.4283  0.1575
  174SAPI   C3119726   4.466   7.263  10.422 -0.3994 -0.2574 -0.3264
  174SAPI   O3219727   4.531   7.311  10.515 -0.5053 -0.0793 -0.2039
  174SAPI   C3219728   4.509   7.264  10.271  0.8245  0.6802 -0.6908
  174SAPI   H2X19729   4.527   7.368  10.237  0.2455  0.2948 -2.2541
  174SAPI   H2Y19730   4.419   7.236  10.212  0.1590  2.6002 -0.6726
  174SAPI   C2319731   4.544   6.633  10.261  0.4689  1.3852 -0.0694
  174SAPI   H3R19732   4.475   6.553  10.293  3.0140 -1.0478 -0.3322
  174SAPI   H3S19733   4.642   6.583  10.248 -0.0041  0.3311  0.3158
  174SAPI   C2419734   4.490   6.696  10.128 -0.2959  0.1812 -1.2250
  174SAPI   H4R19735   4.542   6.794  10.122 -0.1708  0.2694  0.5918
  174SAPI   H4S19736   4.381   6.708  10.144  0.0410  1.6050  0.3503
  174SAPI   C2519737   4.531   6.610  10.011 -0.4408  0.2365 -0.0367
  174SAPI   H5R19738   4.634   6.623   9.975  0.5170 -0.4273  2.3020
  174SAPI   C2619739   4.465   6.537   9.923 -0.2440 -0.3847  0.2628
  174SAPI   H6R19740   4.528   6.503   9.840  1.8290  0.1842  1.5342
  174SAPI   C2719741   4.317   6.506   9.928 -0.3193  0.6374  0.6119
  174SAPI   H7R19742   4.281   6.496  10.032 -1.0932 -1.9281  0.1692
  174SAPI   H7S19743   4.292   6.402   9.898 -0.6537  1.0085 -0.4289
  174SAPI   C2819744   4.244   6.617   9.850 -0.4137 -0.0654  0.1070
  174SAPI   H8R19745   4.195   6.691   9.914  0.9377  0.9498 -0.0034
  174SAPI   C2919746   4.223   6.631   9.718 -0.1784 -0.1653  0.5236
  174SAPI   H9R19747   4.165   6.717   9.680  0.6566  0.2532  0.1879
  174SAPI  C21019748   4.276   6.528   9.617 -0.7436 -0.1436 -0.0926
  174SAPI  H10R19749   4.369   6.484   9.660 -0.5940  0.6088  0.3698
  174SAPI  H10S19750   4.308   6.584   9.527 -0.9907 -0.1091 -0.1591
  174SAPI  C21119751   4.180   6.425   9.573  0.2000  0.6565  0.0527
  174SAPI  H11R19752   4.100   6.396   9.643  0.3437  0.0380 -0.0289
  174SAPI  C21219753   4.177   6.356   9.457  0.1092 -0.4339 -0.0785
  174SAPI  H12R19754   4.103   6.277   9.437  0.3032 -0.6096 -0.1014
  174SAPI  C21319755   4.278   6.371   9.342 -0.0218  0.6095  0.8808
  174SAPI  H13R19756   4.287   6.268   9.303 -1.0051  0.9834 -0.4170
  174SAPI  H13S19757   4.376   6.405   9.382  1.0846 -2.2126  0.7513
  174SAPI  C21419758   4.225   6.460   9.228 -0.0297  0.0208  0.6798
  174SAPI  H14R19759   4.259   6.565   9.233  0.6070 -0.1932  0.8019
  174SAPI  C21519760   4.161   6.401   9.126  0.0319 -0.7187  0.1598
  174SAPI  H15R19761   4.141   6.468   9.042 -0.6242  0.7679  1.4558
  174SAPI  C21619762   4.117   6.258   9.094  0.3129  0.3718 -0.0204
  174SAPI  H16R19763   4.011   6.268   9.062 -0.0251 -0.0027  0.9229
  174SAPI  H16S19764   4.087   6.196   9.182 -3.3312 -0.0502 -1.3814
  174SAPI  C21719765   4.215   6.181   9.007  0.3059 -0.6515  0.4699
  174SAPI  H17R19766   4.167   6.082   8.993 -1.9120  0.6602 -2.1051
  174SAPI  H17S19767   4.313   6.164   9.057  0.1168 -3.7524 -0.0224
  174SAPI  C21819768   4.219   6.252   8.869 -0.5277 -0.1545  0.3256
  174SAPI  H18R19769   4.280   6.345   8.868  3.2868 -2.4070 -1.8617
  174SAPI  H18S19770   4.124   6.257   8.811  0.7117 -1.5402 -1.9719
  174SAPI  C21919771   4.287   6.159   8.765  0.6136 -0.0975 -0.5880
  174SAPI  H19R19772   4.228   6.066   8.751  3.0246 -1.7345 -0.5511
  174SAPI  H19S19773   4.390   6.122   8.785 -0.6232 -2.5179  2.1966
  174SAPI  C22019774   4.281   6.209   8.624 -0.5706 -0.0457  0.0669
  174SAPI  H20R19775   4.368   6.273   8.603 -1.1907  0.3399 -1.4880
  174SAPI  H20S19776   4.195   6.275   8.600  0.3232  0.4028 -2.0585
  174SAPI  H20T19777   4.278   6.126   8.550  3.8273  0.8182 -1.3428
  174SAPI   C3319778   4.633   7.179  10.243 -0.2054 -0.4340 -0.3414
  174SAPI   H3X19779   4.607   7.072  10.258  1.8934 -0.9388  0.0313
  174SAPI   H3Y19780   4.708   7.215  10.317 -0.9581 -0.3828  0.4174
  174SAPI   C3419781   4.689   7.186  10.103 -0.5065  0.2770 -0.3508
  174SAPI   H4X19782   4.787   7.135  10.108 -1.5390 -1.6898  1.6663
  174SAPI   H4Y19783   4.715   7.293  10.087  2.4686 -0.3722 -0.3700
  174SAPI   C3519784   4.605   7.108   9.999 -0.1550 -0.7645 -0.2141
  174SAPI   H5X19785   4.515   7.173   9.996  0.9520  0.9123  1.0309
  174SAPI   H5Y19786   4.582   7.003  10.029 -2.4602 -0.8025 -1.9276
  174SAPI   C3619787   4.669   7.111   9.859  0.2729  0.5571  0.2640
  174SAPI   H6X19788   4.757   7.043   9.855  0.1823  0.5127 -1.2259
  174SAPI   H6Y19789   4.698   7.214   9.830  0.4688 -0.7127 -4.9773
  174SAPI   C3719790   4.573   7.069   9.741  0.0884  0.4798  0.2995
  174SAPI   H7X19791   4.471   7.113   9.744  0.0256  0.3073  0.8205
  174SAPI   H7Y19792   4.558   6.959   9.744  0.3131  0.4280 -0.2306
  174SAPI   C3819793   4.638   7.112   9.611  0.3828  0.1449 -0.0963
  174SAPI   H8X19794   4.733   7.057   9.596  1.6834  1.4349  2.7652
  174SAPI   H8Y19795   4.672   7.218   9.613  2.6585 -0.5262 -0.6918
  174SAPI   C3919796   4.571   7.090   9.481  0.1152  0.6665  0.6939
  174SAPI   H9X19797   4.473   7.140   9.495  0.2847  0.5889  2.3905
  174SAPI   H9Y19798   4.561   6.979   9.476 -0.4750  0.7204  0.6444
  174SAPI  C31019799   4.643   7.147   9.360 -0.4513 -0.0294 -0.1991
  174SAPI  H10X19800   4.740   7.094   9.354  0.2782  1.0318  1.4963
  174SAPI  H10Y19801   4.670   7.254   9.369  0.4180 -0.1839 -0.8561
  174SAPI  C31119802   4.572   7.113   9.233  0.0893  0.0261  0.9983
  174SAPI  H11X19803   4.465   7.128   9.259  0.3713  0.5660  1.9088
  174SAPI  H11Y19804   4.586   7.006   9.203 -2.2455  0.0425 -0.3686
  174SAPI  C31219805   4.610   7.205   9.111 -0.4639  0.9336 -0.0019
  174SAPI  H12X19806   4.593   7.310   9.141 -0.8170  0.8870 -0.0412
  174SAPI  H12Y19807   4.551   7.181   9.020 -1.7382 -0.0360  1.0356
  174SAPI  C31319808   4.759   7.193   9.081  0.0313 -0.3377  0.6694
  174SAPI  H13X19809   4.788   7.091   9.047 -0.8331 -0.0016 -1.1809
  174SAPI  H13Y19810   4.809   7.224   9.175 -0.6158  0.7250  0.6742
  174SAPI  C31419811   4.803   7.288   8.962 -0.2895 -0.3157  0.5604
  174SAPI  H14X19812   4.726   7.272   8.884  2.3116 -0.2416 -2.2245
  174SAPI  H14Y19813   4.899   7.258   8.916  1.5253  4.0833  0.9943
  174SAPI  C31519814   4.833   7.430   9.009 -0.1145  0.8747  0.0545
  174SAPI  H15X19815   4.934   7.427   9.055  0.4949 -0.1590 -1.2726
  174SAPI  H15Y19816   4.752   7.460   9.079  0.2108 -0.7930  1.2093
  174SAPI  C31619817   4.839   7.526   8.893 -0.4012  0.2602 -0.5118
  174SAPI  H16X19818   4.908   7.491   8.814  1.3600  0.2683  0.9675
  174SAPI  H16Y19819   4.869   7.624   8.936  0.1105 -1.0361  2.3194
  174SAPI  C31719820   4.703   7.554   8.826  0.0507  0.4723  0.3159
  174SAPI  H17X19821   4.622   7.562   8.901  1.0621 -3.0505  2.0118
  174SAPI  H17Y19822   4.680   7.462   8.768  1.0930 -0.2569  1.0140
  174SAPI  C31819823   4.713   7.673   8.740  0.3469  0.0377  0.2800
  174SAPI  H18X19824   4.611   7.692   8.700 -0.4632 -1.4076  1.5454
  174SAPI  H18Y19825   4.782   7.665   8.654  0.9949 -1.5006  0.9003
  174SAPI  H18Z19826   4.755   7.754   8.804  2.1713 -0.7605  0.1483
  175SAPI   C1219827   0.568   0.733   6.432  0.4504 -0.1477 -0.6073
  175SAPI    H219828   0.663   0.704   6.383  1.4666 -0.1934  1.3037
  175SAPI    O219829   0.582   0.866   6.481 -0.0455  0.6027  0.2491
  175SAPI   HO219830   0.623   0.867   6.568  0.1947  1.7758  0.1386
  175SAPI   C1319831   0.452   0.723   6.331 -0.0234  0.1653  0.7389
  175SAPI    H319832   0.456   0.623   6.284 -0.9242  1.3657 -2.0988
  175SAPI    O319833   0.484   0.817   6.226  0.1099 -0.5607  0.1825
  175SAPI   HO319834   0.454   0.900   6.263 -2.2136 -0.6865 -1.1994
  175SAPI   C1419835   0.317   0.750   6.386  0.1719 -0.2358 -0.2831
  175SAPI    H419836   0.312   0.857   6.417 -0.2979 -0.4878  0.5300
  175SAPI    O419837   0.223   0.720   6.282 -0.1310 -0.1019  0.1079
  175SAPI   HO419838   0.236   0.781   6.209 -2.1340  2.4253  1.6873
  175SAPI   C1519839   0.291   0.681   6.520  0.6096  0.7823  0.0720
  175SAPI    H519840   0.290   0.575   6.487  1.7494  1.0586 -0.9308
  175SAPI    O519841   0.164   0.716   6.580  0.1942 -0.4287  0.2402
  175SAPI   HO519842   0.120   0.638   6.614 -4.3855  1.2877 -0.8892
  175SAPI   C1619843   0.412   0.688   6.622 -0.3737 -0.1474 -0.0355
  175SAPI    H619844   0.411   0.793   6.656 -3.1998 -0.5747  1.5548
  175SAPI    O619845   0.385   0.607   6.734 -0.6056 -0.2412 -0.0759
  175SAPI   HO619846   0.445   0.642   6.799 -0.7035 -0.8540  0.3468
  175SAPI   C1119847   0.545   0.648   6.556  0.5264 -0.5778  0.3134
  175SAPI    H119848   0.531   0.540   6.536 -3.8092 -0.5025  1.7929
  175SAPI     P19849   0.792   0.576   6.636 -0.1086 -0.0516 -0.1995
  175SAPI   O1319850   0.901   0.664   6.697 -0.1679  0.5911  0.1693
  175SAPI   O1419851   0.806   0.534   6.493  0.4205 -0.5303 -0.2021
  175SAPI   O1219852   0.654   0.670   6.647  0.3783  0.2225 -0.1503
  175SAPI   O1119853   0.779   0.456   6.738  0.6288  0.2586  0.2153
  175SAPI    C119854   0.655   0.411   6.804 -0.4165 -0.6489 -0.1354
  175SAPI    HA19855   0.562   0.435   6.748 -0.2989  1.2049  0.4177
  175SAPI    HB19856   0.650   0.300   6.815 -0.6261 -0.7107 -0.7968
  175SAPI    C219857   0.643   0.478   6.946  0.1882 -0.5063  0.5417
  175SAPI    HS19858   0.636   0.585   6.916 -1.1378 -0.5540  0.6266
  175SAPI   O2119859   0.752   0.469   7.036 -0.4447  0.0363 -0.0335
  175SAPI   C2119860   0.785   0.346   7.058  0.4520  0.3380 -0.0534
  175SAPI   O2219861   0.724   0.246   7.025 -0.8456  0.2355  0.2842
  175SAPI   C2219862   0.904   0.348   7.155  0.1958  0.1208  0.0107
  175SAPI   H2R19863   1.002   0.344   7.103 -0.8156  2.6439 -2.3128
  175SAPI   H2S19864   0.903   0.439   7.218 -2.7118 -1.2428  2.1380
  175SAPI    C319865   0.504   0.453   7.016 -0.1376 -0.4667  0.3746
  175SAPI    HX19866   0.501   0.342   7.019  3.1167 -0.6679 -0.3519
  175SAPI    HY19867   0.426   0.485   6.943  1.7353  3.2145 -0.2500
  175SAPI   O3119868   0.491   0.527   7.144 -0.5735  0.1940  0.0585
  175SAPI   C3119869   0.525   0.456   7.254  0.1194 -0.2123  0.8231
  175SAPI   O3219870   0.535   0.335   7.262 -0.0347  0.5871  0.2325
  175SAPI   C3219871   0.505   0.556   7.371 -0.1268 -0.7370 -0.5399
  175SAPI   H2X19872   0.398   0.583   7.374 -0.0702 -0.4130 -1.2753
  175SAPI   H2Y19873   0.550   0.653   7.340  2.0378 -0.8238  1.9582
  175SAPI   C2319874   0.891   0.228   7.254  0.4790 -0.7382  0.6693
  175SAPI   H3R19875   0.898   0.131   7.201  0.6092 -1.4949  2.0392
  175SAPI   H3S19876   0.794   0.226   7.307  0.0875 -0.3447 -0.0161
  175SAPI   C2419877   1.009   0.225   7.356  0.1798  0.4002 -0.2481
  175SAPI   H4R19878   1.111   0.226   7.312 -0.0624  0.6217 -0.8068
  175SAPI   H4S19879   0.993   0.129   7.410 -1.7549  0.5797 -0.4321
  175SAPI   C2519880   1.008   0.343   7.448  0.1444  0.0874  0.3992
  175SAPI   H5R19881   1.063   0.426   7.402  0.5925 -1.4114 -1.9390
  175SAPI   C2619882   0.990   0.335   7.579 -0.2142  0.3914  0.2193
  175SAPI   H6R19883   1.000   0.428   7.638  2.6836 -0.4644  1.2336
  175SAPI   C2719884   0.953   0.222   7.674  0.6062 -0.6426  0.8672
  175SAPI   H7R19885   1.004   0.232   7.772 -3.5499  1.7850  3.1056
  175SAPI   H7S19886   0.995   0.126   7.636  0.8140 -0.6325  1.0662
  175SAPI   C2819887   0.803   0.209   7.686  0.2498  0.1540  0.5834
  175SAPI   H8R19888   0.752   0.220   7.589  0.8032 -1.9067  0.0089
  175SAPI   C2919889   0.734   0.159   7.789  0.6518 -0.3580 -0.0680
  175SAPI   H9R19890   0.625   0.149   7.779  0.3118  0.2569  2.4256
  175SAPI  C21019891   0.782   0.121   7.925 -0.1799 -0.7774 -0.3184
  175SAPI  H10R19892   0.739   0.201   7.988 -0.0294 -1.6575  0.9222
  175SAPI  H10S19893   0.889   0.148   7.941 -0.4676  0.3630 -0.2626
  175SAPI  C21119894   0.732  -0.014   7.965 -0.0121 -0.1633 -0.6610
  175SAPI  H11R19895   0.645  -0.053   7.911  1.8857 -3.6203 -1.5484
  175SAPI  C21219896   0.772  -0.077   8.077  0.0262  0.1559 -0.4388
  175SAPI  H12R19897   0.723  -0.170   8.108  1.6844 -0.5308  0.2533
  175SAPI  C21319898   0.881  -0.037   8.170 -0.0164 -0.3369 -0.4859
  175SAPI  H13R19899   0.955   0.009   8.102  0.3252 -0.7351 -0.3879
  175SAPI  H13S19900   0.934  -0.128   8.204  2.3506  1.7485  1.7643
  175SAPI  C21419901   0.834   0.035   8.295 -0.1254  0.1412 -0.0513
  175SAPI  H14R19902   0.771   0.121   8.268 -1.6481 -0.9863 -0.1836
  175SAPI  C21519903   0.849  -0.000   8.425 -0.6681 -0.6723  0.0499
  175SAPI  H15R19904   0.808   0.069   8.500  0.8667 -0.8189  1.0722
  175SAPI  C21619905   0.923  -0.118   8.494 -0.0090  0.1811  0.2213
  175SAPI  H16R19906   0.980  -0.081   8.582 -1.6351 -0.9249  1.7837
  175SAPI  H16S19907   0.993  -0.168   8.424 -0.5922  0.6228 -0.7079
  175SAPI  C21719908   0.831  -0.225   8.554 -0.4475 -0.1154 -0.5050
  175SAPI  H17R19909   0.756  -0.176   8.620  0.7419  0.8791  0.1429
  175SAPI  H17S19910   0.893  -0.293   8.616  1.0065  1.3831 -0.2692
  175SAPI  C21819911   0.778  -0.324   8.455 -0.3280 -0.3931  0.6006
  175SAPI  H18R19912   0.854  -0.381   8.398  1.2227  1.3953  0.7998
  175SAPI  H18S19913   0.716  -0.268   8.381  2.9342  1.9933 -0.5569
  175SAPI  C21919914   0.671  -0.420   8.512 -0.0693  0.1772  0.2983
  175SAPI  H19R19915   0.589  -0.362   8.560 -2.3234 -2.1131 -0.5907
  175SAPI  H19S19916   0.720  -0.477   8.594 -0.7885  0.8315  1.2096
  175SAPI  C22019917   0.601  -0.525   8.418 -0.0431 -0.1363 -0.1006
  175SAPI  H20R19918   0.531  -0.588   8.477 -1.2379 -0.9377 -2.2829
  175SAPI  H20S19919   0.672  -0.600   8.378  1.5570  0.6791  1.1032
  175SAPI  H20T19920   0.542  -0.471   8.340  1.1276 -0.9125 -1.5602
  175SAPI   C3319921   0.547   0.529   7.522 -0.2137 -0.5793  0.2392
  175SAPI   H3X19922   0.654   0.499   7.525  0.2593  0.3409 -3.4401
  175SAPI   H3Y19923   0.497   0.435   7.556 -1.5006 -0.1488 -0.4123
  175SAPI   C3419924   0.530   0.650   7.617  0.6507  0.4329 -0.2891
  175SAPI   H4X19925   0.422   0.675   7.613  0.3965 -0.0323  2.0730
  175SAPI   H4Y19926   0.590   0.735   7.580 -2.0629  2.1436 -1.0407
  175SAPI   C3519927   0.556   0.608   7.767 -1.5462  0.0231 -0.3439
  175SAPI   H5X19928   0.656   0.560   7.764 -1.4910  0.0715  0.5054
  175SAPI   H5Y19929   0.478   0.537   7.800 -1.6614 -1.2255 -3.0251
  175SAPI   C3619930   0.573   0.724   7.863  0.0393  0.0899 -0.2425
  175SAPI   H6X19931   0.464   0.742   7.881  0.0817  0.0233  0.0810
  175SAPI   H6Y19932   0.606   0.812   7.804  0.4135  0.6419  0.7575
  175SAPI   C3719933   0.640   0.713   8.000  0.2534 -0.1452 -0.5094
  175SAPI   H7X19934   0.675   0.809   8.045  0.3749  0.2078 -1.3505
  175SAPI   H7Y19935   0.734   0.658   7.980 -0.1956 -1.1155  0.0064
  175SAPI   C3819936   0.558   0.626   8.101  0.4425 -0.0219 -0.0811
  175SAPI   H8X19937   0.462   0.600   8.051 -1.7606  2.9331  2.2659
  175SAPI   H8Y19938   0.534   0.680   8.195 -0.1726 -0.3087 -0.0657
  175SAPI   C3919939   0.639   0.503   8.154 -0.0058 -1.2909 -0.0480
  175SAPI   H9X19940   0.668   0.449   8.061 -0.8117  0.3517 -1.3073
  175SAPI   H9Y19941   0.565   0.454   8.220 -1.6824 -0.5897 -1.3139
  175SAPI  C31019942   0.764   0.532   8.226  0.5446  0.0952 -0.3694
  175SAPI  H10X19943   0.740   0.580   8.323 -0.0270 -0.6750 -0.1100
  175SAPI  H10Y19944   0.827   0.594   8.160  1.1065 -2.4760 -2.4210
  175SAPI  C31119945   0.837   0.404   8.257 -0.5002 -0.1199 -0.5181
  175SAPI  H11X19946   0.820   0.335   8.172 -2.0788 -0.2713 -0.1016
  175SAPI  H11Y19947   0.789   0.349   8.340 -1.4183 -0.1226 -1.0450
  175SAPI  C31219948   0.990   0.420   8.283  0.1841 -0.3085 -0.3484
  175SAPI  H12X19949   1.042   0.446   8.188  2.8990 -1.3638  0.7366
  175SAPI  H12Y19950   1.017   0.316   8.314 -0.3491 -0.6673 -1.0424
  175SAPI  C31319951   1.024   0.517   8.391 -0.6326  0.1064  0.3850
  175SAPI  H13X19952   0.980   0.483   8.487 -1.0173  0.9035  0.4949
  175SAPI  H13Y19953   0.973   0.615   8.381  0.9588  0.7711 -2.4822
  175SAPI  C31419954   1.175   0.540   8.401  0.3969  0.1414  0.0724
  175SAPI  H14X19955   1.212   0.584   8.306  2.1923 -2.8352 -0.7323
  175SAPI  H14Y19956   1.224   0.441   8.409 -0.9212 -0.4998  0.6303
  175SAPI  C31519957   1.200   0.645   8.507  0.2388  0.1599 -1.2414
  175SAPI  H15X19958   1.135   0.732   8.485  0.1090  0.0609 -1.2460
  175SAPI  H15Y19959   1.311   0.657   8.511  0.5845 -2.4635  2.4232
  175SAPI  C31619960   1.179   0.594   8.650  0.0544 -0.0395  0.8358
  175SAPI  H16X19961   1.250   0.509   8.650  0.8752  0.4952 -2.7420
  175SAPI  H16Y19962   1.072   0.569   8.661 -0.0956  0.4070  0.4226
  175SAPI  C31719963   1.223   0.684   8.766  0.4764 -0.6492 -0.2787
  175SAPI  H17X19964   1.333   0.695   8.757  0.3461  0.3803 -0.7864
  175SAPI  H17Y19965   1.207   0.634   8.864  0.0296 -1.1184 -0.5843
  175SAPI  C31819966   1.155   0.816   8.766  0.0316 -0.1826 -0.8460
  175SAPI  H18X19967   1.048   0.806   8.738 -0.9834 -1.2767  2.8278
  175SAPI  H18Y19968   1.199   0.877   8.684  1.4309  1.0256  0.7180
  175SAPI  H18Z19969   1.164   0.876   8.859  1.4944  0.3965 -1.3265
  176SAPI   C1219970   0.443   6.465   6.431  0.3607 -0.6321  0.3471
  176SAPI    H219971   0.486   6.451   6.533 -0.3118 -0.5723  0.6436
  176SAPI    O219972   0.322   6.380   6.416  0.2563  0.0117 -0.3871
  176SAPI   HO219973   0.348   6.289   6.431 -0.5008  0.0869  1.6315
  176SAPI   C1319974   0.413   6.611   6.407  0.0559  0.4501  0.1360
  176SAPI    H319975   0.515   6.655   6.402  1.1024 -1.8851 -0.6897
  176SAPI    O319976   0.343   6.669   6.518  0.6222 -0.0304 -0.2530
  176SAPI   HO319977   0.356   6.626   6.603  0.0774  1.0989  0.4171
  176SAPI   C1419978   0.337   6.627   6.279  0.3156 -0.2020  0.6161
  176SAPI    H419979   0.236   6.584   6.294  0.3789 -1.1920 -1.4929
  176SAPI    O419980   0.328   6.762   6.251  0.3124  0.1503  0.0798
  176SAPI   HO419981   0.337   6.813   6.332  0.1192  0.7209 -0.2546
  176SAPI   C1519982   0.398   6.550   6.159 -0.1834 -0.7639  0.0048
  176SAPI    H519983   0.462   6.617   6.098  2.8152 -3.4807 -0.0883
  176SAPI    O519984   0.290   6.513   6.070 -0.4030  0.0671 -0.2541
  176SAPI   HO519985   0.259   6.428   6.102  1.0200  0.1968  1.6616
  176SAPI   C1619986   0.491   6.435   6.190  0.1366 -0.4477 -0.0051
  176SAPI    H619987   0.431   6.341   6.201  0.1745 -0.4478  0.2014
  176SAPI    O619988   0.585   6.419   6.088 -0.1002 -0.9871 -0.8043
  176SAPI   HO619989   0.581   6.324   6.074  0.2020 -1.3103  0.9460
  176SAPI   C1119990   0.553   6.432   6.327 -0.4591  0.5135  0.3795
  176SAPI    H119991   0.629   6.513   6.325 -0.5232  0.5539 -0.9656
  176SAPI     P19992   0.712   6.266   6.476 -0.1043  0.0050 -0.1311
  176SAPI   O1319993   0.828   6.357   6.466 -1.0335 -0.2781  0.4050
  176SAPI   O1419994   0.743   6.123   6.460 -0.3567  0.8047 -0.4229
  176SAPI   O1219995   0.598   6.307   6.359  0.5498 -0.0207  0.1364
  176SAPI   O1119996   0.631   6.284   6.613 -0.8299  0.1031 -0.3107
  176SAPI    C119997   0.541   6.194   6.666  0.1783  0.2169 -0.6888
  176SAPI    HA19998   0.454   6.252   6.705  0.7488  1.0157 -0.5704
  176SAPI    HB19999   0.502   6.114   6.599 -3.1581 -0.3098  1.6169
  176SAPI    C220000   0.599   6.121   6.792  1.5014  0.7758  0.8738
  176SAPI    HS20001   0.509   6.079   6.841  1.8748 -1.6646 -0.3517
  176SAPI   O2120002   0.679   6.202   6.884  0.2837  0.2012  0.4685
  176SAPI   C2120003   0.619   6.312   6.919 -0.0029  0.0487 -0.1377
  176SAPI   O2220004   0.500   6.333   6.909  0.4171 -0.5280  0.5355
  176SAPI   C2220005   0.730   6.402   6.979  0.3905  0.0970  0.3350
  176SAPI   H2R20006   0.778   6.350   7.065 -1.4888  0.8842  1.9306
  176SAPI   H2S20007   0.811   6.422   6.905 -0.6107  0.1162 -0.7922
  176SAPI    C320008   0.705   6.011   6.746  0.1238 -0.8241  0.7623
  176SAPI    HX20009   0.795   6.064   6.708 -1.0952  0.1644 -0.9203
  176SAPI    HY20010   0.675   5.955   6.654  0.8484  1.5023 -0.9911
  176SAPI   O3120011   0.740   5.929   6.858  0.0200  0.3640  0.6052
  176SAPI   C3120012   0.714   5.804   6.845 -0.1303  0.4634  0.9315
  176SAPI   O3220013   0.646   5.755   6.753 -0.0481 -0.1195  0.1307
  176SAPI   C3220014   0.747   5.730   6.973  0.3850 -0.8075 -0.0566
  176SAPI   H2X20015   0.658   5.744   7.038 -1.7524  1.0538 -3.0923
  176SAPI   H2Y20016   0.836   5.779   7.016 -1.0834  0.1638  2.0350
  176SAPI   C2320017   0.665   6.539   7.020 -0.0564 -0.3477 -0.7546
  176SAPI   H3R20018   0.626   6.522   7.123  1.5566 -1.2855 -0.2553
  176SAPI   H3S20019   0.583   6.574   6.955 -0.4196  1.1341  0.4391
  176SAPI   C2420020   0.779   6.649   7.041  1.0332  0.9862  0.2217
  176SAPI   H4R20021   0.724   6.727   7.099 -1.9901 -0.2700 -0.7656
  176SAPI   H4S20022   0.803   6.686   6.939 -2.2022  1.2296 -0.5839
  176SAPI   C2520023   0.893   6.597   7.123  0.6011  0.5794  0.1722
  176SAPI   H5R20024   0.969   6.560   7.053  1.1439  1.1737  0.4373
  176SAPI   C2620025   0.893   6.607   7.255 -0.4663  0.2916  0.5303
  176SAPI   H6R20026   0.989   6.569   7.295  0.1320  0.9638 -0.2299
  176SAPI   C2720027   0.791   6.661   7.358 -0.0618  0.6473 -0.1149
  176SAPI   H7R20028   0.687   6.677   7.322 -0.7187 -0.0050  1.4300
  176SAPI   H7S20029   0.831   6.757   7.397 -0.5331  0.1108  1.7831
  176SAPI   C2820030   0.797   6.568   7.477 -0.4943  0.4670 -1.0131
  176SAPI   H8R20031   0.704   6.510   7.489 -0.0403  0.0004  0.4485
  176SAPI   C2920032   0.891   6.545   7.578  0.1772 -0.4118 -0.2930
  176SAPI   H9R20033   0.876   6.467   7.654  1.7301 -0.6675 -0.2096
  176SAPI  C21020034   1.018   6.629   7.590  0.5454  0.0282  1.0629
  176SAPI  H10R20035   1.018   6.712   7.516 -0.5698 -0.8761  0.0059
  176SAPI  H10S20036   1.104   6.568   7.555 -0.3256  0.4967 -2.2233
  176SAPI  C21120037   1.044   6.686   7.726 -0.3192 -0.3859 -0.4406
  176SAPI  H11R20038   0.959   6.746   7.764 -1.7976 -3.1499  0.9153
  176SAPI  C21220039   1.157   6.685   7.798 -0.2294  0.2575  0.1719
  176SAPI  H12R20040   1.159   6.735   7.896 -1.8203  0.4405  0.1474
  176SAPI  C21320041   1.281   6.602   7.775  0.5197 -0.1447 -0.4619
  176SAPI  H13R20042   1.336   6.639   7.686  1.7343  0.3939  0.4798
  176SAPI  H13S20043   1.249   6.501   7.743  0.7060 -1.5400  3.2929
  176SAPI  C21420044   1.390   6.590   7.879 -0.6335  0.3211  0.5949
  176SAPI  H14R20045   1.400   6.670   7.953 -1.2063 -0.1660  1.2192
  176SAPI  C21520046   1.483   6.489   7.882 -0.5047 -0.3914  0.3811
  176SAPI  H15R20047   1.555   6.487   7.966  0.9814 -1.9329 -0.8785
  176SAPI  C21620048   1.483   6.371   7.778 -0.4706  0.2709  0.4708
  176SAPI  H16R20049   1.384   6.351   7.731 -0.0902 -1.3971  0.2919
  176SAPI  H16S20050   1.498   6.268   7.817  0.4151 -0.4973 -1.7536
  176SAPI  C21720051   1.574   6.390   7.661  0.1421  0.4287 -0.2268
  176SAPI  H17R20052   1.679   6.367   7.689 -0.6790 -1.4285  1.5475
  176SAPI  H17S20053   1.573   6.496   7.627 -0.6757 -0.0549 -1.8545
  176SAPI  C21820054   1.532   6.312   7.532 -0.1474  0.3124 -0.3997
  176SAPI  H18R20055   1.424   6.333   7.518 -0.5035  0.0712  1.6769
  176SAPI  H18S20056   1.534   6.203   7.556  0.7453  0.9472  2.9710
  176SAPI  C21920057   1.599   6.340   7.405  0.3342 -0.7816 -0.4221
  176SAPI  H19R20058   1.567   6.263   7.331  1.5835 -1.1032 -0.6608
  176SAPI  H19S20059   1.710   6.331   7.409  0.5491 -0.0978 -3.0652
  176SAPI  C22020060   1.580   6.484   7.349 -0.0147  0.6398 -0.3096
  176SAPI  H20R20061   1.633   6.480   7.251  1.6378  1.4817  0.5123
  176SAPI  H20S20062   1.628   6.562   7.412  0.6047 -1.1411  1.5319
  176SAPI  H20T20063   1.473   6.510   7.333 -0.5149 -1.5602 -0.8510
  176SAPI   C3320064   0.768   5.576   6.965  0.2809 -0.8641 -0.0372
  176SAPI   H3X20065   0.847   5.554   6.890 -0.9521  1.2500 -2.0862
  176SAPI   H3Y20066   0.676   5.539   6.915  0.0369 -0.4267  0.0842
  176SAPI   C3420067   0.792   5.496   7.099 -0.1616  0.2008  0.1901
  176SAPI   H4X20068   0.887   5.523   7.150  0.5407  0.3723 -1.1666
  176SAPI   H4Y20069   0.778   5.388   7.074  0.8443  0.3121 -0.9480
  176SAPI   C3520070   0.687   5.516   7.201 -0.0882 -0.9833 -0.0383
  176SAPI   H5X20071   0.586   5.518   7.153  1.1848 -0.1148 -2.8824
  176SAPI   H5Y20072   0.704   5.609   7.260  0.4059 -0.5805 -0.7962
  176SAPI   C3620073   0.693   5.405   7.310  0.4241 -0.0406 -0.6591
  176SAPI   H6X20074   0.790   5.356   7.289  0.6721  0.0116  0.2913
  176SAPI   H6Y20075   0.606   5.336   7.301  2.3045 -2.5761 -0.6368
  176SAPI   C3720076   0.709   5.462   7.456  1.2380  0.2029 -0.0292
  176SAPI   H7X20077   0.626   5.529   7.487  1.2665  0.4504 -0.4871
  176SAPI   H7Y20078   0.795   5.528   7.434  1.1170 -0.0154 -1.2323
  176SAPI   C3820079   0.751   5.371   7.574 -0.0747 -0.3224 -0.4239
  176SAPI   H8X20080   0.854   5.332   7.560  0.2908  0.8020 -0.9802
  176SAPI   H8Y20081   0.673   5.293   7.564 -0.3230 -0.2752  0.9167
  176SAPI   C3920082   0.739   5.452   7.707 -0.0041 -0.4577 -0.4315
  176SAPI   H9X20083   0.809   5.539   7.702 -0.0248 -0.2392  1.9641
  176SAPI   H9Y20084   0.765   5.384   7.790 -0.4409 -1.0141 -0.7465
  176SAPI  C31020085   0.601   5.511   7.744  0.4634  0.2628  0.4388
  176SAPI  H10X20086   0.572   5.589   7.670 -1.5934 -0.0830  0.8400
  176SAPI  H10Y20087   0.598   5.570   7.837  1.3270 -0.4542  0.9417
  176SAPI  C31120088   0.491   5.405   7.753 -0.3396  0.2476  0.4900
  176SAPI  H11X20089   0.523   5.320   7.817 -0.0461  0.4756  0.6480
  176SAPI  H11Y20090   0.474   5.368   7.650 -0.4816 -1.3597  1.0594
  176SAPI  C31220091   0.353   5.453   7.796 -0.1752 -0.1760  0.5233
  176SAPI  H12X20092   0.358   5.503   7.895 -0.9758 -0.3261  0.6450
  176SAPI  H12Y20093   0.287   5.364   7.803  1.4225 -1.7806 -2.6608
  176SAPI  C31320094   0.293   5.549   7.690  0.7128  0.3822  0.2072
  176SAPI  H13X20095   0.351   5.640   7.665 -0.1053  1.7277  2.8609
  176SAPI  H13Y20096   0.198   5.580   7.740  1.1476 -2.5137  3.2036
  176SAPI  C31420097   0.261   5.474   7.553  0.4756  0.7318  0.0909
  176SAPI  H14X20098   0.198   5.384   7.570 -3.0706  2.6017 -1.9895
  176SAPI  H14Y20099   0.348   5.447   7.489  1.8438 -1.5990  2.7365
  176SAPI  C31520100   0.163   5.572   7.472  0.2538 -0.2541  0.0861
  176SAPI  H15X20101   0.086   5.615   7.540  0.5924 -0.3903  0.5646
  176SAPI  H15Y20102   0.114   5.515   7.391  0.0085 -0.9146  0.6910
  176SAPI  C31620103   0.230   5.700   7.411  1.1976 -0.7142 -0.1138
  176SAPI  H16X20104   0.301   5.656   7.338  1.2617  0.7041 -0.9582
  176SAPI  H16Y20105   0.292   5.768   7.474 -0.4699  2.4190 -1.6017
  176SAPI  C31720106   0.140   5.797   7.333 -0.1784  0.0493  0.1267
  176SAPI  H17X20107   0.096   5.748   7.244 -0.9153 -2.3847  1.7147
  176SAPI  H17Y20108   0.205   5.879   7.295 -0.3773  0.1953  0.1021
  176SAPI  C31820109   0.030   5.863   7.412 -0.0911 -0.0833  0.1035
  176SAPI  H18X20110  -0.043   5.782   7.434 -1.9642  1.5952  0.3725
  176SAPI  H18Y20111  -0.024   5.943   7.357 -1.8182 -0.5890  0.9849
  176SAPI  H18Z20112   0.057   5.913   7.507 -0.3251 -0.6558  0.4746
  177SLPC     N20113   5.099   1.563  11.235 -1.0753  0.5304 -0.1301
  177SLPC   C1320114   4.968   1.637  11.226  0.1556 -0.1473  0.2420
  177SLPC  H13A20115   4.925   1.624  11.127 -2.3684 -1.5217  1.4303
  177SLPC  H13B20116   4.897   1.612  11.303  1.6052  0.7468  1.9185
  177SLPC  H13C20117   4.990   1.741  11.243 -1.6704  0.1189  1.1650
  177SLPC   C1420118   5.145   1.579  11.379  0.7261  0.0177  0.5580
  177SLPC  H14A20119   5.224   1.511  11.404  0.6798  0.7844  3.0601
  177SLPC  H14B20120   5.176   1.681  11.395  0.5161  0.4053 -1.2629
  177SLPC  H14C20121   5.063   1.550  11.443  1.5615  0.1201  1.7024
  177SLPC   C1520122   5.192   1.629  11.138 -0.4567  0.4666 -0.3134
  177SLPC  H15A20123   5.290   1.585  11.144 -0.5154  0.2216 -1.0838
  177SLPC  H15B20124   5.162   1.619  11.035 -0.4383 -0.3307 -0.2496
  177SLPC  H15C20125   5.212   1.734  11.154 -0.1468  0.4911 -0.8428
  177SLPC   C1220126   5.094   1.412  11.207  0.2439  0.6119 -0.2991
  177SLPC  H12A20127   5.064   1.398  11.104  0.4828  0.6322 -0.3733
  177SLPC  H12B20128   5.016   1.367  11.265 -0.6766  2.0242 -0.3911
  177SLPC   C1120129   5.223   1.328  11.240  0.1727 -0.7482 -0.4081
  177SLPC  H11A20130   5.190   1.227  11.208  0.4709 -0.6227 -1.1447
  177SLPC  H11B20131   5.243   1.308  11.348 -2.1914 -3.9365 -0.4387
  177SLPC     P20132   5.375   1.330  11.029 -0.1367  0.7406 -0.1324
  177SLPC   O1320133   5.446   1.431  10.951  0.1888  0.2614  0.1799
  177SLPC   O1420134   5.444   1.201  11.042  0.7344  0.2592 -0.6676
  177SLPC   O1220135   5.341   1.380  11.174  0.4432 -0.2822  0.0459
  177SLPC   O1120136   5.234   1.314  10.968 -0.6346  0.2620 -0.0078
  177SLPC    C120137   5.153   1.203  10.927 -0.1185 -0.2691 -0.7906
  177SLPC    HA20138   5.158   1.126  11.006  0.1246 -0.1937 -0.7321
  177SLPC    HB20139   5.047   1.238  10.921 -0.7844 -1.7827  1.0744
  177SLPC    C220140   5.197   1.137  10.796 -0.8376 -0.5078  0.8586
  177SLPC    HS20141   5.300   1.100  10.811 -1.0817 -1.2885  0.6860
  177SLPC   O2120142   5.191   1.223  10.681  0.3565 -0.2873 -0.0067
  177SLPC   C2120143   5.286   1.194  10.590  0.0696  0.1361  0.3573
  177SLPC   O2220144   5.377   1.121  10.600 -0.1190  0.3592  0.3466
  177SLPC   C2220145   5.249   1.254  10.455 -0.0843 -0.0057  0.3119
  177SLPC   H2R20146   5.139   1.257  10.437  0.0095  0.0258 -0.2576
  177SLPC   H2S20147   5.276   1.362  10.453 -2.9582  0.8098  0.7131
  177SLPC    C320148   5.098   1.014  10.780 -0.1531  0.3138  0.1262
  177SLPC    HX20149   4.995   1.054  10.783 -0.2899  0.6889 -3.8869
  177SLPC    HY20150   5.123   0.949  10.867  0.6834  0.1719 -0.2043
  177SLPC   O3120151   5.120   0.939  10.658 -0.8313  0.2561 -0.0789
  177SLPC   C3120152   5.028   0.849  10.644  0.3046  0.1253  1.7671
  177SLPC   O3220153   4.945   0.814  10.726 -0.5288 -0.1293 -0.1202
  177SLPC   C3220154   5.034   0.783  10.500 -0.1391  0.0256  0.1572
  177SLPC   H2X20155   4.934   0.746  10.470  0.7601  0.1383 -3.5034
  177SLPC   H2Y20156   5.104   0.697  10.503  0.2168  0.3503  1.4508
  177SLPC   C2320157   5.319   1.185  10.339 -0.1873  0.3906  0.1040
  177SLPC   H3R20158   5.324   1.074  10.347 -3.5253  0.1648  0.8297
  177SLPC   H3S20159   5.421   1.227  10.330  0.2361 -0.9479 -2.3071
  177SLPC   C2420160   5.256   1.227  10.200 -0.0549  0.0911 -0.1334
  177SLPC   H4R20161   5.156   1.180  10.209  1.0698 -2.5619 -0.6114
  177SLPC   H4S20162   5.299   1.171  10.115 -0.5388 -1.2745  0.4916
  177SLPC   C2520163   5.257   1.381  10.170 -0.5585 -0.2548  0.2150
  177SLPC   H5R20164   5.359   1.424  10.175 -0.1643 -0.1957 -4.3256
  177SLPC   H5S20165   5.212   1.432  10.257 -0.4812 -1.4760  1.0019
  177SLPC   C2620166   5.189   1.410  10.032 -0.6072 -0.0186  0.2703
  177SLPC   H6R20167   5.100   1.343  10.031  0.2204 -1.1634 -1.3309
  177SLPC   H6S20168   5.248   1.364   9.950  1.1145 -0.9177  1.9516
  177SLPC   C2720169   5.158   1.562  10.015  0.2328  0.5919  0.4649
  177SLPC   H7R20170   5.102   1.595  10.105  0.3172 -0.7298  1.0169
  177SLPC   H7S20171   5.083   1.566   9.933 -1.5552  0.8957  2.0370
  177SLPC   C2820172   5.273   1.661   9.989  0.8007  0.2310 -0.0089
  177SLPC   H8R20173   5.311   1.678  10.092 -0.3007  1.3482  0.2400
  177SLPC   H8S20174   5.227   1.752   9.945  1.1545  0.5840  0.3440
  177SLPC   C2920175   5.374   1.592   9.901 -0.0646 -0.0341  0.5250
  177SLPC   H9R20176   5.436   1.513   9.947 -0.3422 -1.6448 -1.6726
  177SLPC  C21020177   5.394   1.602   9.769 -0.1532  0.9501  0.4583
  177SLPC  H10R20178   5.475   1.540   9.727 -0.6700 -0.5869  1.6335
  177SLPC  C21120179   5.325   1.695   9.674  0.0321  0.0211  0.4318
  177SLPC  H11R20180   5.269   1.778   9.722 -1.5703 -0.8558  0.1449
  177SLPC  H11S20181   5.389   1.749   9.602 -0.0422 -0.7606 -0.2327
  177SLPC  C21220182   5.210   1.612   9.615  0.1352  0.1760 -0.6852
  177SLPC  H12R20183   5.155   1.552   9.689  1.0931 -0.2577 -0.3032
  177SLPC  C21320184   5.176   1.607   9.486 -0.8285  0.1961 -0.1702
  177SLPC  H13R20185   5.107   1.526   9.458 -1.4089  0.8141 -0.5435
  177SLPC  C21420186   5.252   1.679   9.377 -0.3032  0.3560 -0.5639
  177SLPC  H14R20187   5.359   1.697   9.404  0.2871 -3.5209  0.3337
  177SLPC  H14S20188   5.212   1.771   9.329  2.4253  0.3522 -3.1625
  177SLPC  C21520189   5.281   1.570   9.269 -0.0940  0.6089  0.6994
  177SLPC  H15R20190   5.183   1.531   9.233  0.0189 -0.1006  1.1374
  177SLPC  H15S20191   5.344   1.488   9.309  2.6834  2.3792  0.2220
  177SLPC  C21620192   5.360   1.633   9.159  0.9586  0.0990  0.3382
  177SLPC  H16R20193   5.462   1.646   9.201  0.9462 -1.5573  0.9876
  177SLPC  H16S20194   5.323   1.731   9.123 -0.9248 -0.4879  0.5767
  177SLPC  C21720195   5.383   1.539   9.037 -0.8320  0.7157 -0.7535
  177SLPC  H17R20196   5.294   1.478   9.012 -0.4656  0.1076 -0.6059
  177SLPC  H17S20197   5.451   1.457   9.071 -2.7834 -0.1265  1.3948
  177SLPC  C21820198   5.429   1.621   8.923 -0.3699  0.0658 -0.4164
  177SLPC  H18R20199   5.515   1.681   8.962 -0.0164 -0.1332 -0.8837
  177SLPC  H18S20200   5.345   1.679   8.881 -0.2593  1.0002  0.5952
  177SLPC  H18T20201   5.480   1.561   8.845  0.2309 -2.1529  1.5313
  177SLPC   C3320202   5.072   0.882  10.387  0.1219  0.2526  0.1677
  177SLPC   H3X20203   5.176   0.913  10.413 -0.0751  0.3129  0.9239
  177SLPC   H3Y20204   5.003   0.969  10.380 -1.1519 -0.8031 -0.7481
  177SLPC   C3420205   5.063   0.807  10.256  0.2987  0.1223  0.6038
  177SLPC   H4X20206   4.959   0.772  10.238 -0.4642  2.9659 -1.0857
  177SLPC   H4Y20207   5.125   0.715  10.262 -0.6014 -0.4944  0.8826
  177SLPC   C3520208   5.093   0.907  10.145 -0.5547  0.7364  0.1180
  177SLPC   H5X20209   5.198   0.936  10.168 -0.1883  0.3890 -1.0237
  177SLPC   H5Y20210   5.016   0.987  10.145 -1.7553 -0.3794 -0.3702
  177SLPC   C3620211   5.089   0.845  10.003 -0.5893  0.1170  0.2593
  177SLPC   H6X20212   5.030   0.751  10.004 -0.2965 -0.0781 -0.5980
  177SLPC   H6Y20213   5.190   0.812   9.974 -0.9017 -0.2317 -0.4440
  177SLPC   C3720214   5.047   0.957   9.897  0.0891  0.1251 -0.5684
  177SLPC   H7X20215   4.975   1.019   9.955  2.1530 -0.0288  2.3729
  177SLPC   H7Y20216   4.993   0.907   9.813 -0.5891  0.7006 -0.4826
  177SLPC   C3820217   5.158   1.041   9.842  0.5071  0.5592 -0.8364
  177SLPC   H8X20218   5.243   0.970   9.836 -0.4182 -0.6238 -0.3662
  177SLPC   H8Y20219   5.192   1.113   9.920 -0.2959  0.2478 -0.1782
  177SLPC   C3920220   5.139   1.094   9.701 -0.2137 -0.5756 -0.0308
  177SLPC   H9X20221   5.039   1.143   9.694 -0.1286 -0.1799  1.2582
  177SLPC   H9Y20222   5.145   1.009   9.629  1.3540 -1.2363  0.8306
  177SLPC  C31020223   5.245   1.205   9.682 -0.4517  0.2684  0.0544
  177SLPC  H10X20224   5.350   1.175   9.704  0.3652  2.1284 -1.0784
  177SLPC  H10Y20225   5.214   1.294   9.740 -1.3890 -0.4708  0.7240
  177SLPC  C31120226   5.256   1.248   9.534  0.0889 -0.4432  0.2034
  177SLPC  H11X20227   5.335   1.326   9.534 -0.1875 -0.0714  2.8247
  177SLPC  H11Y20228   5.155   1.292   9.524  0.1327  0.5526  3.1183
  177SLPC  C31220229   5.291   1.142   9.433  0.0447  0.3750 -0.3888
  177SLPC  H12X20230   5.204   1.074   9.422  0.0114 -0.2332  2.7478
  177SLPC  H12Y20231   5.371   1.087   9.484 -1.2388  1.1562  2.6786
  177SLPC  C31320232   5.312   1.199   9.291 -0.6971  0.7775 -0.1517
  177SLPC  H13X20233   5.391   1.277   9.294  0.5081 -0.4183  0.3836
  177SLPC  H13Y20234   5.219   1.255   9.270  0.1896  2.4227  0.1571
  177SLPC  C31420235   5.339   1.083   9.192  0.0949  0.3592 -1.0750
  177SLPC  H14X20236   5.268   1.001   9.216  2.7249 -1.8337 -0.2425
  177SLPC  H14Y20237   5.446   1.064   9.215 -0.0842  1.2606  0.6612
  177SLPC  C31520238   5.321   1.131   9.052 -0.5581  0.4473  0.2429
  177SLPC  H15X20239   5.360   1.039   9.003 -2.3065  0.2021 -0.7668
  177SLPC  H15Y20240   5.386   1.219   9.034  1.3805 -0.9854 -0.1727
  177SLPC  C31620241   5.184   1.159   9.003 -0.2000  0.4189  0.5137
  177SLPC  H16X20242   5.130   1.245   9.047  0.6867  0.3535  1.7608
  177SLPC  H16Y20243   5.128   1.067   9.032 -0.9114  0.1585 -1.5168
  177SLPC  C31720244   5.155   1.155   8.846 -0.0540  0.4540 -0.3258
  177SLPC  H17X20245   5.228   1.094   8.787  1.4410  1.3449  0.5205
  177SLPC  H17Y20246   5.187   1.253   8.803  1.2703  0.3469  0.3573
  177SLPC  C31820247   5.015   1.122   8.805  0.4450 -0.0516 -0.7698
  177SLPC  H18X20248   5.003   1.012   8.798 -2.5691  0.1957 -0.9236
  177SLPC  H18Y20249   4.990   1.164   8.705  2.2721  2.7002 -0.1728
  177SLPC  H18Z20250   4.948   1.159   8.886  2.9695  3.0970  0.0664
  178SLPC     N20251   6.624   0.817  11.026  0.0162 -0.2804 -0.6192
  178SLPC   C1320252   6.605   0.917  11.141 -0.3105  0.4385  0.1148
  178SLPC  H13A20253   6.547   1.005  11.118  1.8965  1.6533 -1.0775
  178SLPC  H13B20254   6.554   0.864  11.221 -1.2011  2.4993  0.9678
  178SLPC  H13C20255   6.705   0.946  11.170 -0.0468 -0.3966  0.0787
  178SLPC   C1420256   6.506   0.729  11.014 -0.0926 -0.0815  0.3708
  178SLPC  H14A20257   6.414   0.781  10.993 -0.4989  0.2657  2.7514
  178SLPC  H14B20258   6.519   0.656  10.936  0.3501  0.2661  0.1129
  178SLPC  H14C20259   6.500   0.665  11.100 -0.7446  1.5427  1.5771
  178SLPC   C1520260   6.744   0.735  11.064  0.1492  0.4590 -0.0374
  178SLPC  H15A20261   6.830   0.800  11.063 -0.8814  1.8955 -1.6879
  178SLPC  H15B20262   6.716   0.694  11.159 -1.7110  0.1329 -0.6837
  178SLPC  H15C20263   6.771   0.660  10.991 -0.4184  0.8690 -0.6845
  178SLPC   C1220264   6.659   0.891  10.900 -0.2049 -0.1254 -0.3468
  178SLPC  H12A20265   6.566   0.936  10.866 -0.1619 -0.0930 -0.4226
  178SLPC  H12B20266   6.695   0.828  10.820 -0.9327  0.4570 -1.1636
  178SLPC   C1120267   6.777   0.999  10.906  0.4516 -0.3886  0.7956
  178SLPC  H11A20268   6.767   1.057  11.000  1.5129  1.0826  0.0224
  178SLPC  H11B20269   6.754   1.073  10.827 -0.0603 -0.8721  0.4790
  178SLPC     P20270   6.981   0.854  10.798 -0.3224  0.2837  0.3413
  178SLPC   O1320271   7.107   0.808  10.853 -0.1718  0.0811 -0.3134
  178SLPC   O1420272   6.884   0.754  10.754  0.0874  0.3403 -0.3923
  178SLPC   O1220273   6.906   0.941  10.899 -0.9680  0.4552 -0.4686
  178SLPC   O1120274   7.002   0.949  10.670  0.2996  0.6516 -0.4927
  178SLPC    C120275   7.084   1.066  10.689 -0.0381  0.2415 -0.1259
  178SLPC    HA20276   7.016   1.153  10.701  1.5368  1.5546 -0.3714
  178SLPC    HB20277   7.158   1.068  10.772 -0.2092  2.4789  0.0382
  178SLPC    C220278   7.149   1.109  10.559 -0.0841 -0.3101 -1.0356
  178SLPC    HS20279   7.201   1.207  10.564 -1.7569  0.7128 -2.3881
  178SLPC   O2120280   7.058   1.110  10.450 -0.2145 -0.7730 -0.2399
  178SLPC   C2120281   6.989   1.213  10.436 -0.4985  0.1298  0.1522
  178SLPC   O2220282   6.971   1.305  10.514 -0.8287 -0.7287  0.2591
  178SLPC   C2220283   6.916   1.201  10.294  0.5207 -0.0743  0.1277
  178SLPC   H2R20284   6.994   1.197  10.215 -1.5947 -3.0033 -2.0239
  178SLPC   H2S20285   6.855   1.109  10.304 -0.1547  0.5347  2.0900
  178SLPC    C320286   7.262   1.012  10.532  0.1091  0.1549  0.7581
  178SLPC    HX20287   7.227   0.909  10.509 -2.5557  0.9751  0.8144
  178SLPC    HY20288   7.327   1.012  10.622 -0.7840  1.6433  1.4503
  178SLPC   O3120289   7.333   1.059  10.412 -0.5567 -0.7479  0.1461
  178SLPC   C3120290   7.463   1.018  10.400  0.2197 -0.3452  0.0580
  178SLPC   O3220291   7.522   0.947  10.485  0.4720 -0.4917  0.5045
  178SLPC   C3220292   7.525   1.095  10.290 -0.2220 -0.1604  0.4735
  178SLPC   H2X20293   7.624   1.045  10.285  0.0278  0.3829 -0.0225
  178SLPC   H2Y20294   7.538   1.204  10.308 -0.5091 -0.4607  2.8661
  178SLPC   C2320295   6.803   1.310  10.260  0.5591  0.2401 -0.0391
  178SLPC   H3R20296   6.847   1.412  10.253 -0.7787  0.7986 -0.8142
  178SLPC   H3S20297   6.725   1.314  10.339  0.9749  1.0124  0.3440
  178SLPC   C2420298   6.724   1.274  10.133 -0.5270  0.0819  0.4038
  178SLPC   H4R20299   6.628   1.330  10.134  0.6359  2.2128  0.1245
  178SLPC   H4S20300   6.691   1.168  10.134 -2.0850  0.4986 -1.1889
  178SLPC   C2520301   6.791   1.313   9.999  0.1693 -0.1674  0.2037
  178SLPC   H5R20302   6.898   1.285  10.010  1.7001  3.8744 -2.0557
  178SLPC   H5S20303   6.795   1.423   9.981 -1.0266  0.0685  1.2423
  178SLPC   C2620304   6.730   1.247   9.882 -0.3055 -0.4666 -0.0231
  178SLPC   H6R20305   6.626   1.284   9.868 -0.3091 -0.7496 -0.7750
  178SLPC   H6S20306   6.726   1.137   9.895 -1.5987 -0.3067  1.2716
  178SLPC   C2720307   6.800   1.286   9.751  0.1225  1.2492 -0.4581
  178SLPC   H7R20308   6.886   1.217   9.738 -0.3876  0.9336 -2.3609
  178SLPC   H7S20309   6.839   1.390   9.757  1.4207  0.8411 -1.5029
  178SLPC   C2820310   6.703   1.263   9.638  0.5873  0.5163 -0.0144
  178SLPC   H8R20311   6.611   1.326   9.648 -0.1939 -0.6653  0.4635
  178SLPC   H8S20312   6.660   1.161   9.628 -0.2638  0.8849 -0.2166
  178SLPC   C2920313   6.775   1.274   9.501  0.2642  0.5464 -0.0432
  178SLPC   H9R20314   6.833   1.183   9.478  1.0361  1.2551 -1.0107
  178SLPC  C21020315   6.772   1.376   9.417 -0.4655 -0.1881  0.4803
  178SLPC  H10R20316   6.809   1.357   9.316  1.3206  0.7294  0.9183
  178SLPC  C21120317   6.697   1.509   9.436 -0.0508 -0.2409  0.4613
  178SLPC  H11R20318   6.643   1.510   9.533  0.6145  0.4874  0.8324
  178SLPC  H11S20319   6.613   1.502   9.364 -0.0169 -0.3455  0.4308
  178SLPC  C21220320   6.781   1.632   9.412 -0.2681 -1.0713 -0.1668
  178SLPC  H12R20321   6.810   1.651   9.308 -0.1990 -1.8109 -0.2853
  178SLPC  C21320322   6.824   1.729   9.500 -0.0120  0.2182  0.1186
  178SLPC  H13R20323   6.880   1.812   9.453 -1.5594  0.2306 -1.8176
  178SLPC  C21420324   6.792   1.728   9.646 -0.2797  0.4965 -0.1976
  178SLPC  H14R20325   6.881   1.754   9.708 -0.2451 -2.3440  1.1117
  178SLPC  H14S20326   6.770   1.626   9.684 -1.2729  0.0474 -1.9103
  178SLPC  C21520327   6.677   1.825   9.689 -0.0902 -0.0764 -0.4030
  178SLPC  H15R20328   6.605   1.833   9.605  2.6282 -2.6586 -3.2842
  178SLPC  H15S20329   6.723   1.926   9.697 -0.9540  0.2731  0.2128
  178SLPC  C21620330   6.608   1.805   9.831  0.6462 -0.2149  0.5088
  178SLPC  H16R20331   6.543   1.894   9.846  1.1846  0.4679 -1.0427
  178SLPC  H16S20332   6.678   1.797   9.917 -0.8286 -0.3996  1.7391
  178SLPC  C21720333   6.508   1.696   9.835  0.5998 -0.4755 -0.4897
  178SLPC  H17R20334   6.547   1.604   9.786 -0.3362 -1.7433  1.0524
  178SLPC  H17S20335   6.419   1.731   9.778 -0.1461 -1.4043  0.0557
  178SLPC  C21820336   6.471   1.668   9.978  0.7099 -0.0021 -0.2292
  178SLPC  H18R20337   6.417   1.750  10.031  2.4704  0.5860  0.7350
  178SLPC  H18S20338   6.557   1.628  10.035 -0.3001 -2.3890 -0.2326
  178SLPC  H18T20339   6.405   1.578   9.973 -1.0177  1.1985  0.0508
  178SLPC   C3320340   7.462   1.080  10.142  0.5812  0.3932  0.5222
  178SLPC   H3X20341   7.431   0.974  10.127 -1.3717  1.2513 -2.5538
  178SLPC   H3Y20342   7.545   1.093  10.069 -0.3760 -3.2604 -1.4920
  178SLPC   C3420343   7.338   1.174  10.115 -0.3016  0.4335 -0.0176
  178SLPC   H4X20344   7.374   1.279  10.110 -0.0460  0.5043  2.3135
  178SLPC   H4Y20345   7.267   1.150  10.198  1.3850 -1.6789  0.9125
  178SLPC   C3520346   7.260   1.135   9.988 -0.0040  0.2118  0.0877
  178SLPC   H5X20347   7.193   1.218   9.957 -0.2325 -0.5056 -1.4492
  178SLPC   H5Y20348   7.211   1.037  10.003  4.0235 -1.6037  3.4895
  178SLPC   C3620349   7.354   1.100   9.866  0.2267  0.1265  0.2084
  178SLPC   H6X20350   7.407   1.003   9.878  2.4646  1.0704 -1.2981
  178SLPC   H6Y20351   7.428   1.182   9.860 -1.3265  1.5755  0.3737
  178SLPC   C3720352   7.275   1.096   9.731 -0.3934 -0.3555 -0.2704
  178SLPC   H7X20353   7.215   1.190   9.726  0.5723  0.2704 -0.4456
  178SLPC   H7Y20354   7.206   1.009   9.736  2.5355 -2.8870 -1.0240
  178SLPC   C3820355   7.373   1.087   9.612  0.3151  0.2439  0.5564
  178SLPC   H8X20356   7.420   0.987   9.623 -1.8364 -1.3416 -2.9072
  178SLPC   H8Y20357   7.447   1.170   9.620  1.3083 -0.4177 -1.2683
  178SLPC   C3920358   7.295   1.097   9.474  0.2084  0.0738  0.2149
  178SLPC   H9X20359   7.235   1.191   9.474  0.7138  0.4081 -0.4039
  178SLPC   H9Y20360   7.227   1.013   9.448  0.1077 -0.3985  1.9439
  178SLPC  C31020361   7.400   1.114   9.356  0.8872 -0.4851  0.5555
  178SLPC  H10X20362   7.460   1.023   9.334  0.0289 -0.3024 -3.1798
  178SLPC  H10Y20363   7.467   1.199   9.379  0.2673  0.3950 -0.7272
  178SLPC  C31120364   7.331   1.155   9.225  0.0965 -0.3203  0.0178
  178SLPC  H11X20365   7.283   1.253   9.246  1.3725  0.9404 -2.5504
  178SLPC  H11Y20366   7.264   1.076   9.186 -1.0154  0.0256  1.1564
  178SLPC  C31220367   7.430   1.172   9.110  0.0711  0.4554  0.8983
  178SLPC  H12X20368   7.477   1.072   9.105  0.1868  0.4610  1.7049
  178SLPC  H12Y20369   7.510   1.247   9.127  0.8430  0.0646 -0.8420
  178SLPC  C31320370   7.360   1.208   8.981  0.0677 -0.6841  0.5232
  178SLPC  H13X20371   7.350   1.318   8.966 -0.2491 -1.0296 -2.2761
  178SLPC  H13Y20372   7.261   1.160   8.990  0.6622 -2.0861 -0.1744
  178SLPC  C31420373   7.420   1.150   8.849  0.3679  0.2874 -0.4897
  178SLPC  H14X20374   7.440   1.041   8.854  0.1912  0.1352 -2.4535
  178SLPC  H14Y20375   7.518   1.200   8.837  1.7573 -1.1413  3.3883
  178SLPC  C31520376   7.321   1.156   8.730 -0.2571 -0.0953  0.4462
  178SLPC  H15X20377   7.327   1.072   8.657 -1.8808 -0.2484  0.4506
  178SLPC  H15Y20378   7.220   1.149   8.777  0.2166 -0.8316  1.3880
  178SLPC  C31620379   7.321   1.292   8.649 -0.4017  0.3019 -0.5604
  178SLPC  H16X20380   7.418   1.303   8.595 -0.5047  0.5234 -0.7025
  178SLPC  H16Y20381   7.314   1.370   8.728  0.1921  0.7593 -0.9455
  178SLPC  C31720382   7.198   1.287   8.555  0.0696 -0.4360  0.7495
  178SLPC  H17X20383   7.109   1.300   8.621  0.5560 -0.1438  1.3607
  178SLPC  H17Y20384   7.205   1.202   8.485  0.9419 -1.2387  1.7717
  178SLPC  C31820385   7.207   1.424   8.479  0.3206  0.6012  0.0927
  178SLPC  H18X20386   7.114   1.444   8.421 -0.2022 -1.4758  0.1376
  178SLPC  H18Y20387   7.295   1.433   8.411 -0.8403  3.1858 -1.2008
  178SLPC  H18Z20388   7.214   1.504   8.555  0.2189  0.5442  0.1617
  179SLPC     N20389   4.125   5.910  10.752  0.0552  0.3636  0.2137
  179SLPC   C1320390   4.197   5.971  10.640 -0.5651  0.0622 -0.1545
  179SLPC  H13A20391   4.240   5.901  10.570 -2.4929 -2.1217  0.7020
  179SLPC  H13B20392   4.144   6.046  10.583  1.3902  0.6539 -1.2966
  179SLPC  H13C20393   4.278   6.021  10.691 -1.4584  1.6140 -0.2053
  179SLPC   C1420394   4.082   6.001  10.859  0.6013 -0.7406  0.2447
  179SLPC  H14A20395   4.019   5.953  10.932  0.0305  3.0357  2.5033
  179SLPC  H14B20396   4.167   6.043  10.911 -1.1229  1.8331  1.1986
  179SLPC  H14C20397   4.038   6.090  10.815  3.5339 -0.2060 -1.9611
  179SLPC   C1520398   4.230   5.827  10.811 -0.3080  0.3027 -0.6661
  179SLPC  H15A20399   4.311   5.881  10.857 -0.6906 -0.4512  0.9483
  179SLPC  H15B20400   4.202   5.750  10.881  0.0517  0.2576 -0.5709
  179SLPC  H15C20401   4.270   5.767  10.730  0.5384 -2.0164  1.3543
  179SLPC   C1220402   4.009   5.826  10.706  0.5283 -0.2392 -0.3132
  179SLPC  H12A20403   3.919   5.885  10.697  0.1450 -1.0679 -3.2430
  179SLPC  H12B20404   3.999   5.756  10.787  2.4010 -0.6848 -0.4149
  179SLPC   C1120405   4.024   5.751  10.576 -0.0474 -0.4270 -0.0204
  179SLPC  H11A20406   4.032   5.821  10.490  1.1431  0.1323  0.5241
  179SLPC  H11B20407   3.929   5.696  10.559  0.0510 -0.7344  0.4141
  179SLPC     P20408   4.121   5.516  10.640  0.0669  0.5662 -0.0371
  179SLPC   O1320409   4.258   5.454  10.649 -0.0260 -0.0442  0.4276
  179SLPC   O1420410   4.051   5.531  10.768  0.1902 -0.4684 -0.6436
  179SLPC   O1220411   4.127   5.659  10.576 -0.5637  0.1934 -0.4875
  179SLPC   O1120412   4.026   5.436  10.548  0.2673 -0.0168  0.5196
  179SLPC    C120413   4.067   5.353  10.438  0.3492 -0.6556 -0.0246
  179SLPC    HA20414   4.176   5.333  10.433  1.1644  2.7668  1.3541
  179SLPC    HB20415   4.020   5.252  10.436 -0.3617 -0.3180 -1.3710
  179SLPC    C220416   4.030   5.421  10.303 -0.0754  0.0049 -0.1036
  179SLPC    HS20417   3.931   5.471  10.308  0.0687  0.5526 -1.8264
  179SLPC   O2120418   4.028   5.327  10.190  0.3878 -0.0731  0.5696
  179SLPC   C2120419   3.943   5.232  10.189 -0.2589  0.1125 -0.9930
  179SLPC   O2220420   3.855   5.214  10.276 -0.5847 -0.4716 -0.2207
  179SLPC   C2220421   3.973   5.145  10.068  0.4015 -0.5601 -0.1295
  179SLPC   H2R20422   4.082   5.125  10.060  0.6813  0.7479  0.1569
  179SLPC   H2S20423   3.917   5.050  10.082 -1.0682  0.3717  0.5500
  179SLPC    C320424   4.132   5.543  10.260 -0.2311  0.5784 -0.0543
  179SLPC    HX20425   4.237   5.509  10.247  1.1182  4.0223  0.5775
  179SLPC    HY20426   4.157   5.616  10.340 -1.1123 -2.9134  3.7117
  179SLPC   O3120427   4.069   5.617  10.150 -0.0387 -0.3785 -0.4349
  179SLPC   C3120428   4.130   5.611  10.029  0.0446 -0.7540 -0.2092
  179SLPC   O3220429   4.241   5.574  10.010 -0.3364 -0.6848  0.3996
  179SLPC   C3220430   4.030   5.664   9.923 -0.1591  0.6175 -0.2265
  179SLPC   H2X20431   3.975   5.746   9.975 -1.4791 -0.0760 -0.4759
  179SLPC   H2Y20432   3.956   5.583   9.909 -1.8802  1.7057  1.9402
  179SLPC   C2320433   3.936   5.222   9.944  0.2374 -0.4319 -0.0254
  179SLPC   H3R20434   3.998   5.307   9.908  0.0678  0.0347  0.7532
  179SLPC   H3S20435   3.834   5.266   9.957  1.1968  1.6881  0.8303
  179SLPC   C2420436   3.927   5.131   9.821 -0.5856  0.0764  0.7168
  179SLPC   H4R20437   3.887   5.028   9.838  0.6640 -0.3564  1.1240
  179SLPC   H4S20438   4.031   5.100   9.799 -1.4657 -1.3405 -1.8807
  179SLPC   C2520439   3.864   5.201   9.697 -0.5437 -0.7519  0.1042
  179SLPC   H5R20440   3.945   5.270   9.664 -0.4265 -0.9858 -0.1045
  179SLPC   H5S20441   3.778   5.262   9.732 -0.5609 -1.0782  0.6355
  179SLPC   C2620442   3.823   5.098   9.589 -0.9163  0.1897  0.5203
  179SLPC   H6R20443   3.755   5.021   9.630 -0.8889  0.8181  1.7900
  179SLPC   H6S20444   3.914   5.047   9.550 -1.4293  0.8276 -1.6820
  179SLPC   C2720445   3.765   5.156   9.459  0.5166  0.0945 -0.0858
  179SLPC   H7R20446   3.657   5.169   9.480  0.7344 -0.1299  1.2398
  179SLPC   H7S20447   3.762   5.071   9.387 -3.4868 -1.2859  1.4875
  179SLPC   C2820448   3.825   5.283   9.404 -0.4451  0.1729  0.3604
  179SLPC   H8R20449   3.935   5.291   9.393 -0.5860 -0.0415 -1.7593
  179SLPC   H8S20450   3.797   5.369   9.468 -2.7614 -0.3669  0.1634
  179SLPC   C2920451   3.756   5.316   9.268 -0.1024  0.1685  0.5335
  179SLPC   H9R20452   3.668   5.383   9.270  0.6099  1.3557 -2.3958
  179SLPC  C21020453   3.807   5.291   9.149 -0.2954 -0.1087  0.5667
  179SLPC  H10R20454   3.758   5.321   9.055 -0.6025  1.0712  1.0848
  179SLPC  C21120455   3.934   5.215   9.127 -0.9042  0.6061  0.4077
  179SLPC  H11R20456   3.897   5.116   9.092  0.2300  0.0905  0.6136
  179SLPC  H11S20457   3.995   5.188   9.216 -1.5361  1.0258  0.9773
  179SLPC  C21220458   4.032   5.277   9.032  0.4613  0.2897  0.1904
  179SLPC  H12R20459   4.125   5.309   9.082  0.7861 -1.2432  0.6142
  179SLPC  C21320460   4.035   5.279   8.895 -0.5010 -0.0350 -0.0953
  179SLPC  H13R20461   4.122   5.323   8.844  0.4174 -0.5072  1.0130
  179SLPC  C21420462   3.928   5.222   8.803 -0.0570 -0.7368 -0.2330
  179SLPC  H14R20463   3.853   5.167   8.864 -0.7656 -0.0438 -0.4599
  179SLPC  H14S20464   3.972   5.163   8.720 -2.3142 -0.3874 -1.7498
  179SLPC  C21520465   3.856   5.327   8.712 -0.0476  1.0934  0.0162
  179SLPC  H15R20466   3.810   5.404   8.778 -0.4416  1.1656 -0.3367
  179SLPC  H15S20467   3.786   5.278   8.641  0.7493  1.8217 -1.3078
  179SLPC  C21620468   3.965   5.393   8.624 -0.1298  0.1131 -0.0308
  179SLPC  H16R20469   4.055   5.418   8.684  0.2527 -3.3467  1.0731
  179SLPC  H16S20470   3.913   5.486   8.592 -1.8155 -0.5352  0.6923
  179SLPC  C21720471   4.003   5.306   8.503  0.3124 -0.3473  0.1683
  179SLPC  H17R20472   3.927   5.329   8.425 -0.2277  0.5079  0.9287
  179SLPC  H17S20473   4.002   5.197   8.525  1.6949 -1.0591 -2.7367
  179SLPC  C21820474   4.147   5.334   8.458  0.3566  0.4322  0.4440
  179SLPC  H18R20475   4.158   5.258   8.378  0.1885 -1.7650  2.4001
  179SLPC  H18S20476   4.219   5.321   8.542  1.2607 -1.0242 -0.5018
  179SLPC  H18T20477   4.148   5.433   8.408 -2.2538  0.4373  0.2753
  179SLPC   C3320478   4.086   5.712   9.780 -0.0862 -0.1913 -0.0173
  179SLPC   H3X20479   4.183   5.659   9.763 -1.0910 -2.2479  0.3653
  179SLPC   H3Y20480   4.123   5.817   9.781 -0.2731 -0.1010  2.2484
  179SLPC   C3420481   4.002   5.671   9.663 -0.0760 -0.7796  0.6583
  179SLPC   H4X20482   3.925   5.750   9.647  0.2254 -0.4411  0.8749
  179SLPC   H4Y20483   3.949   5.576   9.686 -1.4921 -0.9278 -2.5817
  179SLPC   C3520484   4.084   5.651   9.527  0.6833 -0.4896  0.0182
  179SLPC   H5X20485   4.144   5.558   9.529  0.5737 -0.5873 -0.8815
  179SLPC   H5Y20486   4.155   5.735   9.511 -0.9657  1.0911  0.6155
  179SLPC   C3620487   3.988   5.639   9.402  0.3977  0.0401 -0.0880
  179SLPC   H6X20488   3.890   5.684   9.428  1.1742  0.0870  3.2797
  179SLPC   H6Y20489   3.968   5.531   9.388 -0.2605  0.3856 -2.1038
  179SLPC   C3720490   4.040   5.688   9.268  0.6637 -0.9484 -0.4672
  179SLPC   H7X20491   4.095   5.780   9.299  0.7494 -1.0874 -0.1932
  179SLPC   H7Y20492   3.953   5.723   9.209  1.8535  3.6484  0.1011
  179SLPC   C3820493   4.134   5.603   9.192 -0.1554 -0.0010 -1.2929
  179SLPC   H8X20494   4.076   5.515   9.157 -1.0036 -0.3216  0.7624
  179SLPC   H8Y20495   4.219   5.577   9.257 -1.3376  1.2857  0.8891
  179SLPC   C3920496   4.191   5.670   9.065  0.1539 -0.0495  0.1809
  179SLPC   H9X20497   4.261   5.594   9.024 -1.3519 -0.8219 -1.0231
  179SLPC   H9Y20498   4.244   5.765   9.091 -2.9953  1.5255  1.3641
  179SLPC  C31020499   4.093   5.688   8.948 -1.1337 -0.6570  0.3853
  179SLPC  H10X20500   4.001   5.748   8.968 -0.9190  0.9193 -2.7540
  179SLPC  H10Y20501   4.060   5.586   8.917 -0.9214  0.0416 -2.4496
  179SLPC  C31120502   4.146   5.753   8.828  0.2427  0.5362  0.7301
  179SLPC  H11X20503   4.207   5.841   8.858  1.8766 -0.2183 -0.1883
  179SLPC  H11Y20504   4.063   5.763   8.755 -1.4046  1.8231  2.6709
  179SLPC  C31220505   4.256   5.677   8.757 -0.9086 -0.3789  0.4092
  179SLPC  H12X20506   4.226   5.571   8.743  2.0318 -1.0833 -1.4407
  179SLPC  H12Y20507   4.353   5.672   8.813 -1.3254 -0.8384  1.1128
  179SLPC  C31320508   4.285   5.741   8.619  0.3967  0.3510  0.4178
  179SLPC  H13X20509   4.323   5.845   8.624 -0.6610  0.8329 -0.8677
  179SLPC  H13Y20510   4.185   5.743   8.571  0.8030 -0.9550 -0.5554
  179SLPC  C31420511   4.374   5.654   8.522  0.5066 -0.0339 -1.0099
  179SLPC  H14X20512   4.329   5.552   8.513 -0.8409  0.2855  1.2957
  179SLPC  H14Y20513   4.479   5.646   8.556 -0.0247  0.5716  0.9085
  179SLPC  C31520514   4.367   5.701   8.378 -0.2406 -0.4907  0.1500
  179SLPC  H15X20515   4.403   5.806   8.362 -1.2713 -0.2467 -0.6547
  179SLPC  H15Y20516   4.262   5.687   8.346 -0.4825 -1.6730  1.3395
  179SLPC  C31620517   4.453   5.614   8.279 -0.0378  0.3297  0.2833
  179SLPC  H16X20518   4.405   5.519   8.247  0.6018  0.4555 -1.1149
  179SLPC  H16Y20519   4.550   5.603   8.332  0.7535  1.4280 -0.8956
  179SLPC  C31720520   4.485   5.683   8.147 -0.3651 -0.8746  0.1044
  179SLPC  H17X20521   4.555   5.623   8.085 -0.4580  0.5506 -1.4750
  179SLPC  H17Y20522   4.534   5.782   8.164 -3.1164  0.2522  2.2760
  179SLPC  C31820523   4.361   5.702   8.060 -0.1030 -0.0850 -0.8027
  179SLPC  H18X20524   4.287   5.758   8.122 -0.5524 -1.8403  0.3194
  179SLPC  H18Y20525   4.308   5.608   8.032 -1.9331  0.6777 -0.1039
  179SLPC  H18Z20526   4.378   5.760   7.967 -1.6216  0.3712 -0.8226
  180SLPC     N20527   4.175   3.230  10.941 -0.1671  0.4111 -0.1877
  180SLPC   C1320528   4.254   3.331  11.024 -0.3412 -0.0585 -0.5641
  180SLPC  H13A20529   4.236   3.319  11.130 -1.5419  1.6363 -0.5251
  180SLPC  H13B20530   4.361   3.330  11.009 -0.3538 -0.6766 -0.6223
  180SLPC  H13C20531   4.236   3.437  11.009  3.0919  1.2432  2.7019
  180SLPC   C1420532   4.033   3.243  10.978 -0.2545  1.0235 -0.4266
  180SLPC  H14A20533   3.990   3.322  10.918  3.0426  1.0513 -3.0722
  180SLPC  H14B20534   3.991   3.144  10.966 -2.4259  1.7774  0.4591
  180SLPC  H14C20535   4.022   3.261  11.084  0.3139  0.1667 -0.2070
  180SLPC   C1520536   4.215   3.099  10.995  0.4875 -0.1145 -0.7285
  180SLPC  H15A20537   4.160   3.015  10.956 -0.5212 -1.7311  3.5896
  180SLPC  H15B20538   4.321   3.092  10.975  0.6033  0.3545 -0.3161
  180SLPC  H15C20539   4.205   3.087  11.102  0.3089  2.2426 -0.4134
  180SLPC   C1220540   4.204   3.249  10.789 -0.4933 -0.9239  0.0193
  180SLPC  H12A20541   4.306   3.215  10.774 -1.1825 -3.1220  0.0600
  180SLPC  H12B20542   4.200   3.356  10.771 -1.7420 -0.9319  0.2209
  180SLPC   C1120543   4.119   3.180  10.679 -0.2562  0.6340  0.2215
  180SLPC  H11A20544   4.156   3.205  10.578 -0.2014  0.8374  0.2913
  180SLPC  H11B20545   4.019   3.227  10.674 -0.9871 -0.8886  0.1737
  180SLPC     P20546   4.246   2.956  10.657  0.3241 -0.0833 -0.4921
  180SLPC   O1320547   4.366   3.004  10.733 -0.1077 -0.2091  0.4637
  180SLPC   O1420548   4.212   2.811  10.678  0.5929 -0.3243 -0.2683
  180SLPC   O1220549   4.128   3.042  10.703  0.0896  0.3258 -0.1602
  180SLPC   O1120550   4.266   2.996  10.502 -0.1022 -0.2686  0.0616
  180SLPC    C120551   4.160   2.981  10.411  0.0586 -0.4964 -0.0086
  180SLPC    HA20552   4.067   3.011  10.464  1.3401  1.4402  1.2676
  180SLPC    HB20553   4.177   3.057  10.331 -0.5517 -1.2466 -0.8775
  180SLPC    C220554   4.150   2.846  10.350 -0.3857 -0.1720 -0.0999
  180SLPC    HS20555   4.142   2.774  10.434 -0.2830  1.4181  1.3307
  180SLPC   O2120556   4.262   2.836  10.264 -0.2438  0.2704 -0.2291
  180SLPC   C2120557   4.347   2.740  10.297  0.1534 -0.2437  0.2036
  180SLPC   O2220558   4.342   2.667  10.395 -0.2882  0.1142  0.3885
  180SLPC   C2220559   4.474   2.738  10.208  0.0066  0.3694  0.4386
  180SLPC   H2R20560   4.501   2.840  10.173  0.6777 -0.3257 -1.1911
  180SLPC   H2S20561   4.555   2.714  10.281  0.3873  0.7941  0.1654
  180SLPC    C320562   4.017   2.829  10.265 -0.5834  0.2341  0.1445
  180SLPC    HX20563   3.997   2.912  10.194  1.5497  0.8856  0.2480
  180SLPC    HY20564   3.939   2.831  10.345 -0.2484  1.2981  0.4615
  180SLPC   O3120565   4.017   2.708  10.182 -0.5509 -0.3561 -1.0059
  180SLPC   C3120566   3.996   2.597  10.248  0.0158  0.2505  0.1851
  180SLPC   O3220567   3.952   2.585  10.362 -0.7728 -0.0520  0.1629
  180SLPC   C3220568   4.032   2.476  10.161  0.0856 -0.1564  0.3762
  180SLPC   H2X20569   4.105   2.413  10.214  0.5980 -0.3821 -0.5736
  180SLPC   H2Y20570   4.078   2.511  10.066 -0.2372 -1.2733 -0.2067
  180SLPC   C2320571   4.459   2.633  10.089  0.8603 -0.2820 -0.0427
  180SLPC   H3R20572   4.417   2.537  10.128  1.4826 -0.7969 -0.6126
  180SLPC   H3S20573   4.558   2.617  10.041  1.6467 -0.7078  1.6515
  180SLPC   C2420574   4.339   2.674   9.995 -0.8569  0.3956  1.0644
  180SLPC   H4R20575   4.241   2.664  10.045 -1.0085  1.8687  1.1115
  180SLPC   H4S20576   4.337   2.596   9.916  2.7720  1.0331  0.1469
  180SLPC   C2520577   4.366   2.806   9.928 -0.3006  0.1987 -0.1208
  180SLPC   H5R20578   4.397   2.802   9.822 -0.0960 -0.9896 -0.0258
  180SLPC   H5S20579   4.444   2.862   9.982  0.2808  1.7982 -2.4841
  180SLPC   C2620580   4.237   2.889   9.940 -0.5954 -0.8353  0.5360
  180SLPC   H6R20581   4.247   2.992   9.899  1.4692 -0.6562  1.3872
  180SLPC   H6S20582   4.207   2.886  10.047 -2.3713  0.1965  0.1162
  180SLPC   C2720583   4.124   2.841   9.851 -0.4432  0.2347  0.0245
  180SLPC   H7R20584   4.092   2.738   9.879 -0.5515 -0.0554 -1.1173
  180SLPC   H7S20585   4.172   2.829   9.751 -1.6973  0.3728 -0.6159
  180SLPC   C2820586   3.999   2.937   9.851  0.1706  0.2898 -0.6344
  180SLPC   H8R20587   4.034   3.038   9.821  0.6968  0.2503 -0.1766
  180SLPC   H8S20588   3.969   2.939   9.958 -3.1959 -0.0324 -1.4821
  180SLPC   C2920589   3.881   2.892   9.780  0.0391 -0.1801  0.2492
  180SLPC   H9R20590   3.807   2.842   9.844  1.2244  0.3078  2.1218
  180SLPC  C21020591   3.885   2.905   9.650 -0.0762  0.0698 -0.0301
  180SLPC  H10R20592   3.800   2.875   9.588  1.4169  0.2300 -2.3231
  180SLPC  C21120593   3.995   2.961   9.562  0.0099  1.1802  0.5577
  180SLPC  H11R20594   4.088   2.989   9.615  0.4525 -0.0949  0.4877
  180SLPC  H11S20595   3.968   3.050   9.502  0.2266  1.2102  0.5065
  180SLPC  C21220596   4.016   2.854   9.451  0.4386 -0.6682 -0.3772
  180SLPC  H12R20597   3.930   2.852   9.384 -0.4642  2.2940  0.5562
  180SLPC  C21320598   4.129   2.793   9.418  0.2518 -1.0138 -0.3063
  180SLPC  H13R20599   4.136   2.723   9.333  4.7481 -0.1445 -0.8806
  180SLPC  C21420600   4.268   2.827   9.485 -0.1235 -0.2752  0.1938
  180SLPC  H14R20601   4.303   2.739   9.544  1.3114  1.6020  2.3007
  180SLPC  H14S20602   4.256   2.907   9.560 -0.0047 -1.9180  2.0390
  180SLPC  C21520603   4.380   2.868   9.384  0.9677 -0.1502 -0.8542
  180SLPC  H15R20604   4.349   2.956   9.324  2.3227  0.0467 -1.2963
  180SLPC  H15S20605   4.385   2.792   9.303 -2.6324 -1.7103  0.1936
  180SLPC  C21620606   4.506   2.908   9.466  0.1627  1.2627  0.4365
  180SLPC  H16R20607   4.525   2.837   9.549  0.2143 -2.6870 -2.6620
  180SLPC  H16S20608   4.512   3.013   9.503  0.4921  1.4727 -0.1999
  180SLPC  C21720609   4.634   2.898   9.374 -1.2500 -0.4305 -0.4857
  180SLPC  H17R20610   4.633   2.804   9.314 -0.0090 -1.1775  0.5895
  180SLPC  H17S20611   4.717   2.886   9.447 -1.2809  2.3456  0.0965
  180SLPC  C21820612   4.658   3.023   9.279  0.3252 -0.2232 -0.1207
  180SLPC  H18R20613   4.708   3.007   9.181 -0.8170 -0.7274 -0.6377
  180SLPC  H18S20614   4.711   3.106   9.331  0.2376 -0.6005  0.5809
  180SLPC  H18T20615   4.559   3.065   9.250  0.4990  0.4171  0.1959
  180SLPC   C3320616   3.914   2.385  10.126  0.4426 -0.3556  0.4727
  180SLPC   H3X20617   3.868   2.362  10.224  0.1310  1.5728  0.8140
  180SLPC   H3Y20618   3.962   2.290  10.095  0.9082 -0.4691  1.5207
  180SLPC   C3420619   3.815   2.438  10.021 -0.7118  0.0034 -0.0574
  180SLPC   H4X20620   3.776   2.541  10.035 -1.7271  0.1319 -3.0035
  180SLPC   H4Y20621   3.726   2.371  10.022 -0.2281 -0.6533 -0.0911
  180SLPC   C3520622   3.872   2.430   9.875 -0.4838 -0.6427  0.0120
  180SLPC   H5X20623   3.873   2.319   9.863  2.2483 -0.9007  1.8264
  180SLPC   H5Y20624   3.977   2.465   9.878 -0.3221 -1.1882  1.3449
  180SLPC   C3620625   3.793   2.510   9.771  0.7034  0.1503 -0.3357
  180SLPC   H6X20626   3.796   2.614   9.810  0.4820 -0.0843  0.3313
  180SLPC   H6Y20627   3.686   2.480   9.761  0.8329 -0.2075 -0.6832
  180SLPC   C3720628   3.850   2.514   9.632 -0.1307 -0.4736 -0.0993
  180SLPC   H7X20629   3.959   2.528   9.648  0.6169 -2.9210 -2.3510
  180SLPC   H7Y20630   3.799   2.602   9.588  0.1236  0.4630  1.3972
  180SLPC   C3820631   3.838   2.393   9.537 -0.3559  0.4289 -0.4582
  180SLPC   H8X20632   3.730   2.370   9.523 -0.1249 -0.9537 -0.0811
  180SLPC   H8Y20633   3.881   2.306   9.590  3.1320 -0.1352 -3.7886
  180SLPC   C3920634   3.905   2.414   9.398 -0.1957  0.6968 -0.1706
  180SLPC   H9X20635   3.927   2.312   9.362  1.9014  0.9392  0.2988
  180SLPC   H9Y20636   4.006   2.452   9.424 -0.9597  0.4010  3.8780
  180SLPC  C31020637   3.829   2.500   9.292 -0.2121  0.4875 -0.6371
  180SLPC  H10X20638   3.820   2.602   9.335  1.3110 -0.1696  1.3857
  180SLPC  H10Y20639   3.726   2.462   9.277  0.5145 -2.6673  1.4821
  180SLPC  C31120640   3.902   2.528   9.158  0.6540 -0.5540  0.1415
  180SLPC  H11X20641   4.011   2.548   9.170  0.7506  0.3955 -1.8183
  180SLPC  H11Y20642   3.859   2.610   9.096 -3.0644 -0.8272  2.1152
  180SLPC  C31220643   3.884   2.393   9.080  0.1744  0.1637  0.0880
  180SLPC  H12X20644   3.774   2.372   9.076  0.4055 -1.0513 -0.5828
  180SLPC  H12Y20645   3.924   2.312   9.144 -3.0121 -0.6466  1.2568
  180SLPC  C31320646   3.935   2.381   8.933 -0.2388 -0.0713  0.2256
  180SLPC  H13X20647   3.920   2.279   8.892  0.3670 -0.6917  1.5106
  180SLPC  H13Y20648   4.046   2.389   8.938 -0.0913  1.0162 -2.7472
  180SLPC  C31420649   3.875   2.486   8.839 -0.5817 -0.4619 -0.5749
  180SLPC  H14X20650   3.925   2.502   8.741 -1.4087  2.5238 -0.6055
  180SLPC  H14Y20651   3.907   2.586   8.875 -1.2197 -1.0082  1.6867
  180SLPC  C31520652   3.724   2.485   8.810 -0.4896 -0.5988  0.4303
  180SLPC  H15X20653   3.661   2.487   8.902  1.1799  3.3077  1.7354
  180SLPC  H15Y20654   3.699   2.392   8.755 -0.5939 -0.2268 -0.1664
  180SLPC  C31620655   3.668   2.606   8.727 -0.5881  0.1333  0.3687
  180SLPC  H16X20656   3.724   2.624   8.634  0.6912  0.0542  1.1018
  180SLPC  H16Y20657   3.671   2.703   8.782 -0.0081  0.4121 -0.1496
  180SLPC  C31720658   3.524   2.577   8.693 -0.3738 -0.0390  0.3502
  180SLPC  H17X20659   3.466   2.570   8.788 -1.7504  3.3113 -0.1336
  180SLPC  H17Y20660   3.505   2.479   8.644  0.6287  0.3236 -0.8150
  180SLPC  C31820661   3.460   2.687   8.601  0.8595  0.3370  0.6906
  180SLPC  H18X20662   3.469   2.785   8.653 -0.9652  0.4453  0.8816
  180SLPC  H18Y20663   3.357   2.660   8.569  1.1607  1.3259 -1.2672
  180SLPC  H18Z20664   3.524   2.679   8.511 -1.0351 -1.9580 -0.5676
  181SLPC     N20665   6.012   2.483  10.850 -0.6160 -0.5025 -0.3790
  181SLPC   C1320666   6.021   2.581  10.741 -0.1685 -0.2059  0.5443
  181SLPC  H13A20667   6.053   2.676  10.781  0.2678  0.6839 -1.7663
  181SLPC  H13B20668   6.098   2.545  10.675  0.5441 -1.3798  1.9798
  181SLPC  H13C20669   5.927   2.603  10.693 -0.5786  0.3131  1.5535
  181SLPC   C1420670   5.988   2.344  10.801  0.6472 -0.5449 -0.1371
  181SLPC  H14A20671   5.905   2.357  10.733  0.0583  0.3479  0.7200
  181SLPC  H14B20672   6.081   2.309  10.758 -0.0459 -3.2273  0.3976
  181SLPC  H14C20673   5.958   2.282  10.884  0.6097  0.8136  0.9080
  181SLPC   C1520674   5.889   2.523  10.925 -0.8184  0.0436  0.5599
  181SLPC  H15A20675   5.882   2.630  10.938  0.0838  0.2830 -0.7870
  181SLPC  H15B20676   5.802   2.486  10.873  0.6044  0.2212 -2.1119
  181SLPC  H15C20677   5.887   2.480  11.025  1.5842 -1.2662  0.1129
  181SLPC   C1220678   6.130   2.490  10.947 -0.2417 -0.0201  0.1367
  181SLPC  H12A20679   6.098   2.424  11.026 -1.0078 -0.6098 -0.6521
  181SLPC  H12B20680   6.139   2.591  10.983 -0.0562  0.3245 -0.8502
  181SLPC   C1120681   6.268   2.437  10.907  0.2075 -0.6556 -0.2770
  181SLPC  H11A20682   6.338   2.437  10.994 -0.1702 -0.3767  0.0338
  181SLPC  H11B20683   6.310   2.503  10.829 -2.4751  1.5426 -0.0189
  181SLPC     P20684   6.379   2.237  10.793 -0.5151  0.2277  0.3390
  181SLPC   O1320685   6.501   2.311  10.827  0.1442  0.4713 -0.0326
  181SLPC   O1420686   6.382   2.092  10.797  0.2015  0.0341 -0.2363
  181SLPC   O1220687   6.259   2.306  10.865 -0.0143 -0.0710  0.2213
  181SLPC   O1120688   6.331   2.276  10.652 -0.0227  0.0169  0.3577
  181SLPC    C120689   6.336   2.192  10.532 -0.0923 -0.2879 -0.2089
  181SLPC    HA20690   6.441   2.184  10.496 -0.1043 -0.8734 -0.1157
  181SLPC    HB20691   6.287   2.096  10.557 -0.3353 -0.7745 -2.3157
  181SLPC    C220692   6.251   2.258  10.416  0.5110 -0.2787 -0.6376
  181SLPC    HS20693   6.145   2.230  10.438  0.6905  0.9138  2.2443
  181SLPC   O2120694   6.303   2.231  10.281 -0.2417 -0.1851 -0.2949
  181SLPC   C2120695   6.253   2.110  10.242 -0.5711 -0.9599  0.0155
  181SLPC   O2220696   6.190   2.036  10.313  0.1686  0.2409  0.5170
  181SLPC   C2220697   6.304   2.074  10.101  0.0730  0.6080 -0.1170
  181SLPC   H2R20698   6.403   2.123  10.087  1.5426 -2.1035  0.2548
  181SLPC   H2S20699   6.324   1.965  10.090 -0.5490  0.4524  0.2603
  181SLPC    C320700   6.259   2.412  10.438 -0.7075  0.5198 -0.3009
  181SLPC    HX20701   6.368   2.433  10.438 -0.1899 -1.7834  1.3908
  181SLPC    HY20702   6.218   2.432  10.539 -4.4123 -0.4198 -1.4743
  181SLPC   O3120703   6.177   2.476  10.344  0.5888 -0.6646  0.6359
  181SLPC   C3120704   6.047   2.475  10.346 -0.0732 -0.3739 -0.1328
  181SLPC   O3220705   5.980   2.406  10.421  0.7697 -0.2749  0.6384
  181SLPC   C3220706   6.001   2.560  10.225 -0.1964 -0.0252  0.4459
  181SLPC   H2X20707   6.087   2.601  10.168  0.1355  0.0324  0.9804
  181SLPC   H2Y20708   5.945   2.655  10.244 -1.1836 -0.1287 -1.6541
  181SLPC   C2320709   6.220   2.138   9.984 -0.0824  0.2612 -0.2280
  181SLPC   H3R20710   6.217   2.249   9.992 -0.8654  0.1370  1.7252
  181SLPC   H3S20711   6.119   2.095   9.969 -0.3034  0.3900  0.8032
  181SLPC   C2420712   6.282   2.096   9.850  0.0590  0.0168 -0.2270
  181SLPC   H4R20713   6.256   1.990   9.831  0.0808  0.3993 -2.8229
  181SLPC   H4S20714   6.392   2.110   9.855  0.2612 -1.5599  0.3344
  181SLPC   C2520715   6.237   2.201   9.746 -0.7108  0.2758 -0.4945
  181SLPC   H5R20716   6.278   2.297   9.784  3.0618 -0.6627 -1.7891
  181SLPC   H5S20717   6.129   2.218   9.726 -0.7105 -0.9820 -1.7312
  181SLPC   C2620718   6.296   2.167   9.610  0.2264 -0.4874 -0.5482
  181SLPC   H6R20719   6.396   2.118   9.609  1.8209  2.1898  3.3926
  181SLPC   H6S20720   6.307   2.259   9.549 -1.0228  1.1715  1.6067
  181SLPC   C2720721   6.200   2.074   9.537  0.2242 -0.2029 -0.4893
  181SLPC   H7R20722   6.097   2.116   9.531  0.7858  1.2398 -0.3381
  181SLPC   H7S20723   6.194   1.986   9.605 -2.5508  0.8338  0.7803
  181SLPC   C2820724   6.257   2.032   9.405 -0.2720  0.1383 -0.0213
  181SLPC   H8R20725   6.309   2.114   9.351  0.0654 -0.5304 -0.7263
  181SLPC   H8S20726   6.168   1.999   9.347  2.5077 -2.6368 -3.1005
  181SLPC   C2920727   6.343   1.904   9.411  0.4456 -0.3385 -0.4905
  181SLPC   H9R20728   6.284   1.821   9.452 -0.2893 -0.0472 -0.9314
  181SLPC  C21020729   6.468   1.886   9.364 -0.2351  0.5312  0.1599
  181SLPC  H10R20730   6.502   1.782   9.368 -1.1483  0.2405  0.5118
  181SLPC  C21120731   6.547   1.980   9.276  0.2157  0.3096 -0.1310
  181SLPC  H11R20732   6.653   1.971   9.309 -0.0394  1.2508  1.0203
  181SLPC  H11S20733   6.520   2.087   9.290 -0.6307 -0.0733  1.4003
  181SLPC  C21220734   6.523   1.937   9.134 -0.0695 -0.6993 -1.0527
  181SLPC  H12R20735   6.418   1.919   9.104 -0.1259  0.4016 -1.5692
  181SLPC  C21320736   6.621   1.912   9.046  0.1207 -0.2320  0.0429
  181SLPC  H13R20737   6.595   1.875   8.946  0.0369  0.8542 -0.3422
  181SLPC  C21420738   6.766   1.956   9.073 -0.2064 -1.0070  0.2206
  181SLPC  H14R20739   6.814   1.873   9.129  0.8536  1.2136  2.8111
  181SLPC  H14S20740   6.778   2.046   9.136 -0.3820 -1.9454  1.6471
  181SLPC  C21520741   6.832   1.991   8.933 -0.4529  0.8047  0.1882
  181SLPC  H15R20742   6.825   1.906   8.861  2.8222  0.4822  0.1365
  181SLPC  H15S20743   6.942   1.999   8.944 -0.3017 -0.8155  0.1606
  181SLPC  C21620744   6.770   2.110   8.859  0.0020 -0.7886  0.2063
  181SLPC  H16R20745   6.814   2.205   8.894 -0.6461 -0.3735 -0.0858
  181SLPC  H16S20746   6.661   2.105   8.881  0.2217 -2.3872  1.1241
  181SLPC  C21720747   6.798   2.095   8.711 -0.3487 -0.4789  0.6853
  181SLPC  H17R20748   6.743   2.168   8.648  3.6709  1.3904 -1.0630
  181SLPC  H17S20749   6.754   1.999   8.678  0.5671 -0.2544 -1.3804
  181SLPC  C21820750   6.950   2.101   8.688  0.2618  0.0298  0.1963
  181SLPC  H18R20751   6.999   2.007   8.720 -0.3471 -0.4064 -0.1257
  181SLPC  H18S20752   7.002   2.182   8.744  1.6070  0.2447 -1.2839
  181SLPC  H18T20753   6.976   2.114   8.581 -1.2318  0.5511 -0.1196
  181SLPC   C3320754   5.903   2.486  10.125  0.4162  0.2013  0.7701
  181SLPC   H3X20755   5.873   2.566  10.054 -1.9618 -1.2675  0.0155
  181SLPC   H3Y20756   5.810   2.451  10.175 -0.2208  0.0778 -0.4644
  181SLPC   C3420757   5.977   2.380  10.037 -0.2792 -0.3167 -0.4553
  181SLPC   H4X20758   5.997   2.298  10.109  0.4892 -0.3973 -0.7525
  181SLPC   H4Y20759   6.083   2.409  10.023 -0.3381 -0.0234 -0.2887
  181SLPC   C3520760   5.902   2.326   9.921 -0.1521 -0.9280  0.1319
  181SLPC   H5X20761   5.793   2.327   9.944 -0.2000 -2.0502 -0.0009
  181SLPC   H5Y20762   5.932   2.221   9.902 -0.7687 -1.2476  0.8741
  181SLPC   C3620763   5.926   2.394   9.784 -0.3551 -0.6944  0.6866
  181SLPC   H6X20764   6.033   2.418   9.767 -1.1353  3.2255  0.4641
  181SLPC   H6Y20765   5.885   2.497   9.780 -1.7427 -1.2483 -0.6940
  181SLPC   C3720766   5.864   2.312   9.676 -0.1054  0.0616 -0.1384
  181SLPC   H7X20767   5.758   2.341   9.659  0.2954  1.7266 -0.0286
  181SLPC   H7Y20768   5.886   2.204   9.684 -1.3219 -0.1287  0.9502
  181SLPC   C3820769   5.925   2.349   9.540 -0.4598 -0.3048  0.3718
  181SLPC   H8X20770   6.036   2.352   9.536 -0.4133  2.8326  0.8322
  181SLPC   H8Y20771   5.899   2.453   9.511  1.0393 -0.5353 -2.0658
  181SLPC   C3920772   5.864   2.268   9.430  0.1220 -0.4784  0.2547
  181SLPC   H9X20773   5.755   2.266   9.453  0.1847 -2.7163  0.5878
  181SLPC   H9Y20774   5.899   2.162   9.427 -1.0016 -0.8407 -2.3498
  181SLPC  C31020775   5.873   2.331   9.298 -0.4593  0.3288 -0.3084
  181SLPC  H10X20776   5.874   2.442   9.306 -0.5690  0.3705 -0.8150
  181SLPC  H10Y20777   5.790   2.296   9.233  0.5367  0.9643 -1.9892
  181SLPC  C31120778   6.012   2.295   9.228 -0.0167 -0.2996 -0.0548
  181SLPC  H11X20779   6.028   2.186   9.216  3.2009  0.1163 -0.4391
  181SLPC  H11Y20780   6.094   2.331   9.294  2.3539 -1.6821 -2.0425
  181SLPC  C31220781   6.021   2.340   9.076 -0.3252 -0.0911 -0.4136
  181SLPC  H12X20782   5.926   2.309   9.027 -0.4910 -1.7549  0.8681
  181SLPC  H12Y20783   6.110   2.292   9.029  0.2101  0.7999 -0.3157
  181SLPC  C31320784   6.050   2.487   9.052  0.4802 -0.0714 -0.3009
  181SLPC  H13X20785   6.143   2.509   9.109 -0.0244  3.1232 -0.5124
  181SLPC  H13Y20786   5.964   2.553   9.078  1.3835  0.9226  0.2473
  181SLPC  C31420787   6.076   2.520   8.903  0.6948  0.2209  0.0804
  181SLPC  H14X20788   5.981   2.526   8.846 -0.7799  0.7428  2.4603
  181SLPC  H14Y20789   6.148   2.450   8.857  1.8145 -1.1419  3.5567
  181SLPC  C31520790   6.124   2.662   8.895  0.2037 -0.1532 -0.6241
  181SLPC  H15X20791   6.228   2.660   8.935 -0.3374 -1.8324  0.8675
  181SLPC  H15Y20792   6.075   2.720   8.976 -1.8759 -3.0297  0.3498
  181SLPC  C31620793   6.122   2.723   8.755  0.3680 -0.2628 -0.0152
  181SLPC  H16X20794   6.152   2.830   8.761 -2.4122  0.7420 -1.8878
  181SLPC  H16Y20795   6.018   2.727   8.716  1.2306  2.7983 -2.4599
  181SLPC  C31720796   6.219   2.657   8.655  0.5136  0.2853 -0.0547
  181SLPC  H17X20797   6.193   2.551   8.635  0.6084  0.0721  0.9104
  181SLPC  H17Y20798   6.320   2.670   8.700 -0.2784  2.4854  1.2509
  181SLPC  C31820799   6.217   2.733   8.521  0.1432  0.0701 -0.4383
  181SLPC  H18X20800   6.247   2.838   8.543  2.0373 -0.5377  0.0217
  181SLPC  H18Y20801   6.113   2.742   8.483  0.0174  0.9661  0.0741
  181SLPC  H18Z20802   6.285   2.688   8.446  1.0394 -2.2340  1.5986
  182SLPC     N20803   4.241   0.369  11.207 -0.4526  0.6145  0.0808
  182SLPC   C1320804   4.109   0.391  11.149  0.6223 -0.4025  0.2146
  182SLPC  H13A20805   4.099   0.359  11.046  0.2976  2.7636 -0.8641
  182SLPC  H13B20806   4.026   0.347  11.202 -0.8996  3.8264  1.7827
  182SLPC  H13C20807   4.089   0.497  11.142  0.5327 -0.3185  1.5945
  182SLPC   C1420808   4.261   0.226  11.254 -0.4519  0.2841  0.6158
  182SLPC  H14A20809   4.365   0.208  11.274 -0.0675  0.7569 -0.8272
  182SLPC  H14B20810   4.207   0.205  11.345 -0.2106 -1.0662  0.4633
  182SLPC  H14C20811   4.239   0.155  11.176  1.9266 -0.0660  0.1891
  182SLPC   C1520812   4.264   0.468  11.323  0.1720  0.2778 -0.3223
  182SLPC  H15A20813   4.250   0.568  11.285  0.6131 -0.0703 -1.4210
  182SLPC  H15B20814   4.195   0.444  11.403 -0.3934 -0.2078 -0.9491
  182SLPC  H15C20815   4.365   0.471  11.361 -0.1966 -0.9077  0.8174
  182SLPC   C1220816   4.344   0.391  11.098 -0.7222 -0.3565  0.0677
  182SLPC  H12A20817   4.321   0.478  11.038  2.3592  0.9200  0.5279
  182SLPC  H12B20818   4.334   0.301  11.040 -0.1429 -1.0785  1.0532
  182SLPC   C1120819   4.492   0.408  11.150  0.0864  0.0343 -0.6761
  182SLPC  H11A20820   4.568   0.370  11.078 -0.8241 -1.5205 -0.8394
  182SLPC  H11B20821   4.503   0.341  11.238  0.0119  0.7906 -0.0682
  182SLPC     P20822   4.648   0.617  11.187 -0.2531 -0.0032  0.2740
  182SLPC   O1320823   4.641   0.709  11.304 -0.5355 -0.3513 -0.1454
  182SLPC   O1420824   4.757   0.520  11.205 -0.2789 -0.4961  0.5379
  182SLPC   O1220825   4.511   0.538  11.193 -0.0969  0.4269 -0.2127
  182SLPC   O1120826   4.647   0.690  11.051 -0.2403 -0.0817  0.2404
  182SLPC    C120827   4.509   0.731  11.005  0.7766 -0.2761 -1.0176
  182SLPC    HA20828   4.456   0.644  10.960 -3.2038  0.8952  0.8998
  182SLPC    HB20829   4.449   0.771  11.090 -1.9879 -1.7350 -2.1348
  182SLPC    C220830   4.518   0.845  10.903  0.2040 -0.6064 -0.0936
  182SLPC    HS20831   4.415   0.878  10.878  0.6861  0.8961 -0.2230
  182SLPC   O2120832   4.606   0.815  10.789 -0.4956  0.2171  0.1729
  182SLPC   C2120833   4.550   0.838  10.671 -0.0151 -0.3765 -0.2018
  182SLPC   O2220834   4.430   0.857  10.652 -0.2308 -0.9386 -0.1550
  182SLPC   C2220835   4.649   0.809  10.556  0.0954 -0.0094  0.5178
  182SLPC   H2R20836   4.737   0.873  10.576  0.1191  1.4622 -3.5305
  182SLPC   H2S20837   4.669   0.699  10.558 -1.4506 -0.3475 -0.5926
  182SLPC    C320838   4.581   0.968  10.978 -0.1791 -0.1383 -0.4975
  182SLPC    HX20839   4.666   0.929  11.038 -1.3992 -2.5618 -0.2434
  182SLPC    HY20840   4.505   1.010  11.047 -1.6029 -0.3798 -1.8546
  182SLPC   O3120841   4.619   1.070  10.890 -0.6451  0.2936  0.6013
  182SLPC   C3120842   4.719   1.147  10.920 -0.5920 -0.1719  0.0173
  182SLPC   O3220843   4.799   1.129  11.009  0.1415 -0.3720 -0.5273
  182SLPC   C3220844   4.741   1.243  10.803 -0.0896 -0.3633 -0.2499
  182SLPC   H2X20845   4.836   1.293  10.831 -0.5016 -0.2972  1.1412
  182SLPC   H2Y20846   4.666   1.325  10.798 -0.3178 -0.6310 -1.5422
  182SLPC   C2320847   4.600   0.866  10.424 -0.3347 -0.0253  0.4124
  182SLPC   H3R20848   4.596   0.977  10.428  1.1420  0.1493 -1.4011
  182SLPC   H3S20849   4.499   0.825  10.403  0.1626 -0.0808 -2.3156
  182SLPC   C2420850   4.685   0.825  10.308  0.1924 -0.0095  0.8729
  182SLPC   H4R20851   4.716   0.719  10.302 -0.6735 -0.2690  0.8844
  182SLPC   H4S20852   4.783   0.879  10.305  0.0552  0.2152  0.3806
  182SLPC   C2520853   4.612   0.871  10.181  0.4315 -0.5481  0.1679
  182SLPC   H5R20854   4.558   0.967  10.196  0.1693  0.0167 -3.4697
  182SLPC   H5S20855   4.530   0.797  10.169  0.1812 -0.1094 -1.0122
  182SLPC   C2620856   4.688   0.888  10.049 -0.2490 -0.4737  0.4243
  182SLPC   H6R20857   4.782   0.828  10.050  3.3335  4.3413 -2.8896
  182SLPC   H6S20858   4.725   0.992  10.041  1.9594 -1.2618 -0.5489
  182SLPC   C2720859   4.605   0.838   9.925  0.4432 -0.4039 -0.6199
  182SLPC   H7R20860   4.503   0.883   9.923  0.6421  0.2350  1.4153
  182SLPC   H7S20861   4.585   0.729   9.936 -1.5836  0.0378  0.4980
  182SLPC   C2820862   4.675   0.867   9.795  0.1351 -0.4093  0.1658
  182SLPC   H8R20863   4.655   0.782   9.726  0.1647 -1.5540  1.5245
  182SLPC   H8S20864   4.784   0.862   9.814  0.8147  2.4041 -2.2329
  182SLPC   C2920865   4.646   1.010   9.739 -0.5589  0.1845  0.4853
  182SLPC   H9R20866   4.586   1.073   9.806  1.2457 -0.1292  2.4905
  182SLPC  C21020867   4.688   1.042   9.613  0.5182 -0.6759  0.3701
  182SLPC  H10R20868   4.662   1.131   9.555  0.6369 -1.7976 -1.4850
  182SLPC  C21120869   4.774   0.947   9.531 -0.4863 -0.0395  0.9038
  182SLPC  H11R20870   4.715   0.872   9.474  0.0781 -0.5262  0.9474
  182SLPC  H11S20871   4.833   0.878   9.596 -0.3158  1.1717  2.0646
  182SLPC  C21220872   4.872   1.022   9.440 -0.0061  0.7277  0.2783
  182SLPC  H12R20873   4.956   1.071   9.490  0.0308  0.4683  0.4771
  182SLPC  C21320874   4.868   1.029   9.305  0.1784  0.8081  0.0187
  182SLPC  H13R20875   4.947   1.080   9.248 -0.3707 -0.4474 -1.9992
  182SLPC  C21420876   4.760   0.966   9.218  0.0670 -0.8513  0.7080
  182SLPC  H14R20877   4.676   0.925   9.278 -2.0098  0.4816 -1.1244
  182SLPC  H14S20878   4.807   0.889   9.153  1.6857  1.6577 -1.3024
  182SLPC  C21520879   4.713   1.085   9.146 -0.1996  0.3415 -0.2977
  182SLPC  H15R20880   4.800   1.114   9.083  1.6411 -3.6780  0.0637
  182SLPC  H15S20881   4.684   1.167   9.216  2.1430  0.4886  0.6050
  182SLPC  C21620882   4.607   1.044   9.051  0.0484 -0.6685 -0.0295
  182SLPC  H16R20883   4.514   1.027   9.109 -0.4988  2.0006  0.0098
  182SLPC  H16S20884   4.626   0.952   8.991  2.1392  0.1393 -0.6931
  182SLPC  C21720885   4.570   1.146   8.944 -0.0293  0.4766  0.3328
  182SLPC  H17R20886   4.624   1.125   8.849  1.4530 -2.2401  1.6551
  182SLPC  H17S20887   4.606   1.244   8.983 -2.0926  1.6531 -0.5687
  182SLPC  C21820888   4.426   1.168   8.910 -0.6976 -0.1431 -0.0740
  182SLPC  H18R20889   4.413   1.249   8.836  3.0863  0.4178 -0.3162
  182SLPC  H18S20890   4.376   1.197   9.005 -1.6799  2.6139 -1.3413
  182SLPC  H18T20891   4.377   1.077   8.868  1.6342 -1.4997  0.0042
  182SLPC   C3320892   4.751   1.172  10.660 -0.2355  0.2785 -0.0347
  182SLPC   H3X20893   4.657   1.123  10.627 -0.4208 -0.9646  2.1194
  182SLPC   H3Y20894   4.839   1.104  10.668  0.8357  1.6574  0.3370
  182SLPC   C3420895   4.788   1.283  10.562 -0.5352 -0.3254  0.0801
  182SLPC   H4X20896   4.886   1.330  10.585 -0.3241 -0.2661 -0.8965
  182SLPC   H4Y20897   4.713   1.363  10.576 -1.2812 -0.7598 -1.2245
  182SLPC   C3520898   4.786   1.233  10.417  0.3345 -0.2493  0.5596
  182SLPC   H5X20899   4.690   1.179  10.407  0.7313 -0.6199 -1.8702
  182SLPC   H5Y20900   4.855   1.146  10.409 -1.1018 -1.4901  1.3052
  182SLPC   C3620901   4.803   1.338  10.299 -0.0631 -0.1064  0.5077
  182SLPC   H6X20902   4.906   1.377  10.316  0.2204 -0.6280  0.0347
  182SLPC   H6Y20903   4.729   1.420  10.313 -1.3229 -0.9471 -0.9605
  182SLPC   C3720904   4.795   1.287  10.163  0.3021  0.3057  0.5331
  182SLPC   H7X20905   4.697   1.238  10.142  0.6295  0.5279 -1.8425
  182SLPC   H7Y20906   4.877   1.212  10.156  0.8596  0.7431  2.0357
  182SLPC   C3820907   4.814   1.392  10.049  0.2341 -0.3715 -0.5544
  182SLPC   H8X20908   4.899   1.457  10.076  0.2938 -0.0198 -1.5541
  182SLPC   H8Y20909   4.721   1.449  10.027  1.4239  1.5792 -0.7496
  182SLPC   C3920910   4.845   1.333   9.907  0.0280  0.3639 -0.2279
  182SLPC   H9X20911   4.769   1.254   9.890 -1.2773  1.4040  0.4726
  182SLPC   H9Y20912   4.947   1.291   9.898  0.9538  2.4500 -0.0958
  182SLPC  C31020913   4.817   1.446   9.807 -0.0240  0.1849  0.1852
  182SLPC  H10X20914   4.888   1.529   9.826  2.1483 -1.1326 -1.5289
  182SLPC  H10Y20915   4.721   1.499   9.822 -0.3310 -0.3083  0.0021
  182SLPC  C31120916   4.816   1.392   9.665 -0.2047  0.4851  0.4451
  182SLPC  H11X20917   4.736   1.317   9.648 -1.3282  1.5591  0.8409
  182SLPC  H11Y20918   4.911   1.338   9.644 -1.9258 -1.3123 -3.8506
  182SLPC  C31220919   4.804   1.500   9.551  0.5156  0.1284  0.2521
  182SLPC  H12X20920   4.887   1.573   9.556 -0.6580  1.4465  1.7422
  182SLPC  H12Y20921   4.706   1.550   9.566  0.6266  0.1747  0.8482
  182SLPC  C31320922   4.816   1.429   9.417  0.3786 -0.6088  0.0242
  182SLPC  H13X20923   4.729   1.364   9.394  0.4761 -1.3500  1.5904
  182SLPC  H13Y20924   4.911   1.371   9.418  0.9037  0.2288 -0.3391
  182SLPC  C31420925   4.833   1.537   9.306  0.2914 -0.2726 -0.0552
  182SLPC  H14X20926   4.922   1.602   9.316 -0.6126  1.5313 -2.6464
  182SLPC  H14Y20927   4.733   1.586   9.308 -0.0949 -1.0577  0.4223
  182SLPC  C31520928   4.864   1.459   9.176  0.2060  0.3987  0.2384
  182SLPC  H15X20929   4.776   1.392   9.162 -0.0114  1.1737 -2.9312
  182SLPC  H15Y20930   4.950   1.395   9.205  0.5894  1.2574  1.0649
  182SLPC  C31620931   4.877   1.545   9.052  0.3791 -1.0725  0.4775
  182SLPC  H16X20932   4.931   1.640   9.073  2.1336 -0.7802 -4.1166
  182SLPC  H16Y20933   4.777   1.577   9.017 -0.2418 -0.5220  2.6689
  182SLPC  C31720934   4.949   1.480   8.935  0.3806  0.4341 -0.0606
  182SLPC  H17X20935   4.902   1.380   8.925 -2.3444  1.4175  1.7783
  182SLPC  H17Y20936   5.056   1.460   8.957 -0.2890 -2.3303  1.0786
  182SLPC  C31820937   4.928   1.545   8.795  0.1899 -0.8270  0.3524
  182SLPC  H18X20938   4.827   1.534   8.750  0.0891  2.9037 -0.7350
  182SLPC  H18Y20939   5.002   1.510   8.721 -1.6364 -3.2272 -0.4659
  182SLPC  H18Z20940   4.949   1.654   8.803  2.5768 -1.0822 -1.4502
  183SLPC     N20941   0.684   3.478  10.476  0.7776 -0.1316  0.1074
  183SLPC   C1320942   0.670   3.586  10.571 -0.0597 -0.2139  0.2411
  183SLPC  H13A20943   0.655   3.550  10.671 -2.6809 -1.0384 -0.3814
  183SLPC  H13B20944   0.753   3.655  10.569 -0.7970  0.6733 -0.9438
  183SLPC  H13C20945   0.585   3.644  10.541  0.9393  1.2939  0.2231
  183SLPC   C1420946   0.560   3.392  10.492  0.4280 -0.2114 -0.3141
  183SLPC  H14A20947   0.562   3.336  10.584  1.1077  2.1101  1.1468
  183SLPC  H14B20948   0.472   3.452  10.472 -0.6913 -1.6786 -0.0334
  183SLPC  H14C20949   0.553   3.313  10.418 -0.4418 -0.1850 -0.2786
  183SLPC   C1520950   0.799   3.386  10.506 -0.4974  0.2841  0.8233
  183SLPC  H15A20951   0.813   3.322  10.420  0.3376  0.0269  1.1434
  183SLPC  H15B20952   0.897   3.429  10.519  1.1122 -3.2050  1.5519
  183SLPC  H15C20953   0.795   3.314  10.586  1.9678  0.2402  0.9807
  183SLPC   C1220954   0.697   3.536  10.331  0.2204 -0.1575 -0.9163
  183SLPC  H12A20955   0.608   3.503  10.279 -0.3664 -1.3050  0.7335
  183SLPC  H12B20956   0.781   3.482  10.288 -0.0158 -1.2831 -0.0155
  183SLPC   C1120957   0.727   3.688  10.308  0.1440 -0.3740  0.7666
  183SLPC  H11A20958   0.637   3.752  10.317 -0.9396 -1.4254 -1.6825
  183SLPC  H11B20959   0.746   3.692  10.199  0.2209  0.6339  0.8035
  183SLPC     P20960   0.988   3.713  10.336  0.5120  0.0299  0.0568
  183SLPC   O1320961   1.073   3.828  10.372  0.3750  0.0867 -0.3837
  183SLPC   O1420962   1.020   3.581  10.382  0.4693  0.0725  0.6222
  183SLPC   O1220963   0.835   3.741  10.385  0.1934 -0.1501 -0.4808
  183SLPC   O1120964   0.981   3.705  10.178  0.5934  0.3325  0.4293
  183SLPC    C120965   1.001   3.805  10.080  0.1904 -0.3541 -0.1838
  183SLPC    HA20966   1.099   3.855  10.101  0.0199  1.4483 -3.1608
  183SLPC    HB20967   1.024   3.761   9.981  0.7525 -0.1815 -0.1354
  183SLPC    C220968   0.890   3.918  10.055 -0.3422 -0.0276  0.2482
  183SLPC    HS20969   0.895   3.964  10.156 -1.2510  1.4770 -0.3623
  183SLPC   O2120970   0.765   3.852  10.032  0.0015  0.2706  0.1732
  183SLPC   C2120971   0.663   3.936  10.049  0.0692 -0.2801 -0.0961
  183SLPC   O2220972   0.675   4.049  10.094  0.2228  0.3318  0.1760
  183SLPC   C2220973   0.539   3.873   9.998  0.6141 -0.2909  0.3477
  183SLPC   H2R20974   0.548   3.849   9.890 -0.4032 -0.8473  0.3792
  183SLPC   H2S20975   0.527   3.775  10.049  3.6961  0.4486  2.7982
  183SLPC    C320976   0.937   4.016   9.942  0.7030  0.2309 -0.3040
  183SLPC    HX20977   1.033   4.066   9.967 -0.7667  2.6585  0.9445
  183SLPC    HY20978   0.874   4.107   9.932 -0.6615 -0.5765  0.6452
  183SLPC   O3120979   0.965   3.943   9.816 -0.1245 -0.5966  0.6972
  183SLPC   C3120980   0.869   3.944   9.726  1.2818  0.4135  0.0676
  183SLPC   O3220981   0.767   4.009   9.743 -0.0574 -0.3738  0.3574
  183SLPC   C3220982   0.911   3.884   9.587 -0.0423 -0.7890 -0.4585
  183SLPC   H2X20983   0.893   3.774   9.584  0.1265 -0.8108 -0.6648
  183SLPC   H2Y20984   1.015   3.914   9.565 -0.4020  0.3305 -0.7089
  183SLPC   C2320985   0.405   3.945  10.012  0.5326  0.0467 -0.0956
  183SLPC   H3R20986   0.420   4.049   9.976  1.2503  1.1128  2.9720
  183SLPC   H3S20987   0.395   3.947  10.123  3.4015 -2.5643  0.3321
  183SLPC   C2420988   0.304   3.880   9.926  0.7659 -0.4738  1.0124
  183SLPC   H4R20989   0.337   3.859   9.823 -1.3333 -0.2625  0.2489
  183SLPC   H4S20990   0.221   3.952   9.907  1.5187 -0.1441 -1.2525
  183SLPC   C2520991   0.245   3.739   9.974  0.0534 -0.4564 -0.3846
  183SLPC   H5R20992   0.186   3.746  10.068 -0.0557 -1.7132 -0.3472
  183SLPC   H5S20993   0.340   3.682   9.986 -0.3253 -1.1070 -0.4740
  183SLPC   C2620994   0.149   3.679   9.876  0.4741  0.0517 -0.5103
  183SLPC   H6R20995   0.198   3.677   9.776  1.9897  2.2111  0.1342
  183SLPC   H6S20996   0.050   3.729   9.879  0.0362 -0.8344  0.6558
  183SLPC   C2720997   0.118   3.528   9.904  0.0075 -0.4358 -0.4298
  183SLPC   H7R20998   0.057   3.539   9.996  2.6333 -0.6287  1.4501
  183SLPC   H7S20999   0.211   3.478   9.940 -0.8212 -1.5383  0.2626
  183SLPC   C2821000   0.058   3.453   9.784  0.3506 -0.0355 -0.2161
  183SLPC   H8R21001  -0.003   3.521   9.720  0.4049 -0.9772 -1.3101
  183SLPC   H8S21002  -0.014   3.381   9.829  0.7493 -0.5305 -0.3625
  183SLPC   C2921003   0.149   3.372   9.692 -0.2518  0.0851 -0.4009
  183SLPC   H9R21004   0.240   3.336   9.744 -1.4506 -1.9197  0.4096
  183SLPC  C21021005   0.119   3.325   9.569 -0.8455  0.3437  0.1110
  183SLPC  H10R21006   0.197   3.264   9.522 -0.7151 -1.2037  2.1646
  183SLPC  C21121007  -0.013   3.329   9.498 -0.2900 -0.2263 -0.4335
  183SLPC  H11R21008  -0.098   3.302   9.564 -1.8462  0.6550 -2.0062
  183SLPC  H11S21009  -0.014   3.245   9.425 -1.5941 -0.7240  0.1292
  183SLPC  C21221010  -0.037   3.466   9.433  0.1181  0.1087 -0.0187
  183SLPC  H12R21011  -0.012   3.554   9.495  0.9151 -0.8992  1.1274
  183SLPC  C21321012  -0.077   3.487   9.304 -0.7372 -0.0417 -0.3996
  183SLPC  H13R21013  -0.101   3.586   9.263  0.4299  0.5729  0.3253
  183SLPC  C21421014  -0.108   3.385   9.198 -0.1606 -0.1560  0.4732
  183SLPC  H14R21015  -0.195   3.416   9.137 -0.1333 -1.9035 -0.5188
  183SLPC  H14S21016  -0.136   3.294   9.255  0.8378  0.6232  2.2699
  183SLPC  C21521017   0.013   3.346   9.112 -0.3410  0.5713 -0.0207
  183SLPC  H15R21018  -0.012   3.259   9.047  0.5634  0.1204  0.2278
  183SLPC  H15S21019   0.096   3.306   9.175  0.5700 -1.4891 -2.3497
  183SLPC  C21621020   0.069   3.465   9.032 -0.1766  0.0634 -1.0304
  183SLPC  H16R21021   0.144   3.529   9.084 -0.2772 -0.0063 -0.7985
  183SLPC  H16S21022  -0.010   3.541   9.016 -0.6030 -0.3104 -0.7330
  183SLPC  C21721023   0.120   3.432   8.896 -0.4937 -0.0682  0.7828
  183SLPC  H17R21024   0.035   3.387   8.840  0.7222 -0.4414 -0.8320
  183SLPC  H17S21025   0.194   3.349   8.898 -0.5381 -0.1082  0.7554
  183SLPC  C21821026   0.193   3.547   8.827 -0.0970 -0.2657 -0.1319
  183SLPC  H18R21027   0.293   3.558   8.875 -0.1436  1.9095 -0.4204
  183SLPC  H18S21028   0.142   3.645   8.836  0.9972  0.4869 -1.5984
  183SLPC  H18T21029   0.214   3.531   8.719  3.1954  1.6902  0.0854
  183SLPC   C3321030   0.828   3.937   9.458  0.2154  0.4531 -0.2321
  183SLPC   H3X21031   0.798   4.042   9.480 -0.8527 -0.0906  1.0201
  183SLPC   H3Y21032   0.732   3.882   9.464  1.0753 -0.9756  3.1341
  183SLPC   C3421033   0.907   3.934   9.327  0.4107  0.3065 -0.2019
  183SLPC   H4X21034   0.999   3.994   9.348 -0.0579  0.4957  1.4950
  183SLPC   H4Y21035   0.870   3.992   9.240  2.4494 -2.0950 -2.8254
  183SLPC   C3521036   0.954   3.798   9.278  0.5272  0.1847 -0.5033
  183SLPC   H5X21037   0.864   3.733   9.272 -0.2690  1.1105  0.9810
  183SLPC   H5Y21038   1.015   3.750   9.358 -2.9904  1.5744  3.3949
  183SLPC   C3621039   1.023   3.796   9.147 -0.6458 -0.4706 -0.3502
  183SLPC   H6X21040   0.967   3.848   9.067 -1.1925 -0.9825 -0.3116
  183SLPC   H6Y21041   1.036   3.693   9.106 -0.5399  0.4558 -2.7808
  183SLPC   C3721042   1.169   3.843   9.174  0.3235  0.1523  0.0860
  183SLPC   H7X21043   1.210   3.801   9.269 -0.5338 -1.0231 -0.0375
  183SLPC   H7Y21044   1.159   3.949   9.204 -0.5228  0.1033  0.0213
  183SLPC   C3821045   1.258   3.835   9.059 -0.4596 -0.0178 -0.2933
  183SLPC   H8X21046   1.213   3.863   8.962  2.4057  2.4365 -1.0670
  183SLPC   H8Y21047   1.287   3.730   9.036 -1.6519 -0.4026 -0.1068
  183SLPC   C3921048   1.383   3.925   9.079 -0.2270 -0.3825 -0.0764
  183SLPC   H9X21049   1.445   3.906   9.170  0.7299 -0.0489 -0.6446
  183SLPC   H9Y21050   1.356   4.032   9.092  0.1635 -0.1667 -0.9675
  183SLPC  C31021051   1.480   3.913   8.958 -0.8324  0.4012  0.7135
  183SLPC  H10X21052   1.516   3.809   8.950 -0.7247  0.5677 -1.3440
  183SLPC  H10Y21053   1.570   3.978   8.962  1.4392 -2.5933  1.2756
  183SLPC  C31121054   1.408   3.942   8.817 -0.5254  1.3189  0.2582
  183SLPC  H11X21055   1.347   3.853   8.793  1.6922 -0.5063  1.0585
  183SLPC  H11Y21056   1.485   3.939   8.737  0.5801  3.1178  1.1834
  183SLPC  C31221057   1.326   4.075   8.815 -0.2214 -0.4887  0.0276
  183SLPC  H12X21058   1.395   4.162   8.821  1.4714 -1.3746 -3.9462
  183SLPC  H12Y21059   1.251   4.084   8.897 -1.1047  1.9062 -0.9527
  183SLPC  C31321060   1.242   4.096   8.683 -0.4110 -0.5522 -0.8208
  183SLPC  H13X21061   1.299   4.089   8.588 -0.6914 -0.3202 -1.0074
  183SLPC  H13Y21062   1.200   4.199   8.692 -1.1724 -0.9291  0.1369
  183SLPC  C31421063   1.127   4.006   8.669 -0.5536  0.7538  0.1483
  183SLPC  H14X21064   1.062   4.018   8.759  0.6883  1.0791  1.0315
  183SLPC  H14Y21065   1.166   3.903   8.683 -0.0915  0.5971 -1.9811
  183SLPC  C31521066   1.055   4.013   8.533 -0.4647  0.2671  0.3413
  183SLPC  H15X21067   0.980   3.931   8.523  1.7716 -1.8696  0.3060
  183SLPC  H15Y21068   1.125   4.001   8.448 -3.0617  2.5965 -2.3751
  183SLPC  C31621069   0.997   4.153   8.490 -0.3974  0.0741 -0.2032
  183SLPC  H16X21070   1.086   4.220   8.494 -0.9206  0.7645  0.0188
  183SLPC  H16Y21071   0.931   4.193   8.570 -0.0239  0.6501 -0.1755
  183SLPC  C31721072   0.926   4.154   8.356 -0.2706  0.0347  0.0911
  183SLPC  H17X21073   0.881   4.255   8.340  2.4459  1.2655 -0.2971
  183SLPC  H17Y21074   0.846   4.078   8.365 -1.0056  0.9996  2.3439
  183SLPC  C31821075   1.024   4.151   8.237 -0.4149 -0.3869 -0.5532
  183SLPC  H18X21076   0.977   4.173   8.139 -0.0331  2.8182 -0.1415
  183SLPC  H18Y21077   1.086   4.059   8.233 -1.0433 -0.9410  1.3474
  183SLPC  H18Z21078   1.092   4.237   8.258 -0.1343 -0.7728  0.1743
  184SLPC     N21079   1.069   0.137  11.166 -0.1418 -0.5231 -0.0904
  184SLPC   C1321080   1.028   0.170  11.307  0.1767 -0.3341 -0.4369
  184SLPC  H13A21081   1.031   0.082  11.369 -1.4963  0.5500  1.0002
  184SLPC  H13B21082   1.094   0.235  11.363 -2.7144  1.8990  0.5966
  184SLPC  H13C21083   0.931   0.217  11.314 -0.2564 -1.2116 -0.4082
  184SLPC   C1421084   1.200   0.061  11.163  0.7464 -0.1750 -0.2195
  184SLPC  H14A21085   1.239   0.060  11.063 -0.1138  1.2701 -0.5962
  184SLPC  H14B21086   1.263   0.119  11.229 -0.3588 -1.6225  2.2562
  184SLPC  H14C21087   1.192  -0.036  11.210  0.2292  0.9452  2.1626
  184SLPC   C1521088   1.099   0.266  11.102  0.2525 -0.3211 -0.0361
  184SLPC  H15A21089   1.186   0.319  11.138 -0.7152  1.1958  0.1418
  184SLPC  H15B21090   1.118   0.266  10.996  0.7909  0.3381  0.0535
  184SLPC  H15C21091   1.011   0.328  11.105 -1.0237 -1.8812 -2.4451
  184SLPC   C1221092   0.964   0.059  11.096  0.7523  0.1734 -0.4055
  184SLPC  H12A21093   0.952  -0.024  11.163  1.6147 -0.4694 -1.0400
  184SLPC  H12B21094   1.002   0.027  11.001 -0.4229 -1.9432 -0.2223
  184SLPC   C1121095   0.824   0.123  11.069  0.0412 -0.5881 -0.9471
  184SLPC  H11A21096   0.791   0.157  11.169  1.0733 -1.1767 -0.3881
  184SLPC  H11B21097   0.757   0.049  11.018  1.2290 -0.2279 -3.1799
  184SLPC     P21098   0.846   0.234  10.825  0.0025  0.2847  0.4529
  184SLPC   O1321099   0.791   0.366  10.781 -0.1131  0.4274  0.0283
  184SLPC   O1421100   0.989   0.205  10.798  0.2406 -0.0396  0.5561
  184SLPC   O1221101   0.828   0.237  10.981  0.3810  0.6578  0.6466
  184SLPC   O1121102   0.756   0.114  10.785 -0.3917  0.5597  0.7325
  184SLPC    C121103   0.807   0.014  10.695 -0.7656  0.4223  0.1255
  184SLPC    HA21104   0.909  -0.022  10.719  0.3101  2.5593 -0.9260
  184SLPC    HB21105   0.750  -0.079  10.713 -0.0007  0.0303  0.5622
  184SLPC    C221106   0.792   0.054  10.542 -0.5205  0.0739 -0.4322
  184SLPC    HS21107   0.790  -0.043  10.489 -1.4469 -1.2551  1.8630
  184SLPC   O2121108   0.899   0.148  10.504 -0.2249  0.1438  0.8234
  184SLPC   C2121109   1.014   0.079  10.480 -0.2474 -0.0497  0.2009
  184SLPC   O2221110   1.035  -0.039  10.506 -0.2946 -0.3935  0.5399
  184SLPC   C2221111   1.113   0.168  10.400  0.3460 -0.1503 -0.7230
  184SLPC   H2R21112   1.071   0.165  10.297 -0.4363 -2.3506 -0.3821
  184SLPC   H2S21113   1.126   0.269  10.443 -0.3895 -0.6298  0.6793
  184SLPC    C321114   0.649   0.108  10.513  0.1667 -1.3337  0.1296
  184SLPC    HX21115   0.626   0.189  10.585  0.2505 -0.0300 -1.2678
  184SLPC    HY21116   0.579   0.027  10.544 -2.5794  0.8822  0.1841
  184SLPC   O3121117   0.644   0.148  10.374 -0.3606 -0.6170 -0.2811
  184SLPC   C3121118   0.601   0.060  10.287  0.2080  0.9706 -0.4293
  184SLPC   O3221119   0.578  -0.056  10.318 -0.6138  0.4349  0.4982
  184SLPC   C3221120   0.584   0.117  10.141  0.4999  0.7174 -0.0136
  184SLPC   H2X21121   0.656   0.074  10.068  1.4038 -1.0787  1.8308
  184SLPC   H2Y21122   0.593   0.227  10.153  0.1692  1.0033 -1.9988
  184SLPC   C2321123   1.253   0.100  10.388 -0.3928  0.5742  0.3613
  184SLPC   H3R21124   1.254  -0.002  10.433 -0.9101  0.6970  0.6655
  184SLPC   H3S21125   1.333   0.156  10.441  1.7892 -1.1745 -0.9322
  184SLPC   C2421126   1.305   0.084  10.245 -0.1225 -0.3360 -0.5049
  184SLPC   H4R21127   1.297   0.175  10.182 -2.1769  0.2975  0.5927
  184SLPC   H4S21128   1.232   0.020  10.190  1.7169 -0.6570 -2.7416
  184SLPC   C2521129   1.442   0.012  10.237 -0.4576 -0.3643 -0.3371
  184SLPC   H5R21130   1.443  -0.094  10.269 -2.9457 -1.0520 -2.1840
  184SLPC   H5S21131   1.502   0.073  10.308 -2.5653 -0.8772  2.0556
  184SLPC   C2621132   1.492   0.019  10.096 -0.1378 -0.4862  0.4314
  184SLPC   H6R21133   1.478   0.123  10.059 -1.8771 -0.3569  1.3253
  184SLPC   H6S21134   1.453  -0.047  10.015  1.3006  0.3944 -1.0307
  184SLPC   C2721135   1.643  -0.007  10.101 -0.2783  0.0790 -0.0616
  184SLPC   H7R21136   1.631  -0.106  10.149  1.5586 -1.0924 -1.8766
  184SLPC   H7S21137   1.704   0.050  10.174  1.0977 -1.4030 -0.0084
  184SLPC   C2821138   1.710  -0.030   9.967  0.4969 -0.2478 -0.0539
  184SLPC   H8R21139   1.631  -0.063   9.897 -2.7938  1.7375  2.4277
  184SLPC   H8S21140   1.792  -0.103   9.984  1.5523  1.3549  2.4872
  184SLPC   C2921141   1.758   0.100   9.910 -0.2612  0.1822 -0.4625
  184SLPC   H9R21142   1.859   0.127   9.942  0.8155 -1.9945 -1.8429
  184SLPC  C21021143   1.696   0.176   9.817 -0.5247  0.6830  0.4746
  184SLPC  H10R21144   1.745   0.269   9.785  1.7596 -1.1941 -1.8949
  184SLPC  C21121145   1.572   0.146   9.747 -0.4148  0.6979  0.2239
  184SLPC  H11R21146   1.542   0.042   9.772  1.0668  0.7222  2.4271
  184SLPC  H11S21147   1.583   0.140   9.636 -0.1082 -2.0803  0.3327
  184SLPC  C21221148   1.454   0.236   9.781  0.0105 -0.0832  0.7946
  184SLPC  H12R21149   1.480   0.297   9.869  1.2197 -0.8374  0.9774
  184SLPC  C21321150   1.337   0.254   9.715  0.3231  0.3985  0.4508
  184SLPC  H13R21151   1.267   0.334   9.743  1.2592  2.2828 -2.2139
  184SLPC  C21421152   1.305   0.193   9.584  0.2720  0.0032  0.0175
  184SLPC  H14R21153   1.392   0.163   9.522  0.2903 -1.1834  0.5967
  184SLPC  H14S21154   1.253   0.269   9.521 -1.2436 -0.2452  0.9276
  184SLPC  C21521155   1.218   0.068   9.598 -0.1062 -0.3790  0.7116
  184SLPC  H15R21156   1.187   0.028   9.499 -0.6062  3.1069 -0.7258
  184SLPC  H15S21157   1.127   0.107   9.648 -1.8277 -1.1751 -1.6212
  184SLPC  C21621158   1.268  -0.044   9.692  0.0352 -0.3521 -0.4254
  184SLPC  H16R21159   1.272  -0.003   9.795  0.4224 -1.4044 -0.0027
  184SLPC  H16S21160   1.372  -0.078   9.670  0.2233  0.3902 -0.7229
  184SLPC  C21721161   1.166  -0.166   9.710 -0.4126 -0.5233 -0.4933
  184SLPC  H17R21162   1.158  -0.220   9.614 -2.1475 -0.7611 -0.2532
  184SLPC  H17S21163   1.060  -0.148   9.740 -0.1034 -2.6323  2.2776
  184SLPC  C21821164   1.217  -0.262   9.819 -0.0725  0.7049  0.2224
  184SLPC  H18R21165   1.232  -0.207   9.914  0.6182  0.2409  0.3901
  184SLPC  H18S21166   1.307  -0.324   9.801 -0.6278 -0.5268  1.5111
  184SLPC  H18T21167   1.149  -0.348   9.837  2.5507 -1.6353 -0.3248
  184SLPC   C3321168   0.437   0.088  10.080 -0.1345  0.5406 -0.3433
  184SLPC   H3X21169   0.366   0.119  10.160  0.5269 -0.9518  0.8745
  184SLPC   H3Y21170   0.422  -0.017  10.048 -2.3105  0.8640 -0.5640
  184SLPC   C3421171   0.423   0.160   9.951 -0.0530  0.2780  0.1256
  184SLPC   H4X21172   0.498   0.118   9.880 -2.5016 -1.7045 -1.4603
  184SLPC   H4Y21173   0.455   0.262   9.981  1.2330 -0.1771  0.3562
  184SLPC   C3521174   0.282   0.157   9.898  0.1715 -0.0848 -0.0846
  184SLPC   H5X21175   0.219   0.214   9.970  0.8700 -0.5458  0.9174
  184SLPC   H5Y21176   0.256   0.049   9.896 -0.6717  0.1214 -1.1439
  184SLPC   C3621177   0.267   0.203   9.748  0.9504 -0.3305 -0.0100
  184SLPC   H6X21178   0.280   0.312   9.732 -0.8837 -0.1781 -0.6087
  184SLPC   H6Y21179   0.158   0.196   9.728  1.2785 -1.0205 -1.7130
  184SLPC   C3721180   0.341   0.132   9.631 -0.6948  0.0981  0.0616
  184SLPC   H7X21181   0.309   0.026   9.631 -0.9813  0.1059 -2.8108
  184SLPC   H7Y21182   0.452   0.135   9.643 -0.8052  1.2438  1.0540
  184SLPC   C3821183   0.306   0.186   9.495  0.0002 -0.4891  0.0272
  184SLPC   H8X21184   0.309   0.297   9.498 -0.5645 -0.4695  0.0839
  184SLPC   H8Y21185   0.198   0.162   9.485 -0.4750  0.6149  1.9701
  184SLPC   C3921186   0.393   0.144   9.377  0.0192 -0.2285 -0.7928
  184SLPC   H9X21187   0.388   0.034   9.364 -0.2977 -0.0796 -2.0574
  184SLPC   H9Y21188   0.493   0.191   9.391 -0.6183  1.2616 -1.0702
  184SLPC  C31021189   0.345   0.193   9.239 -0.2010 -0.3481  0.7015
  184SLPC  H10X21190   0.403   0.161   9.150 -0.2433  0.8021  0.2387
  184SLPC  H10Y21191   0.374   0.300   9.248  0.6414 -0.3842 -1.1071
  184SLPC  C31121192   0.197   0.175   9.211  0.9115 -0.8748  0.2713
  184SLPC  H11X21193   0.134   0.235   9.280  2.4262  2.1824 -0.8693
  184SLPC  H11Y21194   0.175   0.067   9.227 -0.6272 -1.7447 -5.3547
  184SLPC  C31221195   0.152   0.204   9.061  0.1057 -0.4492  0.2262
  184SLPC  H12X21196   0.158   0.313   9.043 -0.5522 -0.3767  0.4390
  184SLPC  H12Y21197   0.042   0.191   9.051  0.0577  0.4470 -0.5291
  184SLPC  C31321198   0.220   0.121   8.951 -0.1578 -0.4450  0.8819
  184SLPC  H13X21199   0.196   0.013   8.959  0.3931 -0.5552  1.0874
  184SLPC  H13Y21200   0.330   0.134   8.963  0.1840 -0.6733 -1.3809
  184SLPC  C31421201   0.194   0.162   8.803  0.1350 -0.1117  0.5472
  184SLPC  H14X21202   0.086   0.186   8.798  0.1709 -0.0350  0.1205
  184SLPC  H14Y21203   0.215   0.068   8.748 -1.1169 -0.3864  0.5107
  184SLPC  C31521204   0.280   0.280   8.748 -0.1490  0.7502  0.1697
  184SLPC  H15X21205   0.387   0.251   8.739  0.2227  1.7809  0.9836
  184SLPC  H15Y21206   0.286   0.362   8.823 -2.4618  0.5779  0.5888
  184SLPC  C31621207   0.207   0.342   8.623  0.6447  0.6844 -0.5252
  184SLPC  H16X21208   0.103   0.357   8.661  0.8790 -2.2151  1.6406
  184SLPC  H16Y21209   0.201   0.264   8.544  2.0101 -0.9803  0.9082
  184SLPC  C31721210   0.272   0.473   8.562  0.6469  0.5029  0.0614
  184SLPC  H17X21211   0.289   0.562   8.627 -0.2341  0.4953  0.3128
  184SLPC  H17Y21212   0.202   0.517   8.487  1.2398  2.7069  0.7182
  184SLPC  C31821213   0.394   0.428   8.487  0.3774 -0.4073  0.3335
  184SLPC  H18X21214   0.434   0.524   8.446 -0.4484  0.4877  1.5469
  184SLPC  H18Y21215   0.370   0.355   8.407  1.1983 -0.5598  0.2193
  184SLPC  H18Z21216   0.468   0.390   8.561  0.7343  1.2092  0.8448
  185SLPC     N21217   0.879   6.245   5.926 -0.4120 -0.2192  0.4543
  185SLPC   C1321218   0.760   6.278   5.841  0.0858  0.1329 -0.5209
  185SLPC  H13A21219   0.680   6.332   5.890 -1.3532 -0.7900 -1.7646
  185SLPC  H13B21220   0.790   6.328   5.751  0.8973 -0.0901 -0.3844
  185SLPC  H13C21221   0.723   6.180   5.812  0.3886 -0.8461  2.0778
  185SLPC   C1421222   0.955   6.368   5.949  0.7948 -0.3330 -0.3355
  185SLPC  H14A21223   1.038   6.364   6.019  0.1323 -0.0359  0.4895
  185SLPC  H14B21224   1.002   6.402   5.858  2.2232 -1.3240 -0.0033
  185SLPC  H14C21225   0.887   6.447   5.978  2.8468  0.1319  4.3488
  185SLPC   C1521226   0.954   6.142   5.852  0.4260  0.3235 -0.6195
  185SLPC  H15A21227   0.966   6.153   5.745 -0.1139 -3.7075 -1.2570
  185SLPC  H15B21228   1.049   6.123   5.900 -0.7971 -1.3396  1.2899
  185SLPC  H15C21229   0.903   6.047   5.859 -0.5323  0.7524 -1.5915
  185SLPC   C1221230   0.836   6.190   6.061 -0.0419  0.4540  0.2987
  185SLPC  H12A21231   0.812   6.271   6.128 -0.9562 -1.1883  2.0620
  185SLPC  H12B21232   0.920   6.138   6.104 -0.7939 -0.3561  0.8027
  185SLPC   C1121233   0.716   6.093   6.061  0.2461  0.0986  0.4882
  185SLPC  H11A21234   0.703   6.062   6.166  0.2330  3.5733  1.6347
  185SLPC  H11B21235   0.743   6.010   5.992  2.8692  0.6519  0.7509
  185SLPC     P21236   0.471   6.094   5.960 -0.1283 -0.3517 -0.5043
  185SLPC   O1321237   0.348   6.173   5.975  0.2340  0.5383  0.7810
  185SLPC   O1421238   0.514   6.067   5.823  0.0091  0.1100  0.3585
  185SLPC   O1221239   0.591   6.164   6.030 -0.2237 -0.1769 -0.2123
  185SLPC   O1121240   0.450   5.961   6.047 -0.4281  0.0878 -0.0663
  185SLPC    C121241   0.427   5.975   6.185  0.1261  0.1983  0.0661
  185SLPC    HA21242   0.522   5.997   6.239 -0.5102 -2.6652  2.6950
  185SLPC    HB21243   0.344   6.046   6.202 -0.3203 -0.6786  1.8297
  185SLPC    C221244   0.387   5.844   6.255  0.4090  0.1844 -0.4070
  185SLPC    HS21245   0.462   5.768   6.225  0.0199 -0.4074  0.0985
  185SLPC   O2121246   0.261   5.810   6.200 -0.2312 -0.3508 -0.1609
  185SLPC   C2121247   0.225   5.688   6.208 -0.5857  0.1781  0.3418
  185SLPC   O2221248   0.299   5.590   6.228  0.0138  0.4077  0.8161
  185SLPC   C2221249   0.077   5.683   6.163  0.6973 -0.4703  0.4330
  185SLPC   H2R21250   0.035   5.786   6.161 -0.6779 -1.0133 -0.8375
  185SLPC   H2S21251   0.069   5.642   6.060 -0.1675  0.1048  0.2605
  185SLPC    C321252   0.385   5.843   6.415  0.1056  0.2494  0.1847
  185SLPC    HX21253   0.464   5.917   6.440  0.6879  1.0481 -3.5104
  185SLPC    HY21254   0.412   5.743   6.455 -2.6386 -0.8947 -0.5828
  185SLPC   O3121255   0.252   5.867   6.469 -0.0113  0.1288  0.3411
  185SLPC   C3121256   0.216   5.997   6.490 -1.0821 -0.9400 -0.4363
  185SLPC   O3221257   0.288   6.096   6.467 -0.1932  0.3507 -0.2913
  185SLPC   C3221258   0.094   5.989   6.578  0.8258 -0.1056 -0.4754
  185SLPC   H2X21259   0.126   5.945   6.675 -2.0133 -1.1487  0.0849
  185SLPC   H2Y21260   0.013   5.933   6.527  2.8745 -0.9475 -3.0206
  185SLPC   C2321261  -0.004   5.595   6.251  0.5221 -0.3337  0.8713
  185SLPC   H3R21262   0.049   5.498   6.255 -1.2875 -1.4222 -0.0341
  185SLPC   H3S21263  -0.102   5.572   6.202  1.3014 -1.9243 -0.0188
  185SLPC   C2421264  -0.032   5.646   6.387  0.0543  0.5383 -0.2403
  185SLPC   H4R21265  -0.084   5.745   6.394 -0.1761  0.4167 -0.2108
  185SLPC   H4S21266   0.058   5.650   6.451 -0.2955 -1.5095  0.4349
  185SLPC   C2521267  -0.137   5.554   6.465  0.6551 -0.6272  0.1192
  185SLPC   H5R21268  -0.099   5.457   6.504  0.3445  0.3323  3.0623
  185SLPC   H5S21269  -0.211   5.526   6.387 -1.2125  0.2566  1.5041
  185SLPC   C2621270  -0.207   5.640   6.570  0.1944  0.0955  0.7066
  185SLPC   H6R21271  -0.251   5.728   6.519 -0.6366 -0.1904  0.9077
  185SLPC   H6S21272  -0.138   5.669   6.653  0.7033  1.7028 -0.2269
  185SLPC   C2721273  -0.306   5.553   6.651 -0.0081  0.3737 -0.6382
  185SLPC   H7R21274  -0.262   5.509   6.743 -0.2493  0.3253 -0.5460
  185SLPC   H7S21275  -0.337   5.464   6.591 -1.1753  0.7541 -0.6221
  185SLPC   C2821276  -0.437   5.622   6.674 -0.4350  0.5046 -0.3367
  185SLPC   H8R21277  -0.480   5.646   6.575  0.5356 -2.3802 -1.5445
  185SLPC   H8S21278  -0.407   5.716   6.725 -0.4574  0.8188 -0.8946
  185SLPC   C2921279  -0.545   5.552   6.752 -0.1284  0.1497  1.0026
  185SLPC   H9R21280  -0.583   5.462   6.701  0.7354  0.1580  0.3181
  185SLPC  C21021281  -0.615   5.595   6.856 -0.0369  0.1141 -0.5824
  185SLPC  H10R21282  -0.697   5.534   6.897  0.0304  0.3113 -0.1478
  185SLPC  C21121283  -0.596   5.723   6.935 -0.6676  0.2819 -0.5637
  185SLPC  H11R21284  -0.680   5.790   6.910 -0.9925 -0.4641 -1.5442
  185SLPC  H11S21285  -0.507   5.780   6.898 -1.0925  0.7031 -0.9545
  185SLPC  C21221286  -0.581   5.704   7.089 -0.1570  0.5556 -0.1983
  185SLPC  H12R21287  -0.480   5.721   7.129  0.3720 -0.4151 -1.0748
  185SLPC  C21321288  -0.691   5.684   7.171  0.0637  0.4856 -0.1384
  185SLPC  H13R21289  -0.663   5.669   7.276 -0.3477 -2.4566 -0.3672
  185SLPC  C21421290  -0.839   5.661   7.142  0.5176 -0.2012 -0.2443
  185SLPC  H14R21291  -0.863   5.556   7.113 -1.4230  0.6745 -2.0571
  185SLPC  H14S21292  -0.881   5.715   7.056 -1.3026 -3.3810 -1.5324
  185SLPC  C21521293  -0.914   5.709   7.271  0.4054  0.0717 -0.3468
  185SLPC  H15R21294  -1.020   5.697   7.239  0.5656 -0.8463 -0.5791
  185SLPC  H15S21295  -0.890   5.816   7.287  1.1892 -0.2718  0.9572
  185SLPC  C21621296  -0.884   5.634   7.399  0.4452 -0.0721 -0.1654
  185SLPC  H16R21297  -0.794   5.684   7.442 -0.3699  0.0861  1.4627
  185SLPC  H16S21298  -0.879   5.525   7.374  1.8802  0.2923 -1.6075
  185SLPC  C21721299  -0.998   5.635   7.497 -0.3209  0.3909  0.1144
  185SLPC  H17R21300  -1.090   5.588   7.456 -0.7988  1.1715  0.2541
  185SLPC  H17S21301  -1.035   5.740   7.502  0.5416  0.7268 -0.3162
  185SLPC  C21821302  -0.968   5.580   7.631  0.4338 -0.0440 -0.1997
  185SLPC  H18R21303  -0.964   5.469   7.631  0.5228 -0.0401 -0.3900
  185SLPC  H18S21304  -1.038   5.618   7.709 -0.2924 -1.9966  0.1577
  185SLPC  H18T21305  -0.864   5.605   7.661  0.4976  0.7808 -1.0676
  185SLPC   C3321306   0.032   6.128   6.606 -0.3749 -0.3067  0.2658
  185SLPC   H3X21307  -0.024   6.160   6.515 -0.8807  3.4172  1.6962
  185SLPC   H3Y21308   0.108   6.207   6.619 -0.3791 -0.7477  4.2323
  185SLPC   C3421309  -0.066   6.138   6.721 -0.2501  0.3419 -0.0133
  185SLPC   H4X21310  -0.109   6.240   6.716  0.2195  0.5118 -0.8022
  185SLPC   H4Y21311  -0.003   6.118   6.810  0.6435  0.6527 -0.5640
  185SLPC   C3521312  -0.183   6.032   6.717  0.2998  0.4064 -0.4109
  185SLPC   H5X21313  -0.146   5.932   6.746 -1.2845 -0.2055 -0.4080
  185SLPC   H5Y21314  -0.222   6.017   6.614  0.0455 -1.3106 -0.0934
  185SLPC   C3621315  -0.301   6.070   6.806 -0.3856 -0.2266 -0.7022
  185SLPC   H6X21316  -0.373   5.986   6.807 -1.5863  0.7820  0.0649
  185SLPC   H6Y21317  -0.354   6.163   6.774  1.3625  0.4826 -1.6867
  185SLPC   C3721318  -0.258   6.113   6.955  0.1175  0.2413 -0.5292
  185SLPC   H7X21319  -0.348   6.131   7.017  0.6084  1.2651 -0.0934
  185SLPC   H7Y21320  -0.193   6.202   6.966 -1.8969  1.8063 -0.8918
  185SLPC   C3821321  -0.183   5.994   7.019  0.4605 -0.8357  0.1683
  185SLPC   H8X21322  -0.176   6.015   7.128 -0.1181 -0.6904  0.1842
  185SLPC   H8Y21323  -0.082   5.988   6.975  0.3979 -0.5801 -0.0089
  185SLPC   C3921324  -0.247   5.851   6.997 -0.2176  0.0802  0.0490
  185SLPC   H9X21325  -0.260   5.827   6.889  1.2288 -1.5748  0.2050
  185SLPC   H9Y21326  -0.342   5.860   7.054 -0.0389  1.8041  0.1279
  185SLPC  C31021327  -0.151   5.736   7.044 -0.5015 -0.4598  0.1134
  185SLPC  H10X21328  -0.146   5.735   7.155  1.1228 -1.5889  0.0670
  185SLPC  H10Y21329  -0.055   5.772   7.003 -2.2492  2.8934 -1.5106
  185SLPC  C31121330  -0.191   5.596   6.993  0.2823  0.4185 -0.6730
  185SLPC  H11X21331  -0.164   5.591   6.886  2.9736  0.8999 -0.0774
  185SLPC  H11Y21332  -0.300   5.575   7.003  0.4015  0.0048 -0.2301
  185SLPC  C31221333  -0.117   5.494   7.076 -0.0817 -0.8124  0.1961
  185SLPC  H12X21334  -0.137   5.519   7.182  1.7771 -0.5346  0.5234
  185SLPC  H12Y21335  -0.008   5.506   7.058 -0.2790 -1.5205 -1.7907
  185SLPC  C31321336  -0.169   5.352   7.041 -0.3471 -0.9459 -0.2452
  185SLPC  H13X21337  -0.134   5.348   6.936 -2.5784  0.0079 -1.0766
  185SLPC  H13Y21338  -0.280   5.348   7.041 -0.3997 -0.0587  0.7030
  185SLPC  C31421339  -0.115   5.242   7.129  0.5351  0.7524 -0.0738
  185SLPC  H14X21340  -0.004   5.240   7.138  0.5589 -0.5560 -0.4630
  185SLPC  H14Y21341  -0.144   5.140   7.096  2.6213 -0.2169  0.9462
  185SLPC  C31521342  -0.166   5.264   7.277  0.3572  0.2295 -0.3877
  185SLPC  H15X21343  -0.277   5.266   7.282  0.2697 -1.0946 -1.2461
  185SLPC  H15Y21344  -0.120   5.357   7.317  2.2541 -1.4387  1.5922
  185SLPC  C31621345  -0.119   5.161   7.383 -0.2904 -0.3543 -0.3914
  185SLPC  H16X21346  -0.008   5.155   7.382 -0.3270 -1.5223 -2.2168
  185SLPC  H16Y21347  -0.136   5.056   7.353  2.5849 -0.9936 -0.0944
  185SLPC  C31721348  -0.168   5.189   7.525  0.2268 -0.0524 -0.2693
  185SLPC  H17X21349  -0.274   5.157   7.529  0.0757  0.0148 -2.4051
  185SLPC  H17Y21350  -0.164   5.299   7.539  0.2108 -0.0761 -0.0823
  185SLPC  C31821351  -0.094   5.127   7.637 -0.6199 -0.2642  0.8090
  185SLPC  H18X21352   0.017   5.132   7.634 -0.6118  0.5786  1.8374
  185SLPC  H18Y21353  -0.116   5.018   7.643  0.3621 -0.7073 -2.0127
  185SLPC  H18Z21354  -0.132   5.180   7.727  0.3655  2.3756 -0.2186
  186SLPC     N21355   0.958   5.096   6.153 -0.1797  0.2047  0.5528
  186SLPC   C1321356   0.826   5.028   6.176  0.7604  0.0311  0.2167
  186SLPC  H13A21357   0.801   4.981   6.082  0.3361  2.5748 -1.0048
  186SLPC  H13B21358   0.823   4.974   6.269  1.1544  0.3969  0.4428
  186SLPC  H13C21359   0.748   5.101   6.191  0.2108 -0.1834 -1.3548
  186SLPC   C1421360   0.952   5.193   6.035  0.0691  0.4793 -0.2871
  186SLPC  H14A21361   0.873   5.266   6.040  0.7335  1.1367  1.1955
  186SLPC  H14B21362   1.045   5.248   6.032  0.0631  0.4746 -0.6186
  186SLPC  H14C21363   0.937   5.135   5.945 -3.0230  0.7513 -0.0501
  186SLPC   C1521364   1.065   4.993   6.130 -0.1675  0.1228  0.1745
  186SLPC  H15A21365   1.050   4.939   6.038  0.4962  0.7954 -0.3458
  186SLPC  H15B21366   1.160   5.040   6.110 -0.6896  1.1298 -0.0020
  186SLPC  H15C21367   1.063   4.915   6.205 -0.2248  1.8406  2.0416
  186SLPC   C1221368   0.996   5.174   6.274 -0.5007  0.0244 -0.0152
  186SLPC  H12A21369   0.985   5.112   6.362  0.3088 -1.1453 -0.7035
  186SLPC  H12B21370   0.923   5.254   6.279 -0.3846  0.2618 -1.5006
  186SLPC   C1121371   1.137   5.241   6.272  0.1702 -0.2282  0.2143
  186SLPC  H11A21372   1.226   5.182   6.240  0.9984  0.3252  1.4109
  186SLPC  H11B21373   1.162   5.262   6.378  0.8291  1.4288 -0.2393
  186SLPC     P21374   1.087   5.501   6.271  0.0835  0.0607 -0.3231
  186SLPC   O1321375   1.115   5.609   6.176  0.4030  0.6245 -0.7027
  186SLPC   O1421376   0.949   5.493   6.321 -0.6383  0.2493 -0.0547
  186SLPC   O1221377   1.137   5.366   6.206 -0.1013 -0.1315 -0.4096
  186SLPC   O1121378   1.179   5.522   6.400 -0.1227  0.8354 -0.4798
  186SLPC    C121379   1.319   5.522   6.380 -0.1431 -0.7157  0.3855
  186SLPC    HA21380   1.349   5.415   6.386  0.2157 -0.6356  0.1164
  186SLPC    HB21381   1.356   5.572   6.288 -1.1833 -0.6509 -0.0065
  186SLPC    C221382   1.406   5.575   6.503  0.9828  0.6394 -0.1487
  186SLPC    HS21383   1.504   5.523   6.497 -1.0414 -3.4254 -2.1799
  186SLPC   O2121384   1.343   5.558   6.629  0.2266 -0.0181 -0.7095
  186SLPC   C2121385   1.327   5.436   6.671 -0.3876 -0.5127  0.2876
  186SLPC   O2221386   1.353   5.331   6.613  0.6625  0.0361 -0.0292
  186SLPC   C2221387   1.241   5.445   6.794 -0.1089 -0.5060  0.2859
  186SLPC   H2R21388   1.294   5.502   6.874 -2.9712  0.3762  1.7088
  186SLPC   H2S21389   1.144   5.489   6.762  0.2939  0.5372  0.4676
  186SLPC    C321390   1.422   5.725   6.488  0.1691  0.1635  0.2021
  186SLPC    HX21391   1.321   5.772   6.494 -2.2712 -4.4873  0.0001
  186SLPC    HY21392   1.473   5.740   6.390  2.2871 -3.8157  0.5032
  186SLPC   O3121393   1.513   5.766   6.595  0.4585 -0.9304  0.3827
  186SLPC   C3121394   1.494   5.889   6.633  0.1245  0.1239  0.0461
  186SLPC   O3221395   1.441   5.976   6.566  0.3664  0.0242 -0.7141
  186SLPC   C3221396   1.566   5.904   6.765  0.7169  0.0765 -1.3661
  186SLPC   H2X21397   1.626   5.997   6.762  0.7688  0.1903  1.1612
  186SLPC   H2Y21398   1.628   5.812   6.774  1.1063  0.4292 -0.2177
  186SLPC   C2321399   1.204   5.303   6.860 -0.3306 -0.7848  0.2018
  186SLPC   H3R21400   1.295   5.242   6.878 -1.9369 -2.2673  4.6999
  186SLPC   H3S21401   1.139   5.241   6.794  0.8820 -0.5582 -1.2499
  186SLPC   C2421402   1.128   5.323   6.994 -0.0302 -0.5938  0.3817
  186SLPC   H4R21403   1.027   5.363   6.969 -0.0185 -0.3989  0.6398
  186SLPC   H4S21404   1.190   5.386   7.062  1.0361 -1.2016 -0.0061
  186SLPC   C2521405   1.112   5.190   7.075 -0.5676 -0.1065  0.2004
  186SLPC   H5R21406   1.212   5.159   7.112 -0.7379 -3.0874 -1.5638
  186SLPC   H5S21407   1.086   5.106   7.007  2.0949  0.2556 -1.3918
  186SLPC   C2621408   1.020   5.210   7.197  0.4966  0.1851  0.2540
  186SLPC   H6R21409   0.924   5.162   7.171  1.4475 -1.3797 -0.5192
  186SLPC   H6S21410   1.001   5.319   7.210  1.0973  0.0253  3.1573
  186SLPC   C2721411   1.068   5.144   7.322 -0.5108  0.3108 -0.0755
  186SLPC   H7R21412   1.023   5.195   7.410  0.0819  0.9299 -0.1210
  186SLPC   H7S21413   1.177   5.153   7.338 -0.4320  1.0024 -0.9266
  186SLPC   C2821414   1.043   4.990   7.325  0.4734 -0.0526 -0.3795
  186SLPC   H8R21415   1.104   4.945   7.244  4.2019  1.7051  1.2179
  186SLPC   H8S21416   0.935   4.963   7.319  0.5200 -0.4757  0.5144
  186SLPC   C2921417   1.092   4.930   7.457 -0.8022  0.1212  0.2023
  186SLPC   H9R21418   1.192   4.884   7.453 -1.1500 -1.3712  4.3333
  186SLPC  C21021419   1.044   4.923   7.579  0.6631  0.7930 -0.3025
  186SLPC  H10R21420   1.099   4.862   7.652  0.0140 -0.1208 -0.5670
  186SLPC  C21121421   0.910   4.975   7.624 -0.0836  0.1321 -1.1663
  186SLPC  H11R21422   0.856   4.885   7.661 -0.1946 -0.3045 -2.3399
  186SLPC  H11S21423   0.844   5.010   7.541 -0.0420  2.3252 -0.3469
  186SLPC  C21221424   0.913   5.088   7.728 -0.1356  0.0731  0.8254
  186SLPC  H12R21425   0.997   5.156   7.707 -0.3450  0.1818  0.3318
  186SLPC  C21321426   0.832   5.112   7.831 -0.0601 -0.3916  0.5478
  186SLPC  H13R21427   0.870   5.181   7.909  0.1463 -0.6681  0.6937
  186SLPC  C21421428   0.706   5.046   7.867 -0.2693  0.3024 -0.3101
  186SLPC  H14R21429   0.674   4.972   7.790 -1.8275  0.6205 -0.0122
  186SLPC  H14S21430   0.621   5.118   7.863  0.3150  1.0560  0.6578
  186SLPC  C21521431   0.696   4.976   8.008  0.0049 -0.1831 -0.2313
  186SLPC  H15R21432   0.606   4.911   8.015 -1.2540  1.3530 -1.2409
  186SLPC  H15S21433   0.683   5.052   8.088  0.6424 -0.8574  0.5328
  186SLPC  C21621434   0.818   4.883   8.049  0.2810  0.3993 -0.4074
  186SLPC  H16R21435   0.909   4.945   8.064  2.1581 -2.2553 -0.1214
  186SLPC  H16S21436   0.844   4.807   7.972  1.0620 -1.3489  1.4789
  186SLPC  C21721437   0.801   4.804   8.176  0.3340  0.6330  0.3099
  186SLPC  H17R21438   0.893   4.767   8.225 -0.0721  2.6016  2.8005
  186SLPC  H17S21439   0.751   4.708   8.152  2.2113 -0.3744  0.2431
  186SLPC  C21821440   0.723   4.882   8.284  0.2094 -0.7352 -0.2564
  186SLPC  H18R21441   0.765   4.984   8.295 -0.7383 -0.3898  0.2424
  186SLPC  H18S21442   0.717   4.834   8.384 -2.1753  1.8341  0.9609
  186SLPC  H18T21443   0.620   4.894   8.245 -0.6774 -0.7742  1.9199
  186SLPC   C3321444   1.462   5.911   6.885  0.3898  0.3523  0.0316
  186SLPC   H3X21445   1.423   6.014   6.895  3.1173  1.2838  2.4306
  186SLPC   H3Y21446   1.517   5.883   6.977 -2.8146 -2.7930  1.2225
  186SLPC   C3421447   1.345   5.814   6.862  0.3296 -0.3837 -0.1958
  186SLPC   H4X21448   1.377   5.707   6.856  0.3683 -0.3962  0.2291
  186SLPC   H4Y21449   1.288   5.828   6.768  3.3081  0.2294 -2.0442
  186SLPC   C3521450   1.255   5.819   6.981  0.4039  0.2544 -0.1121
  186SLPC   H5X21451   1.164   5.758   6.963 -1.5716  2.7951  0.5653
  186SLPC   H5Y21452   1.230   5.924   7.007 -0.3893  0.2557 -0.8548
  186SLPC   C3621453   1.318   5.751   7.107  0.8123  0.0081  0.4612
  186SLPC   H6X21454   1.366   5.833   7.165  1.8688  0.5321 -1.1011
  186SLPC   H6Y21455   1.388   5.670   7.080 -0.2176 -0.5193 -0.7131
  186SLPC   C3721456   1.210   5.687   7.192 -1.1290 -0.2553  0.1932
  186SLPC   H7X21457   1.153   5.607   7.140 -0.0665 -1.5593  0.9712
  186SLPC   H7Y21458   1.127   5.754   7.223  0.0926  1.2270  0.4032
  186SLPC   C3821459   1.285   5.631   7.315 -0.6009  0.3374 -0.2367
  186SLPC   H8X21460   1.311   5.714   7.384 -0.2873  1.3148 -1.4760
  186SLPC   H8Y21461   1.372   5.573   7.279  0.9100  1.7342  1.0199
  186SLPC   C3921462   1.204   5.526   7.391  0.1207  0.0394  0.0176
  186SLPC   H9X21463   1.181   5.444   7.319  2.3246 -1.0647  0.5000
  186SLPC   H9Y21464   1.109   5.581   7.411 -0.1118  0.2389 -1.4949
  186SLPC  C31021465   1.282   5.483   7.524 -0.2089 -0.3221 -0.0115
  186SLPC  H10X21466   1.279   5.565   7.598  0.3642  0.4815 -0.8581
  186SLPC  H10Y21467   1.385   5.453   7.494 -0.5299 -1.1725 -0.3025
  186SLPC  C31121468   1.216   5.360   7.592  0.1356 -0.9550  0.2273
  186SLPC  H11X21469   1.241   5.274   7.528 -0.8555 -0.0318 -1.4763
  186SLPC  H11Y21470   1.107   5.378   7.580  0.5030  2.5174  0.8888
  186SLPC  C31221471   1.243   5.327   7.739  0.1402 -0.5803  0.3611
  186SLPC  H12X21472   1.343   5.279   7.744 -0.2997 -1.6732 -0.8339
  186SLPC  H12Y21473   1.167   5.257   7.779 -0.2490  0.0078  0.6688
  186SLPC  C31321474   1.239   5.448   7.833 -0.1621  0.1046 -0.3936
  186SLPC  H13X21475   1.140   5.497   7.822 -0.2289  0.8677  2.5927
  186SLPC  H13Y21476   1.319   5.522   7.811 -1.1773  1.4620  0.3105
  186SLPC  C31421477   1.245   5.406   7.979 -0.1918 -0.3454  0.6641
  186SLPC  H14X21478   1.346   5.363   7.996 -0.2693 -0.0262  2.0014
  186SLPC  H14Y21479   1.172   5.324   7.996  2.2930 -2.8355  0.1306
  186SLPC  C31521480   1.239   5.521   8.079 -0.5203 -0.2009  0.4076
  186SLPC  H15X21481   1.141   5.572   8.068 -0.7927 -1.1271 -2.2873
  186SLPC  H15Y21482   1.298   5.608   8.043 -3.1092  1.8706  0.8447
  186SLPC  C31621483   1.261   5.472   8.221  0.3424  0.0190 -0.0108
  186SLPC  H16X21484   1.269   5.561   8.287 -0.7300  0.5290 -0.5540
  186SLPC  H16Y21485   1.361   5.423   8.218 -0.5826 -1.9309 -1.1332
  186SLPC  C31721486   1.151   5.371   8.263 -0.6190  0.0491  0.1441
  186SLPC  H17X21487   1.180   5.272   8.222 -1.1814 -0.3895  0.7884
  186SLPC  H17Y21488   1.044   5.392   8.238 -0.0315  1.6172 -1.2839
  186SLPC  C31821489   1.160   5.357   8.419 -0.6400 -0.1795 -0.1011
  186SLPC  H18X21490   1.091   5.276   8.453  0.7649 -1.4817 -0.2177
  186SLPC  H18Y21491   1.138   5.455   8.465  2.7867 -0.1628  1.7908
  186SLPC  H18Z21492   1.263   5.325   8.445 -0.3113  0.5845 -0.4542
  187SLPC     N21493   1.056   4.534   5.722  0.4535 -0.1015 -0.0970
  187SLPC   C1321494   1.194   4.529   5.788  0.2872  0.5412 -0.5334
  187SLPC  H13A21495   1.212   4.426   5.813  0.0727  0.6070 -0.0924
  187SLPC  H13B21496   1.273   4.574   5.730  0.4630  0.5301 -0.3010
  187SLPC  H13C21497   1.182   4.586   5.879  3.7363  1.6037 -0.5939
  187SLPC   C1421498   1.058   4.453   5.593 -0.6507  0.3376 -0.7150
  187SLPC  H14A21499   1.054   4.347   5.613 -1.5287  0.5073  0.0959
  187SLPC  H14B21500   0.979   4.486   5.527 -2.6995 -2.0679  0.3608
  187SLPC  H14C21501   1.151   4.475   5.542  0.7916  0.8927  1.9918
  187SLPC   C1521502   1.025   4.679   5.683  0.4805 -0.2550 -0.2883
  187SLPC  H15A21503   1.010   4.741   5.770 -0.6136  0.7014 -1.1157
  187SLPC  H15B21504   1.108   4.721   5.629 -0.6496  2.1832 -0.2662
  187SLPC  H15C21505   0.931   4.700   5.633  0.1496 -1.7548 -0.3659
  187SLPC   C1221506   0.941   4.471   5.796 -0.2853 -0.4248  0.1288
  187SLPC  H12A21507   0.925   4.525   5.888 -1.8850 -3.7187  1.9764
  187SLPC  H12B21508   0.974   4.374   5.832  0.6140 -0.1150  0.1584
  187SLPC   C1121509   0.800   4.460   5.730  0.4170  0.2930  0.2844
  187SLPC  H11A21510   0.736   4.396   5.794 -0.9826 -0.4762 -1.7739
  187SLPC  H11B21511   0.803   4.395   5.639 -0.5582 -0.7988  1.0094
  187SLPC     P21512   0.599   4.627   5.750  0.3862  0.0667  0.1920
  187SLPC   O1321513   0.589   4.774   5.739 -0.5269 -0.0434 -0.6667
  187SLPC   O1421514   0.494   4.550   5.677  0.1439 -0.3921 -0.0432
  187SLPC   O1221515   0.746   4.583   5.699  0.0247 -0.4401  0.7190
  187SLPC   O1121516   0.603   4.582   5.904  0.3823 -0.0963  0.7127
  187SLPC    C121517   0.575   4.673   6.013 -0.3988  0.0342  0.0224
  187SLPC    HA21518   0.677   4.690   6.054 -0.5856 -0.9859  0.9453
  187SLPC    HB21519   0.521   4.763   5.977  0.8797  1.4331  1.4348
  187SLPC    C221520   0.481   4.607   6.124 -0.2463 -0.3922  0.3305
  187SLPC    HS21521   0.454   4.699   6.181 -4.0431 -0.7741 -0.6332
  187SLPC   O2121522   0.544   4.501   6.201  0.3058  0.1673  0.7032
  187SLPC   C2121523   0.650   4.534   6.265  0.5923 -0.8536 -0.4715
  187SLPC   O2221524   0.679   4.656   6.284 -0.0193 -0.1573 -0.2207
  187SLPC   C2221525   0.718   4.403   6.302  0.0856  0.0767 -0.3320
  187SLPC   H2R21526   0.641   4.338   6.350  0.6568  0.6448  1.4323
  187SLPC   H2S21527   0.763   4.354   6.213 -1.6794 -1.1054 -0.6279
  187SLPC    C321528   0.347   4.563   6.065  0.4155  0.3867 -0.7068
  187SLPC    HX21529   0.356   4.493   5.979  0.8030 -0.2398 -0.1663
  187SLPC    HY21530   0.293   4.651   6.025  0.7746  0.1013 -1.8480
  187SLPC   O3121531   0.270   4.503   6.170  0.4185 -0.0491  0.4299
  187SLPC   C3121532   0.282   4.375   6.190 -0.6203 -0.0843 -0.5517
  187SLPC   O3221533   0.364   4.304   6.136 -0.8817 -0.3170 -0.3551
  187SLPC   C3221534   0.188   4.327   6.296 -0.3827 -0.0720 -0.5535
  187SLPC   H2X21535   0.139   4.239   6.249  1.3962  0.2772 -3.3279
  187SLPC   H2Y21536   0.119   4.413   6.310  1.6465  1.4435  0.5425
  187SLPC   C2321537   0.838   4.434   6.398  0.7066 -0.5608  0.0097
  187SLPC   H3R21538   0.910   4.502   6.349 -1.4925  1.1685 -0.9736
  187SLPC   H3S21539   0.893   4.341   6.423  0.5905 -1.0853 -1.5490
  187SLPC   C2421540   0.790   4.490   6.535 -0.4978  0.1110 -0.6709
  187SLPC   H4R21541   0.765   4.597   6.520  0.5344  0.0282 -3.6224
  187SLPC   H4S21542   0.879   4.495   6.601  0.2082  1.6364 -1.6977
  187SLPC   C2521543   0.670   4.416   6.606 -0.1504  0.2638 -0.2983
  187SLPC   H5R21544   0.698   4.310   6.621 -0.6700  0.0433 -0.8334
  187SLPC   H5S21545   0.580   4.418   6.542 -1.0872  1.0341  0.9967
  187SLPC   C2621546   0.634   4.477   6.740  0.6469 -0.2043 -0.4310
  187SLPC   H6R21547   0.725   4.509   6.795 -0.4134  0.9296  0.7327
  187SLPC   H6S21548   0.573   4.408   6.802 -0.2312  0.2089 -0.8083
  187SLPC   C2721549   0.553   4.608   6.723 -0.0206  0.5207  0.3831
  187SLPC   H7R21550   0.452   4.571   6.696 -0.1153  1.2961 -0.3578
  187SLPC   H7S21551   0.591   4.675   6.643  0.1404 -0.9118 -0.7923
  187SLPC   C2821552   0.548   4.694   6.845 -0.9422 -0.2316 -0.5290
  187SLPC   H8R21553   0.502   4.640   6.930  1.5086 -2.0579 -0.2464
  187SLPC   H8S21554   0.484   4.783   6.829  1.6126  1.6264 -1.1341
  187SLPC   C2921555   0.679   4.752   6.891 -1.0604  0.1013  0.1579
  187SLPC   H9R21556   0.718   4.826   6.819  0.4396  0.2354  1.0570
  187SLPC  C21021557   0.741   4.720   7.006  0.7098 -0.9027 -1.1220
  187SLPC  H10R21558   0.833   4.778   7.022  0.6185 -1.0859  0.1365
  187SLPC  C21121559   0.690   4.624   7.116  0.3502 -0.0448  0.6254
  187SLPC  H11R21560   0.627   4.537   7.087 -0.2912  0.7268 -0.3482
  187SLPC  H11S21561   0.637   4.682   7.195  1.2791  0.6412  0.7651
  187SLPC  C21221562   0.806   4.563   7.192 -0.2328 -0.1516  0.2686
  187SLPC  H12R21563   0.878   4.522   7.119  0.4547 -1.2109  1.5006
  187SLPC  C21321564   0.821   4.529   7.323  0.3311 -0.3107 -0.4079
  187SLPC  H13R21565   0.904   4.463   7.349  0.1485  0.5791  2.8530
  187SLPC  C21421566   0.729   4.575   7.436  0.6970  0.2685  0.9545
  187SLPC  H14R21567   0.642   4.507   7.443  0.8429  0.1740  2.0195
  187SLPC  H14S21568   0.696   4.679   7.418 -0.3639 -0.5214 -2.2008
  187SLPC  C21521569   0.810   4.564   7.563 -0.1566  0.0651  0.2940
  187SLPC  H15R21570   0.883   4.646   7.582 -1.1355  1.0893 -0.2522
  187SLPC  H15S21571   0.857   4.464   7.577 -2.6441 -1.0879  1.1780
  187SLPC  C21621572   0.714   4.597   7.688  0.0998 -0.1625  0.0681
  187SLPC  H16R21573   0.635   4.665   7.651 -1.1442 -1.1262  0.8949
  187SLPC  H16S21574   0.782   4.647   7.761  1.3518  0.7800 -1.6774
  187SLPC  C21721575   0.657   4.471   7.754  0.0225  0.3543 -0.0910
  187SLPC  H17R21576   0.745   4.415   7.792 -1.0035 -0.2502  1.4574
  187SLPC  H17S21577   0.611   4.407   7.676 -1.2400 -1.9622  2.4254
  187SLPC  C21821578   0.565   4.505   7.875 -0.0242  0.5165  0.1398
  187SLPC  H18R21579   0.474   4.560   7.842 -0.6594 -1.2564 -1.2401
  187SLPC  H18S21580   0.618   4.578   7.939  1.0237  1.2029 -1.4442
  187SLPC  H18T21581   0.527   4.420   7.935 -3.1929  0.5272 -1.6011
  187SLPC   C3321582   0.266   4.269   6.418 -0.1232 -0.5720  0.0598
  187SLPC   H3X21583   0.364   4.228   6.386  0.5472  1.2188 -0.2873
  187SLPC   H3Y21584   0.197   4.184   6.441  0.8705 -2.0444 -2.0520
  187SLPC   C3421585   0.270   4.369   6.539 -0.1768  0.2125  0.8161
  187SLPC   H4X21586   0.173   4.422   6.539 -0.8003 -0.9066  1.0800
  187SLPC   H4Y21587   0.350   4.446   6.532  1.4685 -1.1984  2.8655
  187SLPC   C3521588   0.285   4.302   6.676  0.1400 -0.7918 -0.3779
  187SLPC   H5X21589   0.385   4.258   6.697  0.0756  0.0599  2.0354
  187SLPC   H5Y21590   0.211   4.219   6.671  0.7786 -1.4089  0.1149
  187SLPC   C3621591   0.255   4.385   6.804 -0.4207 -0.0465  0.3332
  187SLPC   H6X21592   0.159   4.441   6.794 -1.2098 -1.7570 -3.5982
  187SLPC   H6Y21593   0.334   4.460   6.825 -1.6747  1.1779  0.8417
  187SLPC   C3721594   0.238   4.301   6.928  0.0366  0.3005  0.1378
  187SLPC   H7X21595   0.144   4.243   6.914  1.6319 -2.9295  1.5615
  187SLPC   H7Y21596   0.322   4.230   6.941 -1.8989 -1.7844  2.3611
  187SLPC   C3821597   0.230   4.382   7.059  0.2664 -0.0772 -0.6378
  187SLPC   H8X21598   0.188   4.311   7.135 -2.8183  0.5088 -1.6336
  187SLPC   H8Y21599   0.159   4.466   7.043  1.0373  1.0183  1.3007
  187SLPC   C3921600   0.365   4.423   7.101 -0.5477  0.0469  0.5492
  187SLPC   H9X21601   0.386   4.520   7.052 -1.2746 -0.1026 -0.0681
  187SLPC   H9Y21602   0.436   4.345   7.066  1.0668  1.5014  0.5080
  187SLPC  C31021603   0.380   4.440   7.255 -0.4387  0.3438 -0.0915
  187SLPC  H10X21604   0.295   4.501   7.293 -0.1231  0.6422  0.1374
  187SLPC  H10Y21605   0.470   4.495   7.289  0.0653  0.7824 -2.0317
  187SLPC  C31121606   0.359   4.308   7.333 -0.1595 -0.2033  0.3941
  187SLPC  H11X21607   0.452   4.247   7.323  0.1477  0.4439 -0.8426
  187SLPC  H11Y21608   0.263   4.256   7.312 -0.5637  2.1217 -5.1313
  187SLPC  C31221609   0.356   4.356   7.478 -1.2132  0.5025 -0.1931
  187SLPC  H12X21610   0.284   4.435   7.507 -1.8278 -0.3457  0.6752
  187SLPC  H12Y21611   0.454   4.407   7.485 -1.6954  1.3003  1.2791
  187SLPC  C31321612   0.328   4.235   7.567 -0.8535  0.1722  0.6289
  187SLPC  H13X21613   0.386   4.145   7.535  0.1458  0.2428  2.1520
  187SLPC  H13Y21614   0.224   4.202   7.549 -0.3286 -0.8744 -0.6881
  187SLPC  C31421615   0.349   4.268   7.712 -0.5010  0.6654  0.1402
  187SLPC  H14X21616   0.325   4.375   7.728  1.6785  1.3224 -0.5988
  187SLPC  H14Y21617   0.453   4.252   7.747 -1.0007 -0.5552  1.1325
  187SLPC  C31521618   0.261   4.186   7.806  0.3921  0.0245 -0.5733
  187SLPC  H15X21619   0.271   4.079   7.778 -2.0003  0.3147 -2.9234
  187SLPC  H15Y21620   0.153   4.206   7.795  0.2214  0.3004  1.2275
  187SLPC  C31621621   0.300   4.214   7.949  0.4959 -0.0782 -0.3885
  187SLPC  H16X21622   0.250   4.309   7.977 -2.9853 -2.3599  1.9795
  187SLPC  H16Y21623   0.409   4.233   7.959  0.8764 -1.3380 -1.7859
  187SLPC  C31721624   0.259   4.094   8.034 -0.2249 -0.5830 -0.5905
  187SLPC  H17X21625   0.284   3.999   7.983  0.2270 -2.1030  2.2616
  187SLPC  H17Y21626   0.150   4.092   8.055  0.0491 -0.5004  0.9638
  187SLPC  C31821627   0.325   4.085   8.171 -0.0706  0.1244 -0.5681
  187SLPC  H18X21628   0.273   4.153   8.242 -1.1572 -1.2101 -0.0325
  187SLPC  H18Y21629   0.427   4.126   8.159  0.0664  0.7158  2.0783
  187SLPC  H18Z21630   0.330   3.984   8.216  1.0926 -0.6374 -2.3140
  188SLPC     N21631   2.429   3.264   6.217 -0.2411  0.4656  0.4847
  188SLPC   C1321632   2.559   3.283   6.284 -0.2692 -0.4957 -0.1209
  188SLPC  H13A21633   2.563   3.226   6.376 -1.0491  0.6344  0.6427
  188SLPC  H13B21634   2.640   3.250   6.221  2.4404  0.1890  2.7239
  188SLPC  H13C21635   2.571   3.388   6.304 -0.8086 -0.2783 -0.8753
  188SLPC   C1421636   2.316   3.299   6.308  0.2272 -1.0227  0.6158
  188SLPC  H14A21637   2.221   3.276   6.262 -0.4981  3.4826 -0.6345
  188SLPC  H14B21638   2.323   3.257   6.407  2.3088 -0.4200  0.7706
  188SLPC  H14C21639   2.325   3.405   6.325 -1.9390 -1.0716  2.5348
  188SLPC   C1521640   2.418   3.120   6.182 -0.3928  0.2009 -0.0695
  188SLPC  H15A21641   2.316   3.090   6.160 -0.4455  0.7533 -0.5938
  188SLPC  H15B21642   2.474   3.091   6.094 -1.5404  2.2825 -1.5744
  188SLPC  H15C21643   2.463   3.062   6.261 -0.4463  0.4604  0.1539
  188SLPC   C1221644   2.431   3.363   6.096  0.0502 -1.4433 -0.4613
  188SLPC  H12A21645   2.333   3.377   6.052 -0.4999 -1.5405  0.6808
  188SLPC  H12B21646   2.499   3.335   6.017 -0.9490  3.1383 -3.3020
  188SLPC   C1121647   2.456   3.511   6.134 -0.1224 -0.6266  0.1517
  188SLPC  H11A21648   2.375   3.543   6.203 -2.0574  0.4002 -2.4059
  188SLPC  H11B21649   2.441   3.580   6.048  0.7985 -1.7084 -0.9284
  188SLPC     P21650   2.707   3.564   6.098 -0.3538  0.2417 -0.6546
  188SLPC   O1321651   2.767   3.437   6.056 -0.3154 -0.0892 -0.5433
  188SLPC   O1421652   2.672   3.664   5.997  0.3579  0.2592 -0.0921
  188SLPC   O1221653   2.581   3.541   6.194  0.0466  0.1424  0.6192
  188SLPC   O1121654   2.803   3.636   6.208  0.4037  0.1594 -0.0275
  188SLPC    C121655   2.768   3.735   6.295 -0.6520  0.5704  0.4070
  188SLPC    HA21656   2.851   3.808   6.308 -0.4473  0.6861 -1.3754
  188SLPC    HB21657   2.677   3.782   6.252  0.1218  0.2289 -1.6869
  188SLPC    C221658   2.728   3.690   6.435 -0.9633 -0.1811 -0.2723
  188SLPC    HS21659   2.624   3.654   6.418 -1.3228  1.1420 -1.0178
  188SLPC   O2121660   2.727   3.814   6.514 -0.7405 -0.4547 -0.4969
  188SLPC   C2121661   2.637   3.817   6.610  0.0412 -0.6244  0.3334
  188SLPC   O2221662   2.549   3.734   6.639 -0.2904 -0.4381  0.5417
  188SLPC   C2221663   2.674   3.938   6.692  0.2947  0.2038 -0.2643
  188SLPC   H2R21664   2.782   3.929   6.713  0.0586 -0.4731  0.7122
  188SLPC   H2S21665   2.655   4.031   6.633 -1.8118  0.8752  1.3441
  188SLPC    C321666   2.842   3.596   6.498 -0.9789  0.2530 -1.0480
  188SLPC    HX21667   2.942   3.643   6.486 -0.7692  0.4042  0.9489
  188SLPC    HY21668   2.842   3.505   6.434  1.2567 -1.2653  0.9057
  188SLPC   O3121669   2.824   3.562   6.634 -0.1593 -0.1930 -0.2159
  188SLPC   C3121670   2.740   3.460   6.658  0.1914  0.9305  0.2623
  188SLPC   O3221671   2.649   3.418   6.585  0.0932 -0.2298  0.3399
  188SLPC   C3221672   2.770   3.403   6.799 -0.9012  0.4680  0.0032
  188SLPC   H2X21673   2.781   3.491   6.865  1.0172  0.2071  0.0960
  188SLPC   H2Y21674   2.864   3.344   6.798 -0.4025  1.2522 -0.4265
  188SLPC   C2321675   2.588   3.942   6.822 -0.3214 -0.0603  0.0425
  188SLPC   H3R21676   2.482   3.918   6.799  0.2670 -2.1728 -0.6785
  188SLPC   H3S21677   2.587   4.044   6.866 -1.7229 -0.8327  1.9563
  188SLPC   C2421678   2.640   3.847   6.931  0.0494 -0.5227  1.0098
  188SLPC   H4R21679   2.738   3.885   6.969 -0.2763 -0.7370  2.0875
  188SLPC   H4S21680   2.650   3.747   6.885  0.7336  0.3130 -0.7499
  188SLPC   C2521681   2.542   3.848   7.050  0.0357 -0.2835 -0.1611
  188SLPC   H5R21682   2.445   3.810   7.010  0.8592 -0.4039 -2.1319
  188SLPC   H5S21683   2.509   3.949   7.083 -2.6034 -0.7759 -0.9841
  188SLPC   C2621684   2.582   3.757   7.162  1.0035  0.0713  0.2408
  188SLPC   H6R21685   2.632   3.664   7.127 -0.3638 -0.3557 -0.6521
  188SLPC   H6S21686   2.490   3.719   7.212  0.7026 -0.3061 -0.5859
  188SLPC   C2721687   2.668   3.833   7.260  0.1606  1.1075  0.5903
  188SLPC   H7R21688   2.621   3.930   7.287 -0.6991  0.5151  1.2937
  188SLPC   H7S21689   2.766   3.839   7.209 -0.2636 -0.6266 -0.5412
  188SLPC   C2821690   2.693   3.769   7.401  0.1880 -0.3260 -0.3706
  188SLPC   H8R21691   2.757   3.679   7.389  3.4951  2.1237 -3.5318
  188SLPC   H8S21692   2.588   3.738   7.421  0.5550 -0.7781  0.9085
  188SLPC   C2921693   2.732   3.846   7.517 -0.3602 -0.7257 -0.5505
  188SLPC   H9R21694   2.685   3.945   7.517  1.3671  0.1280 -0.8231
  188SLPC  C21021695   2.778   3.792   7.635  0.7938 -0.0932  0.5162
  188SLPC  H10R21696   2.815   3.862   7.711  1.2637  1.9972 -1.5074
  188SLPC  C21121697   2.810   3.649   7.660 -0.8115  0.0009 -0.0394
  188SLPC  H11R21698   2.918   3.639   7.636 -0.6883  1.9493 -0.4365
  188SLPC  H11S21699   2.758   3.580   7.590  2.7142 -1.9818 -0.9223
  188SLPC  C21221700   2.791   3.610   7.804 -0.0524 -0.6542  0.2963
  188SLPC  H12R21701   2.692   3.565   7.817 -0.4466  0.1553  0.1165
  188SLPC  C21321702   2.872   3.624   7.909  0.0534 -0.1150  0.0637
  188SLPC  H13R21703   2.838   3.588   8.007  0.4775  1.0108  0.6430
  188SLPC  C21421704   3.004   3.692   7.914  0.0951 -0.3504 -0.3056
  188SLPC  H14R21705   3.042   3.723   7.814 -0.7691 -0.2592 -0.6161
  188SLPC  H14S21706   3.080   3.623   7.955 -0.1470  0.2342  1.1799
  188SLPC  C21521707   3.001   3.811   8.010  0.2573 -0.0192 -0.5703
  188SLPC  H15R21708   3.103   3.847   8.035  1.1230 -1.5797 -1.6723
  188SLPC  H15S21709   2.954   3.773   8.103 -1.0132  1.6125 -0.4949
  188SLPC  C21621710   2.910   3.932   7.976 -0.1147 -0.0573  0.5844
  188SLPC  H16R21711   2.806   3.894   7.970  1.2183 -4.3014  0.9554
  188SLPC  H16S21712   2.951   3.970   7.880 -2.2282  0.7153 -0.0456
  188SLPC  C21721713   2.924   4.051   8.079  0.2587 -0.3571  0.1834
  188SLPC  H17R21714   2.897   4.009   8.178 -0.2770  1.2606  0.7626
  188SLPC  H17S21715   2.850   4.129   8.052 -2.8589 -2.9361  0.6958
  188SLPC  C21821716   3.063   4.109   8.079  0.3163 -0.0918 -0.7705
  188SLPC  H18R21717   3.146   4.046   8.118  0.2828 -0.9690 -2.0780
  188SLPC  H18S21718   3.074   4.205   8.135 -1.6013  0.5746 -1.4647
  188SLPC  H18T21719   3.083   4.143   7.976 -2.6414  2.0587 -0.7723
  188SLPC   C3321720   2.659   3.309   6.847  0.7459 -0.2482  0.5882
  188SLPC   H3X21721   2.650   3.227   6.772  0.9459 -1.7540  2.1428
  188SLPC   H3Y21722   2.563   3.365   6.854  0.8119  0.0980 -1.0523
  188SLPC   C3421723   2.676   3.246   6.981 -0.0141  0.0019 -0.1391
  188SLPC   H4X21724   2.767   3.183   6.985 -0.8608 -1.2203  0.4407
  188SLPC   H4Y21725   2.594   3.173   6.999  1.8174 -2.2060 -0.2679
  188SLPC   C3521726   2.688   3.348   7.096 -0.0393 -0.0657  0.0515
  188SLPC   H5X21727   2.601   3.417   7.097  0.2876  0.4248  2.5863
  188SLPC   H5Y21728   2.786   3.400   7.089  0.0588 -0.1464  0.6934
  188SLPC   C3621729   2.677   3.269   7.225 -0.5488 -0.7373 -0.1609
  188SLPC   H6X21730   2.740   3.178   7.223  0.9733  0.2919 -0.1742
  188SLPC   H6Y21731   2.568   3.245   7.230 -0.7582  0.1104 -0.4880
  188SLPC   C3721732   2.706   3.365   7.349 -0.3874  0.6892 -0.4732
  188SLPC   H7X21733   2.656   3.464   7.356 -0.9934  0.3504  0.0947
  188SLPC   H7Y21734   2.816   3.385   7.355 -0.2503 -0.4099  1.8906
  188SLPC   C3821735   2.665   3.293   7.481 -0.0301  0.7222 -0.7811
  188SLPC   H8X21736   2.557   3.306   7.503  0.4923  2.7412  1.0354
  188SLPC   H8Y21737   2.708   3.358   7.561 -1.0722  1.6053 -0.9127
  188SLPC   C3921738   2.693   3.143   7.482  0.6217  0.0727  0.0935
  188SLPC   H9X21739   2.799   3.115   7.465  0.0331 -1.8514 -0.7378
  188SLPC   H9Y21740   2.630   3.095   7.404  2.3861 -1.5531 -0.4090
  188SLPC  C31021741   2.647   3.074   7.612  0.3025  0.8281 -0.1166
  188SLPC  H10X21742   2.631   2.965   7.596  2.5751  0.5179 -0.6298
  188SLPC  H10Y21743   2.544   3.112   7.631 -0.8350 -2.1885  0.3126
  188SLPC  C31121744   2.741   3.096   7.727 -0.2328 -1.0456 -0.9101
  188SLPC  H11X21745   2.776   3.201   7.739  0.7517 -1.6115  1.7334
  188SLPC  H11Y21746   2.832   3.033   7.719  0.7942  0.0917  1.0797
  188SLPC  C31221747   2.679   3.043   7.853 -0.1601 -0.1646  0.2944
  188SLPC  H12X21748   2.671   2.933   7.836  2.3626  0.0143 -3.0056
  188SLPC  H12Y21749   2.582   3.096   7.860 -0.4757 -0.6782 -0.1195
  188SLPC  C31321750   2.761   3.069   7.981 -0.1025 -0.2345 -0.6122
  188SLPC  H13X21751   2.865   3.035   7.960 -0.1641 -1.2195  0.5947
  188SLPC  H13Y21752   2.715   3.012   8.064  0.2647  0.5535  0.1428
  188SLPC  C31421753   2.765   3.214   8.021  0.1718  0.5685 -0.4828
  188SLPC  H14X21754   2.661   3.242   8.048  0.1797  0.5076 -0.3881
  188SLPC  H14Y21755   2.791   3.279   7.935 -0.7986  3.4037  1.2195
  188SLPC  C31521756   2.857   3.241   8.142  0.2921 -0.2566  0.3477
  188SLPC  H15X21757   2.959   3.200   8.127  1.2052  2.4051 -1.2070
  188SLPC  H15Y21758   2.817   3.198   8.237  0.9832  0.8817  1.1702
  188SLPC  C31621759   2.889   3.393   8.160 -0.2191  0.3626 -0.2172
  188SLPC  H16X21760   2.798   3.451   8.134  1.3725  2.6028 -0.9928
  188SLPC  H16Y21761   2.964   3.417   8.082 -1.4152 -2.5074 -2.4551
  188SLPC  C31721762   2.933   3.425   8.303  0.0931  0.7491  0.1658
  188SLPC  H17X21763   3.037   3.400   8.330  0.8209  3.2049 -0.0685
  188SLPC  H17Y21764   2.853   3.382   8.367 -0.8703 -0.6160 -1.8559
  188SLPC  C31821765   2.920   3.578   8.322  0.3489  0.1300 -1.0979
  188SLPC  H18X21766   2.981   3.632   8.247  1.4681  0.8167  0.2608
  188SLPC  H18Y21767   2.960   3.604   8.422 -1.9267  0.7898 -0.2949
  188SLPC  H18Z21768   2.816   3.612   8.301  0.6717  0.0018 -3.0581
  189SLPC     N21769   4.295   0.115   5.562  0.5106 -0.3492  0.0027
  189SLPC   C1321770   4.152   0.078   5.580  0.1918  0.1044 -0.0950
  189SLPC  H13A21771   4.103   0.048   5.488  0.5748 -1.8580  0.2849
  189SLPC  H13B21772   4.138  -0.000   5.653 -1.1676  0.8441  0.4588
  189SLPC  H13C21773   4.091   0.151   5.630 -0.9898 -1.8278  1.4455
  189SLPC   C1421774   4.309   0.215   5.453 -1.2463  0.0119  0.3462
  189SLPC  H14A21775   4.306   0.167   5.357 -0.7587  1.4714 -0.4226
  189SLPC  H14B21776   4.236   0.295   5.458 -0.9952  0.2962 -0.5662
  189SLPC  H14C21777   4.403   0.267   5.455 -1.6849  0.8702 -0.6606
  189SLPC   C1521778   4.365  -0.008   5.527  0.0325 -0.3093 -0.5732
  189SLPC  H15A21779   4.344  -0.077   5.606 -1.4332  1.6770  0.8765
  189SLPC  H15B21780   4.330  -0.050   5.433  0.0051 -0.8889 -0.3076
  189SLPC  H15C21781   4.471   0.013   5.525  0.1123 -0.7246 -0.7615
  189SLPC   C1221782   4.350   0.167   5.702  0.1333 -0.1116  0.3779
  189SLPC  H12A21783   4.331   0.086   5.771 -1.2572 -0.3068 -0.1951
  189SLPC  H12B21784   4.277   0.238   5.738 -0.3686  0.2064 -1.1581
  189SLPC   C1121785   4.496   0.216   5.704  0.3264 -0.8232 -0.0750
  189SLPC  H11A21786   4.509   0.290   5.786  0.5795 -2.2186  1.1932
  189SLPC  H11B21787   4.529   0.260   5.608  0.9287 -1.8415 -0.3430
  189SLPC     P21788   4.650   0.059   5.859 -0.4775 -0.3587 -0.0986
  189SLPC   O1321789   4.652  -0.090   5.870  0.2371  0.1439 -0.2187
  189SLPC   O1421790   4.777   0.124   5.865 -0.7094 -0.1941 -0.0973
  189SLPC   O1221791   4.587   0.108   5.721 -0.0689  0.8912  0.4929
  189SLPC   O1121792   4.556   0.122   5.977  0.4959  0.0010  0.3267
  189SLPC    C121793   4.619   0.131   6.101 -0.0549  0.1782 -0.8833
  189SLPC    HA21794   4.630   0.033   6.152 -0.2171  0.4946 -0.2308
  189SLPC    HB21795   4.719   0.179   6.100  0.6737 -1.2951 -1.0908
  189SLPC    C221796   4.527   0.237   6.187 -0.8512 -0.0714  0.4410
  189SLPC    HS21797   4.600   0.278   6.260  1.4259 -0.4287 -1.4833
  189SLPC   O2121798   4.426   0.164   6.248  0.1453 -0.0071 -0.7751
  189SLPC   C2121799   4.461   0.082   6.349 -0.2634  1.1233 -0.1774
  189SLPC   O2221800   4.577   0.067   6.388 -0.9088  0.6178  0.2392
  189SLPC   C2221801   4.334   0.018   6.411  0.0086 -0.1348  0.3001
  189SLPC   H2R21802   4.252   0.089   6.437 -0.2648 -0.3450  0.0325
  189SLPC   H2S21803   4.298  -0.053   6.333  1.2344 -0.4753  0.0305
  189SLPC    C321804   4.464   0.352   6.107  0.2662 -1.1632  0.5020
  189SLPC    HX21805   4.378   0.313   6.049  0.0767 -2.4471  1.6029
  189SLPC    HY21806   4.548   0.375   6.037  0.6825  0.3653  1.4473
  189SLPC   O3121807   4.433   0.475   6.172 -0.2482 -0.4636 -0.4080
  189SLPC   C3121808   4.324   0.488   6.242 -0.1241 -0.2568  0.5734
  189SLPC   O3221809   4.236   0.401   6.245 -0.2352 -0.6429 -0.5038
  189SLPC   C3221810   4.336   0.608   6.329 -0.3025 -0.2543 -0.2418
  189SLPC   H2X21811   4.324   0.695   6.261 -2.2596 -0.0361  0.3226
  189SLPC   H2Y21812   4.438   0.611   6.373 -0.6834  1.2694  0.6001
  189SLPC   C2321813   4.372  -0.055   6.542 -0.9682  0.1018 -0.5379
  189SLPC   H3R21814   4.470  -0.107   6.542  0.5821  2.7883  0.9505
  189SLPC   H3S21815   4.289  -0.129   6.552  0.5081 -1.4201  1.0606
  189SLPC   C2421816   4.355   0.036   6.665 -0.4337  0.6580  1.0781
  189SLPC   H4R21817   4.255   0.084   6.661 -0.5946  0.2579 -0.0431
  189SLPC   H4S21818   4.436   0.111   6.655 -1.2229  1.2944 -1.1680
  189SLPC   C2521819   4.384  -0.037   6.798 -0.9141 -0.3051  0.4590
  189SLPC   H5R21820   4.490  -0.069   6.800  0.4665  3.5896 -0.6277
  189SLPC   H5S21821   4.325  -0.130   6.812  0.7885 -1.3085  1.2149
  189SLPC   C2621822   4.355   0.056   6.925  0.3896  0.3627 -0.0163
  189SLPC   H6R21823   4.246   0.078   6.926  0.5822  1.4862 -0.9141
  189SLPC   H6S21824   4.402   0.156   6.913 -1.4339  1.0169 -2.5710
  189SLPC   C2721825   4.396  -0.010   7.059  0.2610 -0.7505 -0.6043
  189SLPC   H7R21826   4.505  -0.031   7.053  0.2245 -1.1788  0.0874
  189SLPC   H7S21827   4.344  -0.107   7.076  0.0014 -0.3481  1.1760
  189SLPC   C2821828   4.364   0.078   7.179  0.1279  0.3742  0.2748
  189SLPC   H8R21829   4.383   0.013   7.268  2.1180 -0.5137 -0.7284
  189SLPC   H8S21830   4.257   0.108   7.182 -0.2433 -0.9003  0.4290
  189SLPC   C2921831   4.447   0.203   7.181 -0.0522 -0.1556 -0.2993
  189SLPC   H9R21832   4.488   0.240   7.086 -1.6126  1.7988 -0.2651
  189SLPC  C21021833   4.481   0.274   7.293  0.2090 -0.4959  0.5205
  189SLPC  H10R21834   4.558   0.351   7.281 -0.0873 -0.1647  0.6987
  189SLPC  C21121835   4.438   0.246   7.431  0.3734 -0.3896 -0.3508
  189SLPC  H11R21836   4.488   0.155   7.468 -0.8764 -0.3073  1.6886
  189SLPC  H11S21837   4.328   0.232   7.438  0.1903  0.6195 -0.9276
  189SLPC  C21221838   4.460   0.358   7.527 -0.6292  0.8890  0.0147
  189SLPC  H12R21839   4.485   0.457   7.485 -0.9282  0.8562 -0.2485
  189SLPC  C21321840   4.428   0.349   7.661  0.6501 -0.1777 -0.0693
  189SLPC  H13R21841   4.472   0.428   7.723 -0.6807  1.0202 -0.5870
  189SLPC  C21421842   4.365   0.234   7.743 -0.1495 -0.6132 -0.6275
  189SLPC  H14R21843   4.419   0.225   7.840  2.0237  2.7920 -1.3887
  189SLPC  H14S21844   4.377   0.138   7.688 -2.7707 -1.7240  0.5504
  189SLPC  C21521845   4.225   0.266   7.775  0.0639 -0.5832 -0.1839
  189SLPC  H15R21846   4.157   0.259   7.688  0.4817  2.6621 -0.9033
  189SLPC  H15S21847   4.210   0.366   7.820  1.0668 -0.4018 -0.2454
  189SLPC  C21621848   4.171   0.170   7.878  0.5303  0.9225  0.5183
  189SLPC  H16R21849   4.192   0.067   7.841  1.1940  1.4410 -0.6272
  189SLPC  H16S21850   4.061   0.179   7.867  0.5699 -0.5457 -1.8146
  189SLPC  C21721851   4.205   0.201   8.028 -0.3133 -0.2547  0.5079
  189SLPC  H17R21852   4.166   0.305   8.030 -2.7794 -0.8787 -3.3685
  189SLPC  H17S21853   4.315   0.214   8.037 -0.0569  0.0336 -2.1839
  189SLPC  C21821854   4.132   0.125   8.135 -0.0441 -0.2087 -0.0924
  189SLPC  H18R21855   4.023   0.139   8.117  0.3203  0.6648 -1.7914
  189SLPC  H18S21856   4.166   0.159   8.235  0.2873 -0.9310  0.0509
  189SLPC  H18T21857   4.161   0.018   8.128  1.0353 -0.0365  1.4445
  189SLPC   C3321858   4.220   0.629   6.432  0.9318  0.2478  0.3566
  189SLPC   H3X21859   4.201   0.539   6.494 -0.1151  0.2474  0.0465
  189SLPC   H3Y21860   4.135   0.658   6.367  1.7947 -1.1917 -1.5039
  189SLPC   C3421861   4.244   0.735   6.534 -0.1239 -0.5239 -0.4542
  189SLPC   H4X21862   4.282   0.817   6.469 -0.0760 -1.0938 -1.1583
  189SLPC   H4Y21863   4.325   0.690   6.595 -0.0213  0.5540  0.2534
  189SLPC   C3521864   4.124   0.781   6.628 -0.3459 -0.1793  0.2938
  189SLPC   H5X21865   4.076   0.696   6.681 -2.5154  2.0616  2.1695
  189SLPC   H5Y21866   4.049   0.835   6.566 -2.2395 -1.0020  1.7593
  189SLPC   C3621867   4.174   0.875   6.742 -0.1590 -0.0240  0.1067
  189SLPC   H6X21868   4.206   0.968   6.690 -0.9446 -0.1202 -0.5709
  189SLPC   H6Y21869   4.264   0.824   6.783  1.3552  1.9982 -0.5079
  189SLPC   C3721870   4.068   0.905   6.842  0.3993 -0.2876 -0.4077
  189SLPC   H7X21871   4.011   0.815   6.873 -1.8615  2.1589  3.3579
  189SLPC   H7Y21872   3.997   0.981   6.805 -1.2283 -1.2828  0.5770
  189SLPC   C3821873   4.122   0.965   6.976  0.0624  0.4399 -0.5420
  189SLPC   H8X21874   4.137   1.072   6.952 -2.8773  0.5426 -2.4421
  189SLPC   H8Y21875   4.218   0.916   7.002  0.9762  2.3957 -0.0549
  189SLPC   C3921876   4.017   0.936   7.092  0.0980  0.0059  0.4749
  189SLPC   H9X21877   4.042   0.846   7.152 -1.2099 -0.2454  0.6807
  189SLPC   H9Y21878   3.920   0.910   7.044  0.6186 -0.4657 -0.3589
  189SLPC  C31021879   3.986   1.060   7.180 -0.4336 -0.0768 -0.3686
  189SLPC  H10X21880   3.911   1.121   7.125 -1.0711  1.0762  1.6677
  189SLPC  H10Y21881   4.080   1.119   7.190  0.1203 -0.6690 -1.8662
  189SLPC  C31121882   3.920   1.015   7.313 -0.1714  0.7880 -0.1209
  189SLPC  H11X21883   3.982   0.929   7.345 -1.0099  1.1620  2.7252
  189SLPC  H11Y21884   3.816   0.980   7.296  0.1428 -0.7479  0.9265
  189SLPC  C31221885   3.926   1.110   7.438  0.3636 -0.7597 -0.0656
  189SLPC  H12X21886   3.865   1.202   7.421 -0.6195 -1.1586  1.2037
  189SLPC  H12Y21887   4.032   1.144   7.443  0.3078 -0.5984  0.0385
  189SLPC  C31321888   3.890   1.037   7.566  0.1110  0.9115  0.2753
  189SLPC  H13X21889   3.919   0.930   7.552 -2.3859  0.2572 -0.3786
  189SLPC  H13Y21890   3.783   1.038   7.594 -0.1068  0.7609 -0.5401
  189SLPC  C31421891   3.964   1.101   7.687 -0.3570 -0.4618 -0.6858
  189SLPC  H14X21892   4.011   1.200   7.666  0.7027 -1.0339 -1.0931
  189SLPC  H14Y21893   4.049   1.039   7.725 -1.3886 -3.1289 -2.4536
  189SLPC  C31521894   3.869   1.112   7.808 -0.6171  0.1050 -0.3683
  189SLPC  H15X21895   3.832   1.008   7.815 -0.4931  0.1140  0.4678
  189SLPC  H15Y21896   3.787   1.183   7.781  0.1779  0.7928 -1.0400
  189SLPC  C31621897   3.931   1.148   7.940 -0.5402 -0.2540  0.2190
  189SLPC  H16X21898   3.998   1.237   7.932 -0.9609  0.1099  0.6706
  189SLPC  H16Y21899   4.014   1.078   7.962 -0.4457 -0.5834 -1.1189
  189SLPC  C31721900   3.832   1.177   8.048  0.0381 -0.2672  0.0304
  189SLPC  H17X21901   3.768   1.262   8.017  2.2452  1.7665  0.7148
  189SLPC  H17Y21902   3.879   1.222   8.138  2.5828  0.3454 -1.4700
  189SLPC  C31821903   3.737   1.056   8.091 -0.3839 -0.6507 -0.0156
  189SLPC  H18X21904   3.645   1.086   8.145 -0.0988 -1.1675  0.7666
  189SLPC  H18Y21905   3.791   0.994   8.165  0.8859  2.6060  2.0231
  189SLPC  H18Z21906   3.704   0.999   8.002 -2.7368 -0.9151  0.9559
  190SLPC     N21907   3.889   6.035   5.647  0.1084  0.2789  0.2122
  190SLPC   C1321908   3.795   5.921   5.693 -0.3757 -0.1384 -0.0803
  190SLPC  H13A21909   3.695   5.954   5.670 -0.2624 -0.2128 -0.6944
  190SLPC  H13B21910   3.816   5.830   5.640 -1.0484 -0.7325  0.6445
  190SLPC  H13C21911   3.796   5.903   5.800 -1.2757 -2.3132 -0.3938
  190SLPC   C1421912   3.860   6.057   5.505 -0.2447  0.5195  0.1225
  190SLPC  H14A21913   3.865   5.963   5.452  1.2460 -1.0995  2.9083
  190SLPC  H14B21914   3.758   6.090   5.490 -0.2319  1.0029  1.0246
  190SLPC  H14C21915   3.931   6.130   5.469  0.5022  1.5962  3.3855
  190SLPC   C1521916   4.028   5.981   5.657  0.1763  0.2397  0.0012
  190SLPC  H15A21917   4.048   5.961   5.761  3.7446  0.9382 -0.4212
  190SLPC  H15B21918   4.028   5.886   5.606 -0.1393  1.0500 -1.5881
  190SLPC  H15C21919   4.104   6.042   5.610 -0.0057 -0.7440 -1.6617
  190SLPC   C1221920   3.892   6.161   5.740  0.3583 -0.3288 -0.0203
  190SLPC  H12A21921   3.798   6.214   5.734 -1.1177 -2.4045  2.4819
  190SLPC  H12B21922   3.964   6.232   5.702 -1.2655  1.4244  0.0253
  190SLPC   C1121923   3.907   6.133   5.895  0.1549  0.1200 -0.2626
  190SLPC  H11A21924   3.921   6.230   5.946  0.3672  0.7045 -1.4129
  190SLPC  H11B21925   4.004   6.082   5.910  0.7583  0.6384 -2.1697
  190SLPC     P21926   3.660   6.088   5.990  0.1376 -0.3250  0.4447
  190SLPC   O1321927   3.610   6.179   5.881 -0.0999  0.2898 -0.0345
  190SLPC   O1421928   3.574   5.973   6.006  0.6790 -0.0998 -0.2382
  190SLPC   O1221929   3.805   6.050   5.959 -0.0545  0.1201 -0.0140
  190SLPC   O1121930   3.675   6.171   6.129  0.7461 -0.6063 -0.3293
  190SLPC    C121931   3.760   6.119   6.234 -0.0721 -0.7530  0.0129
  190SLPC    HA21932   3.836   6.056   6.184 -0.1951  1.2273 -2.8997
  190SLPC    HB21933   3.808   6.203   6.288 -0.6170 -1.4088  1.5790
  190SLPC    C221934   3.676   6.039   6.343 -0.1784  0.0312  0.2110
  190SLPC    HS21935   3.603   5.983   6.280  0.6985 -0.5432 -0.3221
  190SLPC   O2121936   3.596   6.129   6.427 -0.1884 -0.5404  0.5102
  190SLPC   C2121937   3.505   6.079   6.510  0.0225  0.7571  0.3394
  190SLPC   O2221938   3.476   5.962   6.528 -0.1682 -0.4051 -0.2459
  190SLPC   C2221939   3.447   6.201   6.590  0.0710 -0.2501  0.7691
  190SLPC   H2R21940   3.514   6.289   6.583 -1.6985  1.0337 -1.7205
  190SLPC   H2S21941   3.354   6.229   6.537  1.6102  1.2814 -1.2756
  190SLPC    C321942   3.763   5.935   6.426 -0.3780  0.5311  0.5927
  190SLPC    HX21943   3.814   5.871   6.351  0.0541  1.7114 -0.1383
  190SLPC    HY21944   3.694   5.866   6.480 -1.4413 -0.9565 -2.4323
  190SLPC   O3121945   3.863   6.005   6.493 -0.4316  0.1147  0.2603
  190SLPC   C3121946   3.921   5.948   6.596 -0.4802 -0.0069 -0.4111
  190SLPC   O3221947   3.888   5.839   6.637 -0.6832 -0.2587 -0.2390
  190SLPC   C3221948   4.040   6.025   6.652  0.4508  0.3942 -0.1306
  190SLPC   H2X21949   4.030   6.133   6.629  2.3055  0.6417  0.0340
  190SLPC   H2Y21950   4.131   6.001   6.593  1.5469  1.3456  1.1075
  190SLPC   C2321951   3.421   6.163   6.730  0.7846  0.7018  0.2580
  190SLPC   H3R21952   3.372   6.064   6.743  0.5076  0.7049 -0.7159
  190SLPC   H3S21953   3.345   6.233   6.770  0.2068 -0.4841  1.3050
  190SLPC   C2421954   3.554   6.159   6.818  0.3454 -0.2636  0.2055
  190SLPC   H4R21955   3.613   6.243   6.776  0.7858 -0.5958  0.1440
  190SLPC   H4S21956   3.616   6.068   6.804  0.1499 -0.5137  0.9111
  190SLPC   C2521957   3.531   6.174   6.971  0.0199 -0.0942  0.8349
  190SLPC   H5R21958   3.496   6.277   6.996  0.1652 -0.1043  1.0832
  190SLPC   H5S21959   3.626   6.170   7.027 -1.1314 -2.0361  2.7734
  190SLPC   C2621960   3.445   6.066   7.031 -0.4463  0.7208  0.4778
  190SLPC   H6R21961   3.482   5.963   7.009 -1.7870  0.2886  0.1762
  190SLPC   H6S21962   3.348   6.076   6.978  0.4652  0.9103 -1.2157
  190SLPC   C2721963   3.435   6.078   7.181 -0.1744 -0.8621 -1.1610
  190SLPC   H7R21964   3.353   6.009   7.209 -1.4255  0.2538 -1.9946
  190SLPC   H7S21965   3.399   6.175   7.220 -0.2429 -1.8337  1.3752
  190SLPC   C2821966   3.560   6.031   7.260 -0.2684 -0.3789 -0.3913
  190SLPC   H8R21967   3.640   6.103   7.234  1.0328 -1.3944  0.6223
  190SLPC   H8S21968   3.609   5.938   7.224  0.2272 -0.6484  0.8999
  190SLPC   C2921969   3.538   6.010   7.409 -0.2337  0.5021  0.2860
  190SLPC   H9R21970   3.473   5.923   7.423 -0.8397  0.6299 -1.4740
  190SLPC  C21021971   3.603   6.079   7.506  0.3447  0.6544 -0.1336
  190SLPC  H10R21972   3.571   6.069   7.611 -2.2378  0.7637 -0.8272
  190SLPC  C21121973   3.704   6.195   7.486 -0.2551  0.4383  0.2661
  190SLPC  H11R21974   3.648   6.291   7.485 -1.7394 -0.3813 -0.3596
  190SLPC  H11S21975   3.757   6.183   7.389 -3.2422 -0.8407 -1.3536
  190SLPC  C21221976   3.814   6.186   7.590 -0.2527  0.0221  0.1054
  190SLPC  H12R21977   3.900   6.126   7.558  0.6327  1.3114  0.0014
  190SLPC  C21321978   3.809   6.261   7.703  0.3047 -0.0577 -0.0620
  190SLPC  H13R21979   3.881   6.251   7.786 -1.7254 -0.3599  1.7612
  190SLPC  C21421980   3.695   6.355   7.745 -0.6619 -0.2013 -0.3964
  190SLPC  H14R21981   3.605   6.357   7.679 -0.7926 -0.6295 -0.2341
  190SLPC  H14S21982   3.736   6.458   7.757  1.1491 -0.9997  0.6570
  190SLPC  C21521983   3.635   6.314   7.886  0.1178  0.0362 -0.3830
  190SLPC  H15R21984   3.716   6.324   7.961 -1.8015 -0.5328  1.8911
  190SLPC  H15S21985   3.600   6.209   7.875 -2.2375  0.8275 -1.0796
  190SLPC  C21621986   3.514   6.404   7.922 -0.3589 -0.1985 -0.1381
  190SLPC  H16R21987   3.432   6.394   7.848 -0.3930  2.0895 -0.4821
  190SLPC  H16S21988   3.549   6.509   7.923  2.9185 -1.1668 -0.7291
  190SLPC  C21721989   3.443   6.360   8.056 -0.1960 -1.0166  0.9867
  190SLPC  H17R21990   3.374   6.278   8.025 -0.5019 -0.7926  1.0665
  190SLPC  H17S21991   3.390   6.453   8.086 -1.5853 -1.0125 -1.2357
  190SLPC  C21821992   3.533   6.324   8.172  0.3863  0.4448  0.0511
  190SLPC  H18R21993   3.590   6.419   8.183 -0.0610  0.9058 -1.2942
  190SLPC  H18S21994   3.602   6.240   8.149 -0.7934 -1.2713  2.3745
  190SLPC  H18T21995   3.482   6.290   8.264  0.1746  1.5235  0.3438
  190SLPC   C3321996   4.051   5.997   6.811  0.0178 -0.4294  0.4609
  190SLPC   H3X21997   4.154   6.018   6.849  0.5622 -0.2426 -1.0542
  190SLPC   H3Y21998   4.050   5.888   6.832  0.0451 -0.0840  2.5250
  190SLPC   C3421999   3.961   6.093   6.885 -0.0078 -0.1856  0.2902
  190SLPC   H4X22000   3.855   6.100   6.853  0.4787  1.7135 -1.0766
  190SLPC   H4Y22001   3.996   6.198   6.882 -0.3634 -0.0653  0.3077
  190SLPC   C3522002   3.961   6.056   7.038  0.0646 -0.1555 -0.1387
  190SLPC   H5X22003   3.918   6.151   7.077  1.8874 -0.1524  2.0420
  190SLPC   H5Y22004   4.064   6.058   7.079 -0.3649 -1.1800  1.0653
  190SLPC   C3622005   3.874   5.933   7.075 -0.5387 -1.1566  0.3464
  190SLPC   H6X22006   3.880   5.856   6.994  0.7899  0.4435 -1.1445
  190SLPC   H6Y22007   3.769   5.967   7.061  0.4843  1.3115 -2.2261
  190SLPC   C3722008   3.895   5.853   7.200 -0.0480 -0.2268 -0.1025
  190SLPC   H7X22009   3.849   5.754   7.182 -1.9657  0.6279 -0.0948
  190SLPC   H7Y22010   3.834   5.907   7.275 -1.8324 -1.1588 -0.8227
  190SLPC   C3822011   4.034   5.829   7.245  0.2315  0.6623  0.0300
  190SLPC   H8X22012   4.087   5.923   7.270  1.2771  0.7262 -2.2520
  190SLPC   H8Y22013   4.089   5.792   7.157 -1.5743 -1.1602 -0.4140
  190SLPC   C3922014   4.047   5.718   7.346 -0.0605  0.2102 -0.6450
  190SLPC   H9X22015   4.153   5.713   7.380 -0.8318  1.8608  2.4093
  190SLPC   H9Y22016   4.017   5.618   7.309  0.0554  0.2649 -0.8834
  190SLPC  C31022017   3.984   5.761   7.480  0.1461  0.3147 -0.4803
  190SLPC  H10X22018   3.873   5.763   7.475  0.0223 -0.2743  1.3680
  190SLPC  H10Y22019   4.020   5.864   7.502 -0.7320  0.3556  0.8911
  190SLPC  C31122020   4.010   5.664   7.594 -0.1188  0.5161  0.4542
  190SLPC  H11X22021   4.117   5.670   7.624  0.6283  0.8180 -2.0153
  190SLPC  H11Y22022   3.987   5.565   7.549  1.8837  1.5025 -3.1481
  190SLPC  C31222023   3.927   5.691   7.718 -0.1301  0.0981  0.0056
  190SLPC  H12X22024   3.825   5.728   7.695 -0.7898 -0.0924  2.2825
  190SLPC  H12Y22025   3.977   5.782   7.758 -1.1642  1.2899 -1.3143
  190SLPC  C31322026   3.920   5.576   7.817 -0.2843  1.1327 -0.6224
  190SLPC  H13X22027   4.022   5.540   7.841 -1.4917 -0.6751  2.3736
  190SLPC  H13Y22028   3.864   5.496   7.764  2.1845 -0.6355 -0.7256
  190SLPC  C31422029   3.856   5.612   7.953  0.1877  0.2686  0.0680
  190SLPC  H14X22030   3.749   5.610   7.923  0.5397  0.7738 -1.3090
  190SLPC  H14Y22031   3.883   5.712   7.991  1.9246 -0.2331  0.2396
  190SLPC  C31522032   3.896   5.522   8.076  0.4466 -0.6093  0.2357
  190SLPC  H15X22033   4.007   5.522   8.070  0.5234  0.0016  1.4748
  190SLPC  H15Y22034   3.866   5.415   8.070  1.2631 -0.7756 -1.5498
  190SLPC  C31622035   3.819   5.566   8.196 -0.2054 -0.7353 -0.4774
  190SLPC  H16X22036   3.834   5.501   8.284 -1.1470 -1.0282 -0.5293
  190SLPC  H16Y22037   3.713   5.556   8.164 -0.2579  0.9498 -0.9664
  190SLPC  C31722038   3.836   5.715   8.241 -0.6975 -0.0506 -0.3513
  190SLPC  H17X22039   3.797   5.788   8.167  0.4209 -0.3725 -1.2896
  190SLPC  H17Y22040   3.943   5.747   8.242 -1.2176  1.8613 -0.6040
  190SLPC  C31822041   3.762   5.742   8.369 -1.2609 -0.3036 -0.8765
  190SLPC  H18X22042   3.744   5.851   8.376 -0.1872 -0.1642 -0.1153
  190SLPC  H18Y22043   3.828   5.715   8.454 -0.6479  0.6466 -1.0366
  190SLPC  H18Z22044   3.659   5.703   8.381 -1.8861  1.5448  0.2551
  191SLPC     N22045   5.223   6.755   6.251  0.8541 -0.1709  0.0663
  191SLPC   C1322046   5.084   6.792   6.209 -0.3197  0.0841 -0.3118
  191SLPC  H13A22047   5.025   6.842   6.284 -0.5459  0.5097 -0.7720
  191SLPC  H13B22048   5.069   6.848   6.118  0.8771 -0.1353 -0.6643
  191SLPC  H13C22049   5.026   6.702   6.196  0.3624 -0.4252  0.0865
  191SLPC   C1422050   5.275   6.674   6.137 -0.4082  0.2289  0.3921
  191SLPC  H14A22051   5.364   6.616   6.157  0.1780  0.9906  0.0667
  191SLPC  H14B22052   5.195   6.616   6.094 -0.2337 -0.5936  1.1613
  191SLPC  H14C22053   5.311   6.733   6.054  1.5017 -1.6056 -0.1655
  191SLPC   C1522054   5.221   6.672   6.375 -0.1461 -0.0443  0.0873
  191SLPC  H15A22055   5.191   6.725   6.465 -0.2473  2.2654 -1.2256
  191SLPC  H15B22056   5.164   6.582   6.359  1.2660 -0.4744 -3.1750
  191SLPC  H15C22057   5.321   6.637   6.396 -0.1927 -0.1534  0.1303
  191SLPC   C1222058   5.312   6.876   6.265 -0.5979  0.0539  0.1166
  191SLPC  H12A22059   5.412   6.852   6.300 -0.6445  0.5802  0.6314
  191SLPC  H12B22060   5.271   6.932   6.348  1.4164 -0.9450  1.9101
  191SLPC   C1122061   5.322   6.972   6.144  0.4371  0.2281  0.5280
  191SLPC  H11A22062   5.346   7.071   6.189 -4.8267  1.9229  0.2316
  191SLPC  H11B22063   5.228   7.001   6.092 -0.0083 -4.7234 -1.9715
  191SLPC     P22064   5.577   6.944   6.095 -0.1131 -0.3243 -0.5319
  191SLPC   O1322065   5.670   6.901   5.992  0.3453  0.7090  0.4643
  191SLPC   O1422066   5.596   7.078   6.143  0.1232 -0.0456  0.1788
  191SLPC   O1222067   5.425   6.922   6.058 -0.1405 -0.7208  0.1123
  191SLPC   O1122068   5.597   6.846   6.212  0.4529  0.1034  0.0130
  191SLPC    C122069   5.697   6.863   6.315  0.7351  0.7559 -0.1778
  191SLPC    HA22070   5.758   6.773   6.337  0.0836  0.6775  1.4520
  191SLPC    HB22071   5.780   6.930   6.282  2.4024 -1.4556 -0.7028
  191SLPC    C222072   5.641   6.917   6.453 -1.0373 -0.4742  0.2383
  191SLPC    HS22073   5.728   6.913   6.522 -0.7508 -0.4080 -0.1138
  191SLPC   O2122074   5.532   6.834   6.510  0.5061 -0.0136  0.0932
  191SLPC   C2122075   5.567   6.719   6.561  0.2358 -0.3674 -0.4770
  191SLPC   O2222076   5.683   6.681   6.558  0.4225 -0.1629 -0.0644
  191SLPC   C2222077   5.452   6.658   6.634 -0.4908 -0.0725  0.0640
  191SLPC   H2R22078   5.352   6.705   6.624 -1.1514 -1.3071  0.6402
  191SLPC   H2S22079   5.455   6.554   6.594  0.3255  0.2660 -0.7649
  191SLPC    C322080   5.592   7.063   6.455 -0.1071 -0.7406  0.7001
  191SLPC    HX22081   5.489   7.065   6.413 -0.5704 -2.2225  1.6891
  191SLPC    HY22082   5.667   7.112   6.389 -0.3013 -3.2349 -1.5414
  191SLPC   O3122083   5.605   7.134   6.575 -0.1572  0.0055 -0.1851
  191SLPC   C3122084   5.496   7.141   6.652 -0.1393 -0.0031 -0.3817
  191SLPC   O3222085   5.387   7.099   6.625  0.2336 -0.2343  0.5876
  191SLPC   C3222086   5.534   7.211   6.785 -0.1821 -0.3478 -0.0052
  191SLPC   H2X22087   5.591   7.303   6.761  0.4249 -0.6575  0.2382
  191SLPC   H2Y22088   5.594   7.137   6.842  0.3197 -0.8866 -1.1891
  191SLPC   C2322089   5.482   6.659   6.790  0.3696  0.2101 -0.4344
  191SLPC   H3R22090   5.587   6.640   6.821  0.3552  2.1532  0.9940
  191SLPC   H3S22091   5.421   6.578   6.834  2.1166 -0.3419  1.1380
  191SLPC   C2422092   5.448   6.789   6.868 -0.3592 -0.2702 -0.2012
  191SLPC   H4R22093   5.367   6.843   6.815  0.2405  0.6315 -0.2168
  191SLPC   H4S22094   5.542   6.847   6.873  1.2128 -2.5795 -1.0566
  191SLPC   C2522095   5.408   6.763   7.016  0.4817  0.0950  0.5813
  191SLPC   H5R22096   5.489   6.712   7.073  0.5505  0.3184  0.6839
  191SLPC   H5S22097   5.329   6.685   7.008 -0.9175  1.1169  3.2467
  191SLPC   C2622098   5.351   6.868   7.107  0.1101 -0.1301 -0.1490
  191SLPC   H6R22099   5.258   6.894   7.052  0.6636  0.4049 -0.8535
  191SLPC   H6S22100   5.418   6.956   7.115 -0.9152  0.6263  0.3725
  191SLPC   C2722101   5.317   6.816   7.244  0.4756  0.5129 -0.2755
  191SLPC   H7R22102   5.273   6.714   7.246  1.3958  0.0398 -1.9105
  191SLPC   H7S22103   5.243   6.887   7.284  0.6876  0.6769 -0.1714
  191SLPC   C2822104   5.438   6.827   7.338  0.4558 -0.3854  0.4071
  191SLPC   H8R22105   5.401   6.864   7.437  1.3135  0.9319  0.2668
  191SLPC   H8S22106   5.519   6.895   7.303  1.9469 -1.1696  2.1830
  191SLPC   C2922107   5.501   6.695   7.366  0.5002 -0.7729  0.1133
  191SLPC   H9R22108   5.577   6.671   7.291  2.3768  1.0845  1.3265
  191SLPC  C21022109   5.479   6.616   7.479 -0.1698 -0.2168  0.7208
  191SLPC  H10R22110   5.536   6.522   7.479  1.1546  0.5495 -0.7194
  191SLPC  C21122111   5.398   6.636   7.603  0.2038  0.3977 -0.2519
  191SLPC  H11R22112   5.389   6.536   7.650  0.3759  0.8553  0.7624
  191SLPC  H11S22113   5.294   6.666   7.580 -1.5794 -1.0394  4.8252
  191SLPC  C21222114   5.442   6.746   7.697 -0.3049 -0.4079 -0.5524
  191SLPC  H12R22115   5.525   6.803   7.654 -0.5166  0.0206 -0.4006
  191SLPC  C21322116   5.396   6.777   7.816  0.1535 -0.4277  0.0069
  191SLPC  H13R22117   5.438   6.858   7.877 -3.2547  1.1937  0.4926
  191SLPC  C21422118   5.266   6.719   7.872  0.5352 -0.2609 -0.6783
  191SLPC  H14R22119   5.283   6.639   7.947 -2.2435  1.1543  1.6214
  191SLPC  H14S22120   5.205   6.668   7.794 -0.9837 -1.5855  1.2927
  191SLPC  C21522121   5.179   6.836   7.933 -0.4645  0.6348  0.4820
  191SLPC  H15R22122   5.083   6.791   7.966  0.5019 -2.4607 -0.5683
  191SLPC  H15S22123   5.153   6.911   7.856 -0.2421 -0.5604 -0.7942
  191SLPC  C21622124   5.232   6.923   8.048 -0.8298  0.7775 -0.6066
  191SLPC  H16R22125   5.142   6.968   8.094 -0.9791  0.4828 -0.6067
  191SLPC  H16S22126   5.296   7.003   8.006  0.0947 -0.2086 -1.1076
  191SLPC  C21722127   5.303   6.833   8.151  0.2194  0.0841 -0.0696
  191SLPC  H17R22128   5.399   6.799   8.106  1.3016  0.5253  1.7977
  191SLPC  H17S22129   5.235   6.746   8.162 -0.2235  0.5368  0.8675
  191SLPC  C21822130   5.332   6.897   8.283  0.2466 -0.4173 -0.1303
  191SLPC  H18R22131   5.242   6.896   8.346 -0.9329  0.6989 -1.7157
  191SLPC  H18S22132   5.357   7.005   8.276 -0.4058 -0.1579  1.2415
  191SLPC  H18T22133   5.412   6.841   8.337  1.8263  0.4830 -1.4405
  191SLPC   C3322134   5.407   7.234   6.873 -0.3740 -0.4833  0.5327
  191SLPC   H3X22135   5.347   7.141   6.862  1.3301 -1.5118 -0.6632
  191SLPC   H3Y22136   5.361   7.330   6.842  0.4718 -0.1235  0.3586
  191SLPC   C3422137   5.442   7.237   7.026  0.1581 -0.5710 -0.1115
  191SLPC   H4X22138   5.511   7.322   7.045 -0.8037  0.3189 -0.4885
  191SLPC   H4Y22139   5.486   7.137   7.050  0.8703  0.0345  1.1712
  191SLPC   C3522140   5.318   7.270   7.104  0.0461 -0.1806  0.2523
  191SLPC   H5X22141   5.257   7.178   7.120 -1.0179  0.6951  1.3766
  191SLPC   H5Y22142   5.264   7.335   7.032 -0.0429  1.4818  1.7672
  191SLPC   C3622143   5.342   7.346   7.236 -0.2417 -0.0819 -0.2029
  191SLPC   H6X22144   5.244   7.379   7.275 -0.3711 -0.3983 -0.2606
  191SLPC   H6Y22145   5.414   7.431   7.227  0.2221 -0.3135  1.1169
  191SLPC   C3722146   5.403   7.260   7.341  0.4613 -0.1886 -0.1433
  191SLPC   H7X22147   5.508   7.231   7.317  1.6143  2.4964  1.1892
  191SLPC   H7Y22148   5.346   7.165   7.343 -1.3861  0.8625  2.1677
  191SLPC   C3822149   5.402   7.311   7.482 -0.1394  0.0095  0.0212
  191SLPC   H8X22150   5.303   7.301   7.531  1.2513 -2.3988  2.5804
  191SLPC   H8Y22151   5.422   7.420   7.487  1.3472 -0.2611  0.2842
  191SLPC   C3922152   5.504   7.250   7.573  0.5141 -0.0635 -0.6607
  191SLPC   H9X22153   5.608   7.266   7.536 -0.0154 -0.0542 -2.2339
  191SLPC   H9Y22154   5.495   7.140   7.573 -0.5642  0.0069 -1.6910
  191SLPC  C31022155   5.495   7.288   7.720  0.6245 -0.6346 -0.1100
  191SLPC  H10X22156   5.395   7.250   7.749  1.3324 -3.2478 -0.8329
  191SLPC  H10Y22157   5.501   7.399   7.729 -1.1294 -0.5274  0.0353
  191SLPC  C31122158   5.594   7.214   7.805  0.3544 -0.1115 -0.9328
  191SLPC  H11X22159   5.691   7.238   7.757  0.2896  2.5601  0.1151
  191SLPC  H11Y22160   5.567   7.106   7.801  2.8420 -0.8423  0.0933
  191SLPC  C31222161   5.591   7.260   7.948  0.3273 -0.2181  0.0294
  191SLPC  H12X22162   5.485   7.250   7.980  0.6782 -2.0371  0.7583
  191SLPC  H12Y22163   5.628   7.365   7.951  0.5241 -0.2885  2.0907
  191SLPC  C31322164   5.673   7.181   8.050  0.3871 -0.0853 -0.1264
  191SLPC  H13X22165   5.781   7.198   8.035  0.2239 -0.5821 -2.1899
  191SLPC  H13Y22166   5.663   7.071   8.034  1.0884 -0.2869  0.7066
  191SLPC  C31422167   5.634   7.219   8.194  0.0641  0.1249 -0.2407
  191SLPC  H14X22168   5.686   7.166   8.276  1.6177  0.6251 -0.8604
  191SLPC  H14Y22169   5.531   7.181   8.212 -0.2990 -0.0254 -2.3118
  191SLPC  C31522170   5.644   7.367   8.220 -0.4237 -0.0717 -0.3339
  191SLPC  H15X22171   5.574   7.419   8.152 -0.6409  1.0136  0.6958
  191SLPC  H15Y22172   5.744   7.401   8.187 -0.6738  1.3373  0.2631
  191SLPC  C31622173   5.621   7.412   8.366 -0.3268  0.4274 -0.4330
  191SLPC  H16X22174   5.681   7.351   8.437 -0.4061 -0.1114 -0.8274
  191SLPC  H16Y22175   5.520   7.392   8.406 -1.2845  0.5379 -2.6413
  191SLPC  C31722176   5.670   7.555   8.384 -0.1379 -0.0447 -0.6865
  191SLPC  H17X22177   5.636   7.623   8.304 -0.3053  0.1962 -0.4129
  191SLPC  H17Y22178   5.781   7.554   8.372  0.0260 -1.9981  0.4904
  191SLPC  C31822179   5.637   7.613   8.523 -0.1274 -0.5321  0.0129
  191SLPC  H18X22180   5.681   7.543   8.597 -1.8626  0.3569  1.9929
  191SLPC  H18Y22181   5.530   7.621   8.550 -0.6655  1.9872 -2.3703
  191SLPC  H18Z22182   5.695   7.707   8.531 -1.9417  0.4679  2.9362
  192SLPC     N22183   3.934   2.833   5.708  0.1543  0.5206 -0.5710
  192SLPC   C1322184   3.822   2.865   5.618 -0.6764 -1.0116 -0.1927
  192SLPC  H13A22185   3.813   2.972   5.601 -0.3101 -1.3887 -3.3571
  192SLPC  H13B22186   3.830   2.809   5.527 -1.5673 -0.1253 -0.8405
  192SLPC  H13C22187   3.728   2.828   5.656 -0.0406 -1.3138  1.1332
  192SLPC   C1422188   4.054   2.876   5.643 -0.0330 -0.6522  0.9952
  192SLPC  H14A22189   4.074   2.821   5.552 -1.0636 -2.0245  1.5716
  192SLPC  H14B22190   4.057   2.982   5.621 -0.7375 -1.0618 -1.3211
  192SLPC  H14C22191   4.145   2.854   5.697  1.2101 -3.6409 -1.9999
  192SLPC   C1522192   3.929   2.690   5.736 -0.2079 -0.7439 -0.4261
  192SLPC  H15A22193   4.001   2.666   5.813  0.0413 -0.8248 -0.6836
  192SLPC  H15B22194   3.834   2.654   5.773 -0.4296  0.8026  0.5949
  192SLPC  H15C22195   3.953   2.636   5.645 -0.2703 -0.2763 -0.7189
  192SLPC   C1222196   3.921   2.913   5.844  0.8472  0.0381 -0.2987
  192SLPC  H12A22197   3.818   2.926   5.872  1.4375  2.5341  1.0267
  192SLPC  H12B22198   3.964   3.009   5.819  1.5679 -0.4487 -1.0326
  192SLPC   C1122199   3.998   2.861   5.971  0.3516 -0.1575  0.1319
  192SLPC  H11A22200   3.936   2.773   6.002  0.5477 -0.5109 -0.4723
  192SLPC  H11B22201   3.991   2.935   6.053 -1.3160  0.0492 -0.1485
  192SLPC     P22202   4.255   2.916   5.958  0.0081 -0.3098 -0.6534
  192SLPC   O1322203   4.381   2.848   5.915 -0.1336  0.3862 -0.2459
  192SLPC   O1422204   4.221   3.047   5.895  0.0337  0.2114 -0.4078
  192SLPC   O1222205   4.128   2.811   5.938  0.0442 -0.3826 -0.0831
  192SLPC   O1122206   4.273   2.931   6.113 -0.3515 -0.0689  0.3471
  192SLPC    C122207   4.235   2.834   6.207 -0.0597  0.1451  0.4671
  192SLPC    HA22208   4.230   2.880   6.308  0.6123  0.7257  0.2367
  192SLPC    HB22209   4.138   2.780   6.194  0.2465 -0.5374  0.9370
  192SLPC    C222210   4.337   2.713   6.223 -0.4888 -0.7698  0.0407
  192SLPC    HS22211   4.346   2.665   6.124  0.5630  2.3951 -1.5287
  192SLPC   O2122212   4.287   2.622   6.319 -0.0254  0.2868  0.6445
  192SLPC   C2122213   4.329   2.497   6.318 -0.5859  0.1532 -0.3353
  192SLPC   O2222214   4.394   2.441   6.232  0.3864 -0.0438  0.5125
  192SLPC   C2222215   4.280   2.433   6.445  0.1813  0.0184 -0.0657
  192SLPC   H2R22216   4.297   2.504   6.529 -2.1434  1.6484 -0.8885
  192SLPC   H2S22217   4.170   2.424   6.433 -0.0845 -0.4830  2.2470
  192SLPC    C322218   4.478   2.774   6.263  0.3282  0.2056 -0.3162
  192SLPC    HX22219   4.524   2.840   6.187  0.2252  2.3516  1.3972
  192SLPC    HY22220   4.549   2.688   6.271 -0.6950 -0.4795  2.4466
  192SLPC   O3122221   4.475   2.852   6.388 -0.4823 -0.7147  0.4626
  192SLPC   C3122222   4.521   2.781   6.495  0.9880 -0.9260  0.3573
  192SLPC   O3222223   4.553   2.665   6.494  0.1022  1.1855  0.3215
  192SLPC   C3222224   4.523   2.864   6.622  0.6268  0.1853 -0.3419
  192SLPC   H2X22225   4.417   2.882   6.650  0.2291 -3.7687  1.3286
  192SLPC   H2Y22226   4.564   2.964   6.599  2.6468 -0.7493 -1.0391
  192SLPC   C2322227   4.346   2.293   6.471  0.5685  0.2989 -0.6543
  192SLPC   H3R22228   4.342   2.236   6.375  1.8219 -0.7605 -0.0976
  192SLPC   H3S22229   4.285   2.241   6.547 -1.2508  2.3551 -0.5829
  192SLPC   C2422230   4.488   2.301   6.541 -0.4163 -0.3374 -0.1066
  192SLPC   H4R22231   4.552   2.347   6.463 -2.8342  1.7910 -1.0153
  192SLPC   H4S22232   4.522   2.196   6.555 -0.8289 -0.3971  0.4951
  192SLPC   C2522233   4.499   2.385   6.676  0.3208 -0.6532  0.3341
  192SLPC   H5R22234   4.468   2.487   6.643  3.6296 -0.5625 -3.2725
  192SLPC   H5S22235   4.606   2.398   6.704  0.8766 -1.4725 -1.2798
  192SLPC   C2622236   4.414   2.331   6.786  1.0770 -0.4238  0.0559
  192SLPC   H6R22237   4.453   2.232   6.817 -0.1619  0.1581  4.0903
  192SLPC   H6S22238   4.308   2.319   6.756  0.2848 -0.4465  2.5897
  192SLPC   C2722239   4.425   2.411   6.915 -0.1780  0.3694  0.2156
  192SLPC   H7R22240   4.392   2.513   6.884 -1.0816 -0.0416 -0.2309
  192SLPC   H7S22241   4.533   2.420   6.937 -0.0907  0.4810 -0.2375
  192SLPC   C2822242   4.355   2.353   7.030 -0.2959  0.8645  0.3521
  192SLPC   H8R22243   4.266   2.297   6.996 -0.9113  2.5847 -1.0600
  192SLPC   H8S22244   4.296   2.429   7.085 -1.3939 -1.1795  2.1491
  192SLPC   C2922245   4.444   2.261   7.119  0.1665 -0.1511  0.4213
  192SLPC   H9R22246   4.457   2.156   7.091  0.2292 -0.6708  2.2497
  192SLPC  C21022247   4.494   2.305   7.239 -0.7769  0.0919  0.9425
  192SLPC  H10R22248   4.575   2.246   7.284  0.7106  1.6042  0.3645
  192SLPC  C21122249   4.475   2.444   7.299 -0.3172 -0.5799  0.1148
  192SLPC  H11R22250   4.506   2.524   7.229  1.3965  0.0287  1.4878
  192SLPC  H11S22251   4.544   2.467   7.383 -0.8807  1.0307  0.1688
  192SLPC  C21222252   4.333   2.463   7.355  0.2266 -0.4295 -0.7612
  192SLPC  H12R22253   4.266   2.530   7.300  1.3290  2.9651  1.6801
  192SLPC  C21322254   4.278   2.419   7.475 -0.6844 -0.3211  0.5157
  192SLPC  H13R22255   4.173   2.445   7.496 -0.9960 -1.2681  0.1629
  192SLPC  C21422256   4.354   2.340   7.580  0.0721  0.7698  0.4225
  192SLPC  H14R22257   4.458   2.328   7.541  0.5743  4.2142  0.3568
  192SLPC  H14S22258   4.313   2.237   7.570  0.7906  0.6071 -1.2226
  192SLPC  C21522259   4.359   2.388   7.722 -0.6677  0.2757 -0.1332
  192SLPC  H15R22260   4.252   2.390   7.753 -0.5275  2.8072  0.4291
  192SLPC  H15S22261   4.392   2.494   7.721  1.0571 -0.2384 -0.4460
  192SLPC  C21622262   4.451   2.312   7.820  0.1357  0.1875  0.4217
  192SLPC  H16R22263   4.559   2.312   7.793 -0.1872  1.3372 -0.9635
  192SLPC  H16S22264   4.409   2.209   7.826 -0.4137  0.2653 -1.4972
  192SLPC  C21722265   4.444   2.379   7.956 -0.2893  0.3958 -0.4219
  192SLPC  H17R22266   4.475   2.481   7.927  0.1342 -0.0689 -1.6618
  192SLPC  H17S22267   4.336   2.384   7.983  0.2053  0.6873  1.6888
  192SLPC  C21822268   4.527   2.310   8.058  0.0423  0.1404  0.4942
  192SLPC  H18R22269   4.488   2.211   8.091  2.2342 -1.3591 -1.0342
  192SLPC  H18S22270   4.535   2.368   8.152  0.4784 -0.6201  0.9409
  192SLPC  H18T22271   4.630   2.293   8.019  1.5344  0.3591  3.9651
  192SLPC   C3322272   4.578   2.794   6.747  0.1711  0.4956 -1.0542
  192SLPC   H3X22273   4.683   2.773   6.718  0.3990 -0.3951  0.3236
  192SLPC   H3Y22274   4.528   2.697   6.766  1.5250  0.0071  0.1750
  192SLPC   C3422275   4.580   2.887   6.866 -0.4790 -0.4898 -0.1539
  192SLPC   H4X22276   4.477   2.925   6.882 -0.2064  0.1970  0.0337
  192SLPC   H4Y22277   4.637   2.976   6.832 -0.1491  0.1593  1.9384
  192SLPC   C3522278   4.639   2.827   6.998  0.2051 -0.6478 -0.0795
  192SLPC   H5X22279   4.744   2.798   6.979  0.4916 -0.3487  1.0165
  192SLPC   H5Y22280   4.571   2.741   7.016  0.1046 -0.2325  1.6909
  192SLPC   C3622281   4.620   2.924   7.112 -0.9364 -0.4664 -0.2925
  192SLPC   H6X22282   4.514   2.947   7.137 -0.8260 -1.9606  1.7724
  192SLPC   H6Y22283   4.667   3.020   7.083  0.2705 -0.5675  1.2405
  192SLPC   C3722284   4.683   2.886   7.250 -0.0842  0.1273  0.1148
  192SLPC   H7X22285   4.790   2.857   7.242 -0.0728  0.3955 -0.8962
  192SLPC   H7Y22286   4.617   2.805   7.288  0.1954  0.4190  1.2651
  192SLPC   C3822287   4.655   2.993   7.362  0.3726 -1.0056  0.4765
  192SLPC   H8X22288   4.545   2.984   7.369  0.4519 -1.3718  1.4787
  192SLPC   H8Y22289   4.686   3.093   7.326  0.4926 -1.9936 -2.3810
  192SLPC   C3922290   4.741   2.958   7.487 -0.3799 -0.9578  0.3174
  192SLPC   H9X22291   4.846   2.956   7.452 -0.0947  0.9785  0.9431
  192SLPC   H9Y22292   4.726   2.857   7.530 -0.1203 -0.8251  0.7242
  192SLPC  C31022293   4.734   3.057   7.601 -0.2902 -0.6121  0.1078
  192SLPC  H10X22294   4.626   3.066   7.624 -0.1575  1.1532  0.1438
  192SLPC  H10Y22295   4.769   3.156   7.565  0.8738 -1.2687 -0.6463
  192SLPC  C31122296   4.812   3.011   7.723 -1.0299  0.2879  0.0453
  192SLPC  H11X22297   4.836   2.902   7.717  0.9196  0.6985 -0.1921
  192SLPC  H11Y22298   4.749   3.027   7.814 -1.1987  0.7884 -0.1563
  192SLPC  C31222299   4.945   3.081   7.747  0.5623  0.0797 -0.1573
  192SLPC  H12X22300   4.925   3.190   7.732 -0.6057 -0.0020  0.7080
  192SLPC  H12Y22301   5.007   3.057   7.658  2.7444 -1.5496  1.7041
  192SLPC  C31322302   5.023   3.052   7.878  0.2702 -0.3316 -0.1325
  192SLPC  H13X22303   5.118   3.111   7.881  0.4646 -0.5820 -1.1975
  192SLPC  H13Y22304   5.052   2.945   7.880  0.4730 -0.3128 -1.2986
  192SLPC  C31422305   4.945   3.092   8.007  0.2206 -0.9007 -0.1316
  192SLPC  H14X22306   4.843   3.050   8.017 -0.3081  0.8323  3.4124
  192SLPC  H14Y22307   4.935   3.202   7.993  1.3628 -0.7687 -0.0146
  192SLPC  C31522308   5.014   3.051   8.137 -0.0222  0.1613 -0.4886
  192SLPC  H15X22309   5.118   3.088   8.142 -0.4407  1.2575  2.0572
  192SLPC  H15Y22310   5.025   2.941   8.145  0.4571  0.0105 -2.7610
  192SLPC  C31622311   4.940   3.107   8.259  0.4230 -0.0067 -0.4478
  192SLPC  H16X22312   4.830   3.109   8.243  0.5845 -1.6542 -2.0647
  192SLPC  H16Y22313   4.974   3.210   8.281  2.5398 -1.0211  1.4146
  192SLPC  C31722314   4.948   3.016   8.381 -0.0396 -0.3047  0.4146
  192SLPC  H17X22315   5.057   2.999   8.395 -0.1989 -1.7955  0.0186
  192SLPC  H17Y22316   4.910   2.913   8.360  0.7848 -0.8105  1.3084
  192SLPC  C31822317   4.874   3.074   8.498 -0.3724 -0.2845  0.1996
  192SLPC  H18X22318   4.874   3.013   8.591 -0.8957 -0.6910 -0.0631
  192SLPC  H18Y22319   4.769   3.096   8.469 -0.3381  2.3307  1.7661
  192SLPC  H18Z22320   4.924   3.168   8.531 -0.3675 -0.5937  1.0793
  193SOD    SOD22321   1.789   3.227  12.286 -0.0108  0.3540 -0.0386
  194SOD    SOD22322   1.029   2.098  16.488  0.1902  0.2018  0.0063
  195SOD    SOD22323   2.016   4.412   5.558  0.1450  0.3566 -0.2454
  196SOD    SOD22324   2.028   6.824  15.474 -0.1915 -0.0226 -0.2464
  197SOD    SOD22325   0.647   5.289   4.796 -0.3741 -0.4335 -0.6663
  198SOD    SOD22326   5.206   1.898  12.949  0.2842  0.3189 -0.1767
  199SOD    SOD22327   2.264   3.353   2.636  0.6022 -0.1633 -0.2054
  200SOD    SOD22328   0.770   0.525   0.958 -0.0107 -0.1036 -0.2428
  201SOD    SOD22329   4.656   5.899  17.222 -0.2339  0.2863 -0.3021
  202SOD    SOD22330   6.820   6.226  13.715 -0.1951 -0.2648  0.3050
  203SOD    SOD22331   2.727   0.179  15.568 -0.3510 -0.1283  0.2506
  204SOD    SOD22332   5.864   4.964  16.520 -0.3651 -0.1355 -0.2458
  205SOD    SOD22333   5.503   4.694   1.636  0.0142 -0.0298  0.1850
  206SOD    SOD22334   3.996   1.069   3.156 -0.1150  0.1455  0.1077
  207SOD    SOD22335   4.096   4.920  12.009  0.3684 -0.3516  0.0646
  208SOD    SOD22336   6.259   4.784   5.722 -0.4450  0.2401 -0.0586
  209SOD    SOD22337   5.518   4.539   0.433  0.3768 -0.2026  0.6619
  210SOD    SOD22338   5.208   0.970   5.089 -0.4780  0.0465  0.0905
  211SOD    SOD22339   6.365   4.609   3.302 -0.2254 -0.3233 -0.2245
  212SOD    SOD22340   2.068   4.489   1.490 -0.1389  0.3619  0.0050
  213SOD    SOD22341   1.862   1.882  15.338 -0.2744 -0.1293 -0.7191
  214SOD    SOD22342   4.946   1.955  14.673  0.1923 -0.3800 -0.5855
  215SOD    SOD22343   1.872   5.636  10.780 -0.0381 -0.0485  0.2747
  216SOD    SOD22344   5.405   5.343  15.815  0.3941 -0.3539  0.1724
  217SOD    SOD22345   6.090   5.171  10.612  0.0599  0.1829  0.1882
  218SOD    SOD22346   1.811   0.065   4.124  0.0742 -0.4203  0.0380
  219SOD    SOD22347   0.316   6.666  15.108  0.1836  0.1984  0.5325
  220SOD    SOD22348   3.831   0.521   4.886  0.4031  0.3344  0.1776
  221SOD    SOD22349   4.897   3.412  14.308 -0.5851  0.5749  0.5036
  222SOD    SOD22350   1.948   1.190   6.610 -0.1669  0.4399 -0.6275
  223SOD    SOD22351   1.579   2.397   2.416 -0.2395 -0.3215 -0.0609
  224SOD    SOD22352   4.716   0.287  13.249 -0.0812  0.0831 -0.7299
  225SOD    SOD22353   4.961   2.239  16.679  0.6896 -0.3697  0.0833
  226SOD    SOD22354   6.124   5.374   5.854  0.1460 -0.3360 -0.0969
  227SOD    SOD22355   0.114   5.469  13.266 -0.3562  1.0452  0.2141
  228SOD    SOD22356   1.928   3.556   0.958  0.0316 -0.1543 -0.7201
  229SOD    SOD22357   6.146   6.457  10.850 -0.2052  0.0815  0.6405
  230SOD    SOD22358   0.388   4.200  11.166  0.2895  0.2713  0.3194
  231SOD    SOD22359   3.375   6.826  11.703  0.5829 -0.3284 -0.1313
  232SOD    SOD22360   1.742   5.375   0.921 -0.1546  0.1080  0.6457
  233SOD    SOD22361   0.736   2.742   1.628  0.3090 -0.2424 -0.1152
  234SOD    SOD22362   6.259   1.512   0.887 -0.5650  0.0606 -0.0400
  235SOD    SOD22363   4.289   5.039  10.817 -0.0228  0.5140  0.1237
  236SOD    SOD22364   5.984   6.771  10.683 -0.2721  0.5556  0.3209
  237SOD    SOD22365   4.268   6.132   1.553  0.0657  0.5452 -0.1605
  238SOD    SOD22366   5.933   6.157  16.554  0.0857  0.0066 -0.4379
  239SOD    SOD22367   2.337   2.246  14.573  0.1423  0.5033 -0.2108
  240SOD    SOD22368   2.020   5.264  13.316  0.4877  0.4031  0.7654
  241SOD    SOD22369   3.099   6.652   0.077 -0.4830  0.4169 -0.2983
  242SOD    SOD22370   2.499   1.197  12.192  0.7938  0.0804 -0.4302
  243SOD    SOD22371   1.128   2.492  12.584 -0.1029  0.2623  0.1166
  244SOD    SOD22372   6.681   0.247  13.824  0.7159  0.3856  0.2610
  245SOD    SOD22373   5.893   1.245  11.978 -0.6779 -0.1643  0.0075
  246SOD    SOD22374   5.535   3.027   5.458 -0.0507  0.3818  0.3923
  247SOD    SOD22375   2.181   0.926   4.678  0.2430 -0.1693 -0.4633
  248SOD    SOD22376   3.915   2.546  10.589  0.1620 -0.3540  0.5756
  249SOD    SOD22377   4.761   3.769  12.730  0.3192  0.5315  0.0661
  250SOD    SOD22378   0.054   6.450  10.443 -0.3320  0.3105 -0.0740
  251SOD    SOD22379   1.155   4.983   3.241  0.1112  0.0509 -0.0489
  252SOD    SOD22380   2.907   5.013   4.765 -0.2951 -0.0415 -0.1777
  253SOD    SOD22381   2.003   0.556   5.629 -0.0764 -0.0297  0.3679
  254SOD    SOD22382   6.483   1.676   6.048  0.3180  0.1038  0.0729
  255SOD    SOD22383   5.342   2.418   4.767  0.3141 -0.5016 -0.5884
  256SOD    SOD22384   0.277   1.856  13.047 -0.3244  0.2196 -0.4762
  257SOD    SOD22385   4.372   3.540   2.274 -0.0936  0.0224 -0.1032
  258SOD    SOD22386   2.457   4.388  16.378 -0.3255  0.6105 -0.2163
  259SOD    SOD22387   4.602   3.181  15.218 -0.0835 -0.0727 -0.2043
  260SOD    SOD22388   4.997   6.342  10.844  0.2708  0.0038  0.6527
  261SOD    SOD22389   1.028   5.151  14.837  0.1316 -0.6161  0.0972
  262SOD    SOD22390   3.067   5.502   6.224 -0.1090 -0.2693  0.0823
  263SOD    SOD22391   2.023   0.150  12.496  0.2056  0.4021  0.3564
  264SOD    SOD22392   6.390   2.237  14.118  0.4876  0.2687  0.3747
  265SOD    SOD22393   4.894   4.684  15.538  0.0453  0.2153  0.3807
  266CLA    CLA22394   6.018   1.906   1.019 -0.0094  0.1795 -0.0065
  267CLA    CLA22395   5.665   5.396   5.171 -0.5428 -0.1314  0.1324
  268CLA    CLA22396   0.692   2.472  15.081  0.0181  0.2690 -0.0373
  269CLA    CLA22397   3.220   6.357   1.599  0.3302 -0.1483  0.1843
  270CLA    CLA22398   3.758   4.410   3.924 -0.2191 -0.0322 -0.2419
  271CLA    CLA22399   0.796   4.078  15.167 -0.0933  0.3613 -0.4252
  272CLA    CLA22400   0.836   1.754   3.315  0.5879 -0.2669 -0.2143
  273CLA    CLA22401   5.579   0.005  16.853  0.4295  0.0889  0.2249
  274CLA    CLA22402   3.342   6.680   0.548  0.2961  0.0639  0.0967
  275CLA    CLA22403   4.582   1.837  17.100  0.1287 -0.0649  0.1699
  276CLA    CLA22404   4.596   4.160  15.893  0.2155 -0.1545 -0.4630
  277CLA    CLA22405   5.754   6.490  12.745 -0.3787  0.2982 -0.2904
  278CLA    CLA22406   5.270   3.704  14.962 -0.2074 -0.1142 -0.2211
  279CLA    CLA22407   2.349   4.489  13.308  0.3079 -0.4133 -0.0344
  280CLA    CLA22408   6.405   1.838  16.294 -0.1190  0.1987  0.2477
  281CLA    CLA22409   3.239   0.095  15.143 -0.2124 -0.2491  0.0910
  282CLA    CLA22410   0.878   5.405   3.104 -0.1572  0.0966  0.4915
  283CLA    CLA22411   2.972   6.360   0.451 -0.1259  0.3219  0.3015
  284CLA    CLA22412   3.940   5.707   2.220 -0.0679 -0.3692 -0.0690
  285CLA    CLA22413   4.676   3.071  12.993 -0.2998 -0.0330  0.6489
  286CLA    CLA22414   1.194   0.438  16.542 -0.4405 -0.2332 -0.0457
  287CLA    CLA22415   0.199   4.797   0.414  0.3600 -0.1486 -0.1502
  288CLA    CLA22416   3.023   3.632   4.820 -0.3252  0.2490 -0.5163
  289CLA    CLA22417   5.524   2.709  15.945  0.2884 -0.5726 -0.3773
  290CLA    CLA22418   6.092   4.513  11.601 -0.2290  0.0344  0.2025
  291CLA    CLA22419   6.278   3.271  15.552  0.0976  0.0894  0.1136
  292CLA    CLA22420   4.415   2.935   2.864  0.0933  0.2742 -0.3530
  293CLA    CLA22421   5.965   6.372  14.019 -0.0013  0.3991 -0.2613
  294CLA    CLA22422   5.289   6.484  16.288 -0.0467 -0.1046  0.2048
  295CLA    CLA22423   5.036   5.308  16.315 -0.2823  0.1365 -0.1515
  296CLA    CLA22424   4.093   6.181   4.560 -0.0958 -0.0335 -0.3316
  297CLA    CLA22425   6.688   6.049   0.138 -0.0746  0.2596  0.2025
  298CLA    CLA22426   5.955   6.625   3.973 -0.2193  0.4589  0.1447
  299CLA    CLA22427   1.735   5.557  13.640  0.1446  0.0234 -0.1698
  300CLA    CLA22428   3.728   6.083  16.577 -0.2835  0.2295  0.1841
  301CLA    CLA22429   0.989   1.696  16.776 -0.0404 -0.4552 -0.0887
  302CLA    CLA22430   4.700   3.075  14.526 -0.0693  0.2742 -0.0139
  303CLA    CLA22431   6.115   0.228  14.688  0.0479  0.2729 -0.1590
  304CLA    CLA22432   2.355   0.292  16.846  0.0709 -0.1389  0.0271
  305CLA    CLA22433   1.209   4.025   3.275  0.0671  0.0207  0.3724
  306CLA    CLA22434   2.378   2.469  15.207  0.2380 -0.0535  0.0088
  307CLA    CLA22435   4.137   0.249  11.835 -0.1052  0.3632  0.1430
  308CLA    CLA22436   3.363   0.193  13.456 -0.2044  0.2725  0.0513
  309CLA    CLA22437   0.449   6.705  13.897 -0.2445  0.2859  0.0838
  310CLA    CLA22438   6.096   2.481   4.491 -0.1458 -0.4453 -0.4899
  311CLA    CLA22439   5.150   6.317   3.221  0.2093  0.2117 -0.4234
  312CLA    CLA22440   0.991   4.044  13.155  0.2534  0.2651 -0.2963
  313CLA    CLA22441   4.706   1.669  14.253  0.0260  0.0082 -0.2346
  314CLA    CLA22442   1.825   0.749   4.843  0.0741 -0.0358 -0.1705
  315CLA    CLA22443   4.259   6.200  11.466 -0.0998 -0.1310  0.1117
  316CLA    CLA22444   4.197   1.130  15.481 -0.0432 -0.1054 -0.1855
  317CLA    CLA22445   0.421   5.030  15.349  0.0440 -0.0027 -0.0273
  318CLA    CLA22446   0.148   1.069  13.891  0.1837 -0.2271 -0.0745
  319TIP3   OH222447   6.457   3.070   1.609  0.1061 -0.2510  0.5736
  319TIP3    H122448   6.506   3.151   1.599 -0.2777  0.0697  1.2289
  319TIP3    H222449   6.447   3.037   1.519 -1.1823  1.2945  0.0961
  320TIP3   OH222450   0.334   4.353  12.069 -0.5733 -0.3149 -0.3526
  320TIP3    H122451   0.279   4.430  12.059 -0.4124 -0.0642  0.5952
  320TIP3    H222452   0.282   4.281  12.033 -0.0854  0.4551 -2.7470
  321TIP3   OH222453   6.053   6.023   5.671  0.4735 -0.0182 -0.0609
  321TIP3    H122454   6.058   5.992   5.581 -0.1518  1.1685 -0.5342
  321TIP3    H222455   6.141   6.008   5.707  0.7645 -0.3865 -0.9007
  322TIP3   OH222456   6.278   0.870   0.177 -0.1395  0.2299 -0.3431
  322TIP3    H122457   6.351   0.825   0.135  0.7080  1.2446 -0.0118
  322TIP3    H222458   6.250   0.811   0.247 -0.3107 -0.6156 -1.1108
  323TIP3   OH222459   3.761   1.638  16.687 -0.4340  0.1173  0.5112
  323TIP3    H122460   3.762   1.702  16.758  1.2728  1.3215 -0.5326
  323TIP3    H222461   3.767   1.553  16.731  1.8126  0.8779  1.8269
  324TIP3   OH222462   3.554   3.310  13.051  0.6690  0.2193 -0.0197
  324TIP3    H122463   3.629   3.339  12.998 -0.3511  2.8212 -0.1796
  324TIP3    H222464   3.477   3.330  12.997 -0.2550 -0.9408  0.7950
  325TIP3   OH222465   3.928   5.276   6.460  0.5117 -0.8480  0.2052
  325TIP3    H122466   3.960   5.366   6.458 -0.2920 -0.4891  1.8252
  325TIP3    H222467   3.833   5.284   6.462  0.4189 -1.7549  0.0204
  326TIP3   OH222468   1.173   5.746   4.936  0.0869 -0.2376 -0.1572
  326TIP3    H122469   1.166   5.782   4.848  0.2231  0.3569  0.0727
  326TIP3    H222470   1.259   5.775   4.967 -0.2815  0.2135  0.4619
  327TIP3   OH222471   1.080   6.610  17.069 -0.5730 -0.0206 -0.0110
  327TIP3    H122472   1.010   6.673  17.083 -2.0382 -1.6424  0.2210
  327TIP3    H222473   1.074   6.588  16.976 -0.8191 -0.6406  0.1428
  328TIP3   OH222474   2.896   6.542  11.099 -1.0307 -0.1717  0.1264
  328TIP3    H122475   2.977   6.516  11.055  0.4626  0.6123  2.2203
  328TIP3    H222476   2.859   6.611  11.044  0.8198  0.8570  0.0865
  329TIP3   OH222477   0.837   5.009  14.789  0.6555 -0.0460  0.2173
  329TIP3    H122478   0.828   4.938  14.726  1.8099 -0.6709  0.7262
  329TIP3    H222479   0.757   5.060  14.779  0.3662 -0.7021 -1.0352
  330TIP3   OH222480   3.908   1.012   4.932 -0.6903 -0.0605 -0.1620
  330TIP3    H122481   3.930   1.099   4.899  1.9954 -0.1210  1.2398
  330TIP3    H222482   3.883   1.027   5.023 -0.3042 -0.7343  0.0578
  331TIP3   OH222483   2.053   3.532   3.299 -0.1472  0.6378 -0.1131
  331TIP3    H122484   1.966   3.547   3.338 -0.3560 -1.0123  0.1650
  331TIP3    H222485   2.103   3.490   3.370  0.8315  1.4065 -0.3324
  332TIP3   OH222486   1.147   2.313  17.097 -0.0952  0.0392 -0.1169
  332TIP3    H122487   1.109   2.310  17.185 -0.7165 -2.1712 -0.3973
  332TIP3    H222488   1.142   2.405  17.071 -0.1607  0.6900  2.0246
  333TIP3   OH222489   5.448   5.236   6.295  1.1584  0.5128 -0.3148
  333TIP3    H122490   5.418   5.223   6.205 -0.8974  0.4865  0.3216
  333TIP3    H222491   5.538   5.203   6.295  0.5656 -1.2910 -1.9144
  334TIP3   OH222492   1.577   2.780   2.742 -0.1322  0.4326 -0.5247
  334TIP3    H122493   1.578   2.859   2.797  1.7842  0.5713 -0.6879
  334TIP3    H222494   1.669   2.760   2.727 -0.5916 -1.1827 -1.4653
  335TIP3   OH222495   5.656   3.339   1.916  0.3696 -0.3165 -0.5943
  335TIP3    H122496   5.750   3.350   1.900  1.1685 -1.1864  2.7808
  335TIP3    H222497   5.645   3.246   1.934 -0.5847  0.1551  1.6771
  336TIP3   OH222498   2.055   2.846  16.234  0.1971  0.4801  0.5760
  336TIP3    H122499   2.044   2.817  16.143 -2.2959  1.0629  0.6293
  336TIP3    H222500   2.086   2.768  16.280 -0.0117 -0.2555 -0.4809
  337TIP3   OH222501   5.010   4.807  12.148  0.2288  0.6639 -0.2735
  337TIP3    H122502   5.093   4.842  12.179  1.0023 -1.2498 -0.0264
  337TIP3    H222503   4.982   4.745  12.216 -0.1858 -0.4524 -1.4097
  338TIP3   OH222504   2.416   0.803   1.410 -0.0808  0.1760  0.6349
  338TIP3    H122505   2.379   0.887   1.381  0.9475  0.2982 -0.4016
  338TIP3    H222506   2.502   0.826   1.445  0.6230 -0.5322 -0.5573
  339TIP3   OH222507   4.722   2.439  11.153  0.0823  0.0172 -0.5915
  339TIP3    H122508   4.640   2.393  11.139 -0.8582  1.0125  1.3553
  339TIP3    H222509   4.768   2.431  11.069 -1.3695 -1.7420 -1.2816
  340TIP3   OH222510   3.178   2.461   2.279 -0.1650  0.5388 -0.6751
  340TIP3    H122511   3.235   2.427   2.347  0.0003  1.5964 -0.2632
  340TIP3    H222512   3.125   2.386   2.251  0.3931 -0.1049 -0.0262
  341TIP3   OH222513   6.380   4.706  15.299 -0.4643  0.0487 -0.2261
  341TIP3    H122514   6.336   4.639  15.351 -0.4590  0.6066  0.5160
  341TIP3    H222515   6.349   4.789  15.335  0.4556  0.4490 -0.3141
  342TIP3   OH222516   6.239   0.791  12.454 -0.3424 -0.2911 -0.1627
  342TIP3    H122517   6.332   0.792  12.479 -0.0529 -2.3799 -0.9279
  342TIP3    H222518   6.221   0.699  12.433 -2.5138  0.1255 -0.3593
  343TIP3   OH222519   3.808   2.561  14.974  0.2526 -0.0150 -0.0117
  343TIP3    H122520   3.826   2.589  15.063  0.3419  0.1657 -0.0873
  343TIP3    H222521   3.884   2.507  14.950  0.0970 -0.2957  0.1208
  344TIP3   OH222522   4.985   1.945  12.998 -0.1865  0.0206 -0.3376
  344TIP3    H122523   4.910   1.896  13.031 -0.1955 -1.1065 -1.9193
  344TIP3    H222524   4.994   2.019  13.058 -1.2921 -0.9308  1.0575
  345TIP3   OH222525   1.183   3.923  12.708 -0.0989  0.0461  0.2568
  345TIP3    H122526   1.189   3.952  12.799 -0.0731  2.0961 -0.3415
  345TIP3    H222527   1.093   3.945  12.682 -0.3751 -1.2907  0.0088
  346TIP3   OH222528   0.704   4.080  12.090  0.5452  0.0530 -0.1252
  346TIP3    H122529   0.709   4.173  12.112  1.2551  0.3696 -1.5062
  346TIP3    H222530   0.669   4.078  12.000 -0.8732 -1.0964  0.4028
  347TIP3   OH222531   3.729   4.400  13.643 -0.1406  0.1820 -0.5898
  347TIP3    H122532   3.803   4.343  13.623 -0.3708 -0.1064 -0.6206
  347TIP3    H222533   3.680   4.354  13.710 -0.3654  0.3116 -0.6629
  348TIP3   OH222534   3.473   5.757  16.052  0.0029  0.3474  0.6575
  348TIP3    H122535   3.538   5.709  16.001  2.0887  1.6679  1.9008
  348TIP3    H222536   3.502   5.747  16.143 -2.0787  0.2533  1.3542
  349TIP3   OH222537   4.248   1.303  16.833  0.1256 -0.1720 -0.1305
  349TIP3    H122538   4.235   1.250  16.912 -0.3113 -0.6663 -0.5332
  349TIP3    H222539   4.328   1.352  16.851  0.5506 -0.9832  0.2376
  350TIP3   OH222540   0.858   1.314  17.178  0.5848  0.1760 -0.0921
  350TIP3    H122541   0.889   1.370  17.248  1.2280  0.5683 -0.6745
  350TIP3    H222542   0.763   1.323  17.180  0.6177  0.4020  0.5369
  351TIP3   OH222543   4.549   2.247  14.349 -0.5102 -0.7424 -0.0150
  351TIP3    H122544   4.541   2.342  14.360 -2.3888 -1.0484  1.9475
  351TIP3    H222545   4.620   2.223  14.410 -0.1423 -0.6287 -0.3943
  352TIP3   OH222546   6.383   4.477  11.461 -0.6539  0.1524  0.8740
  352TIP3    H122547   6.310   4.538  11.472 -0.1917  0.8712  0.1250
  352TIP3    H222548   6.343   4.391  11.461 -1.7474  0.5961 -1.1152
  353TIP3   OH222549   6.444   1.542   1.742 -0.4655  0.4284 -0.3732
  353TIP3    H122550   6.349   1.532   1.748 -0.8918  2.7690 -1.8672
  353TIP3    H222551   6.464   1.536   1.649  1.0051 -0.8656 -0.0185
  354TIP3   OH222552   0.740   3.475  14.144 -0.3930  0.1713 -0.1623
  354TIP3    H122553   0.658   3.517  14.169 -1.4143 -0.7192 -1.8159
  354TIP3    H222554   0.731   3.459  14.050  0.9873 -1.4229 -0.0754
  355TIP3   OH222555   0.531   3.958  13.285 -0.1953  0.1388  0.1961
  355TIP3    H122556   0.496   4.047  13.290 -2.0039 -0.4188 -1.4684
  355TIP3    H222557   0.455   3.901  13.293  0.5076 -1.1798 -1.7696
  356TIP3   OH222558   4.145   6.644  13.318  0.0128  0.6859  0.1460
  356TIP3    H122559   4.060   6.654  13.275  0.6924 -1.8284 -2.0198
  356TIP3    H222560   4.124   6.633  13.410 -1.9106  1.2167 -0.1906
  357TIP3   OH222561   0.598   5.477   2.168  0.3737 -0.2847 -0.4112
  357TIP3    H122562   0.621   5.401   2.114  0.7222 -2.2365  2.2773
  357TIP3    H222563   0.644   5.462   2.251 -0.4262  2.3539  0.6053
  358TIP3   OH222564   1.465   4.791   1.388 -0.2435 -0.4223  0.2689
  358TIP3    H122565   1.490   4.856   1.323 -0.8607  1.0914  1.4988
  358TIP3    H222566   1.429   4.718   1.337 -0.1827  0.4848 -1.1018
  359TIP3   OH222567   4.183   0.173   3.470 -0.2275  0.7298  0.4759
  359TIP3    H122568   4.112   0.111   3.450  1.1714 -0.7486 -0.0641
  359TIP3    H222569   4.142   0.259   3.462 -1.9546 -0.0819  0.1465
  360TIP3   OH222570   6.146   6.575  13.743  0.2454  0.3409  0.2930
  360TIP3    H122571   6.116   6.643  13.682 -1.9945  0.0374  0.9608
  360TIP3    H222572   6.085   6.502  13.729  3.3633 -2.1973 -1.3877
  361TIP3   OH222573   4.015   6.734  12.246  0.1391 -0.3923 -0.8179
  361TIP3    H122574   4.001   6.807  12.186 -0.8837  1.2254  1.2225
  361TIP3    H222575   4.100   6.753  12.286  0.2174 -0.7189 -0.8306
  362TIP3   OH222576   5.113   5.609  12.411 -0.0688  0.1467  0.1435
  362TIP3    H122577   5.020   5.596  12.392 -0.0349  1.0606 -0.7638
  362TIP3    H222578   5.156   5.601  12.326  1.0501 -2.8614  0.8806
  363TIP3   OH222579   0.113   6.419  11.219  0.2230 -0.7045 -0.0816
  363TIP3    H122580   0.073   6.475  11.285  0.9936  1.5118 -1.3761
  363TIP3    H222581   0.199   6.397  11.254  0.1675 -0.5296  0.1609
  364TIP3   OH222582   3.477   6.349   1.816 -0.0628 -0.2780 -0.6770
  364TIP3    H122583   3.450   6.360   1.908 -0.8296 -2.6442 -0.5691
  364TIP3    H222584   3.397   6.362   1.766  0.4143  1.3131 -1.0942
  365TIP3   OH222585   1.313   4.678  16.722  0.1447 -0.2330 -0.0505
  365TIP3    H122586   1.332   4.767  16.752 -0.2276 -0.0165 -0.4616
  365TIP3    H222587   1.301   4.628  16.803 -1.5473  0.4969  0.1774
  366TIP3   OH222588   0.708   6.753  14.424 -0.4524 -0.3422 -0.4886
  366TIP3    H122589   0.765   6.718  14.492 -1.3638 -0.5124  0.2041
  366TIP3    H222590   0.742   6.841  14.407  0.6232 -0.7965 -0.8158
  367TIP3   OH222591   5.074   6.183  14.118 -0.2882 -0.3945 -0.0796
  367TIP3    H122592   5.120   6.266  14.108  1.1751 -0.9855  1.2178
  367TIP3    H222593   5.048   6.182  14.211 -2.4711 -0.3392 -0.6386
  368TIP3   OH222594   1.384   1.419  11.777  0.4563  0.0755  0.3109
  368TIP3    H122595   1.347   1.355  11.839 -0.2231  0.7838  0.6567
  368TIP3    H222596   1.479   1.411  11.789  0.3977 -1.0184  0.1880
  369TIP3   OH222597   0.364   5.935   3.123  0.2434  0.1219  0.6450
  369TIP3    H122598   0.414   5.929   3.041 -1.0609 -1.0558 -0.1051
  369TIP3    H222599   0.274   5.913   3.098 -0.5791  1.6092  2.0583
  370TIP3   OH222600   0.176   4.057  10.237 -0.0823 -0.0675 -0.1517
  370TIP3    H122601   0.155   4.000  10.164  1.7036  0.1832 -0.9106
  370TIP3    H222602   0.153   4.006  10.315 -1.1562 -0.6892 -0.8454
  371TIP3   OH222603   2.667   5.281   2.644 -0.3055  0.2557  0.0074
  371TIP3    H122604   2.734   5.319   2.700  0.2753 -0.7164 -0.0133
  371TIP3    H222605   2.716   5.237   2.574 -1.0034  1.6633 -1.4482
  372TIP3   OH222606   2.890   5.427  14.187  0.1450 -0.1359  0.1026
  372TIP3    H122607   2.830   5.380  14.245 -1.9398 -0.2096 -1.9421
  372TIP3    H222608   2.977   5.409  14.223 -0.8657 -2.0129  1.8562
  373TIP3   OH222609   4.473   0.709   2.635 -0.5018  0.0655  0.7942
  373TIP3    H122610   4.475   0.721   2.540 -0.4256  0.0745  0.7971
  373TIP3    H222611   4.478   0.614   2.648 -2.2216 -0.0635  0.7323
  374TIP3   OH222612   4.756   5.206  11.432  0.4161 -0.2950 -0.0164
  374TIP3    H122613   4.818   5.161  11.374  0.7961  1.1699 -0.7997
  374TIP3    H222614   4.784   5.298  11.430  0.3020 -0.1647  2.3480
  375TIP3   OH222615   2.292   0.360  13.995 -0.0909  0.1726 -0.2336
  375TIP3    H122616   2.385   0.381  13.998 -0.3625  1.4517 -0.2079
  375TIP3    H222617   2.279   0.298  14.067  0.4205  1.4296  0.9873
  376TIP3   OH222618   0.340   4.098  13.841 -0.2107 -0.3045 -0.1828
  376TIP3    H122619   0.403   4.029  13.862  0.0678 -0.3547 -1.1407
  376TIP3    H222620   0.334   4.151  13.921  1.2044 -0.1646 -0.1554
  377TIP3   OH222621   1.094   1.240  13.403 -0.2023  0.1767 -0.5301
  377TIP3    H122622   1.127   1.150  13.408 -0.5394  0.1134  1.2990
  377TIP3    H222623   1.129   1.274  13.321 -0.8803 -1.9345 -1.7730
  378TIP3   OH222624   4.642   0.767  14.828  0.0611 -0.5596  0.3252
  378TIP3    H122625   4.600   0.851  14.807  2.1754  0.1344 -1.4727
  378TIP3    H222626   4.688   0.784  14.911  0.8880  0.2541 -0.2775
  379TIP3   OH222627   5.522   5.900  13.677  0.0557  0.3753  0.0544
  379TIP3    H122628   5.448   5.851  13.641  1.3062  0.0476 -2.2558
  379TIP3    H222629   5.598   5.867  13.629  1.7700  0.5680  2.4566
  380TIP3   OH222630   2.802   4.534  10.196 -0.0408  0.2430  0.0909
  380TIP3    H122631   2.723   4.517  10.247  0.7967  0.3133  1.4504
  380TIP3    H222632   2.799   4.628  10.179 -1.0764 -0.0075 -1.3315
  381TIP3   OH222633   1.131   2.109  13.794 -0.0444  0.3076  0.3363
  381TIP3    H122634   1.100   2.192  13.829 -1.4231  1.0845 -2.4117
  381TIP3    H222635   1.052   2.054  13.788  0.4919 -0.4753  0.3159
  382TIP3   OH222636   4.327   5.039   2.631 -0.1239  0.3834 -0.1346
  382TIP3    H122637   4.414   5.038   2.591 -0.5809  1.5596 -1.2505
  382TIP3    H222638   4.287   4.956   2.606  0.0844  0.5478 -1.0459
  383TIP3   OH222639   1.645   5.916  15.973 -0.3273  0.2144 -0.4996
  383TIP3    H122640   1.635   5.822  15.983 -0.4186  0.3390  0.6800
  383TIP3    H222641   1.635   5.952  16.061 -0.8070  1.3778 -0.9961
  384TIP3   OH222642   1.818   3.640  12.076 -0.1089 -0.1219  0.0550
  384TIP3    H122643   1.895   3.656  12.021  0.1177  0.4635  0.5372
  384TIP3    H222644   1.808   3.719  12.128  0.3480 -1.0724  1.6673
  385TIP3   OH222645   4.556   0.862   2.396 -0.4759 -0.7749  0.1133
  385TIP3    H122646   4.643   0.824   2.407  0.5206  1.8118  2.4119
  385TIP3    H222647   4.559   0.902   2.309  0.7379 -0.5354  0.2427
  386TIP3   OH222648   2.097   4.874   0.908 -0.9331  0.3891  0.2511
  386TIP3    H122649   2.047   4.949   0.938 -0.1164  0.6451  1.0335
  386TIP3    H222650   2.179   4.911   0.875 -0.1580 -0.1868  1.4352
  387TIP3   OH222651   3.577   5.713   3.578 -0.1270  0.4266  0.6583
  387TIP3    H122652   3.490   5.721   3.540  0.8450  0.6017 -1.6473
  387TIP3    H222653   3.614   5.634   3.539  1.1405  0.9383  0.7684
  388TIP3   OH222654   5.632   3.350  16.248  0.0542  0.1203  0.6382
  388TIP3    H122655   5.676   3.270  16.277 -0.6144 -0.4159  0.1842
  388TIP3    H222656   5.596   3.388  16.328 -0.4146 -0.5133  0.7260
  389TIP3   OH222657   2.969   0.638  11.629  0.0365 -0.6419  0.2570
  389TIP3    H122658   3.045   0.696  11.638  0.4312 -1.2822  1.1515
  389TIP3    H222659   2.932   0.634  11.717  0.0410 -1.7868  0.2174
  390TIP3   OH222660   0.221   1.194   0.651  0.8053 -0.9808  0.7425
  390TIP3    H122661   0.184   1.278   0.623  0.0161 -1.6009 -0.1356
  390TIP3    H222662   0.312   1.198   0.623  0.4606 -0.8954 -0.4325
  391TIP3   OH222663   1.885   5.455   1.482 -0.0661 -0.7007  0.6807
  391TIP3    H122664   1.933   5.502   1.550 -0.3244  0.8143 -0.1320
  391TIP3    H222665   1.852   5.524   1.424 -2.7695 -1.6854  0.8893
  392TIP3   OH222666   0.218   1.629  13.041  0.3162  0.5246  0.0197
  392TIP3    H122667   0.230   1.535  13.054 -2.4986  0.1335  0.4589
  392TIP3    H222668   0.161   1.636  12.964 -0.6671  1.7565  0.8114
  393TIP3   OH222669   6.334   4.872   5.918  0.6381  0.2705  0.0478
  393TIP3    H122670   6.329   4.919   6.001 -0.0853 -0.5656  0.4936
  393TIP3    H222671   6.394   4.799   5.934  0.5846  0.1683 -0.2003
  394TIP3   OH222672   3.489   4.244   4.958  0.6127 -0.2321 -0.4687
  394TIP3    H122673   3.399   4.220   4.978  0.1150  0.6425 -1.6117
  394TIP3    H222674   3.505   4.323   5.008  0.4311  0.1381 -0.9898
  395TIP3   OH222675   2.441   5.163   2.224 -0.1968 -0.4322  0.2218
  395TIP3    H122676   2.393   5.219   2.163 -0.2766 -1.7838 -1.0192
  395TIP3    H222677   2.481   5.224   2.286 -0.1600  1.0089 -1.1456
  396TIP3   OH222678   4.304   6.157  13.410 -0.2909 -0.3377 -0.0761
  396TIP3    H122679   4.274   6.234  13.362  0.1169  1.3226  2.1615
  396TIP3    H222680   4.373   6.190  13.468  0.5450 -2.5883  0.3117
  397TIP3   OH222681   6.482   3.807  10.857  0.0146 -0.1159 -0.4124
  397TIP3    H122682   6.483   3.765  10.771  0.1476 -0.5333 -0.2133
  397TIP3    H222683   6.520   3.894  10.842 -0.5708  0.0617 -0.8936
  398TIP3   OH222684   1.315   3.007  16.072  0.1645  0.1367  0.2457
  398TIP3    H122685   1.347   2.918  16.089 -0.0460 -0.2711 -1.3274
  398TIP3    H222686   1.345   3.027  15.983 -3.2394  0.0002 -1.1062
  399TIP3   OH222687   6.754   6.481  11.511  0.4288 -0.2213  0.1008
  399TIP3    H122688   6.743   6.528  11.593  0.0667  1.9257 -1.1095
  399TIP3    H222689   6.759   6.549  11.444  2.5290 -1.7964 -1.5004
  400TIP3   OH222690   2.004   3.203   1.240 -0.0299  0.2235  0.0766
  400TIP3    H122691   2.031   3.196   1.332  2.7851 -0.8950 -0.7381
  400TIP3    H222692   2.004   3.113   1.208 -1.4648  0.5451 -0.9539
  401TIP3   OH222693   6.233   3.070   3.654 -0.0653  0.3055 -0.0037
  401TIP3    H122694   6.304   3.121   3.617 -0.3517  0.4277 -0.3908
  401TIP3    H222695   6.212   3.113   3.737 -1.1171  1.5494 -0.8915
  402TIP3   OH222696   5.899   1.781   5.734  0.3636 -0.1970  0.6295
  402TIP3    H122697   5.920   1.694   5.700  0.5680  0.7803 -1.9890
  402TIP3    H222698   5.978   1.832   5.720 -0.8513  1.3003 -1.2943
  403TIP3   OH222699   4.811   0.721   1.871 -0.1964 -0.0739 -0.1618
  403TIP3    H122700   4.809   0.646   1.812 -0.4286  0.5202 -0.9217
  403TIP3    H222701   4.786   0.795   1.816 -0.9741  0.4078  0.8125
  404TIP3   OH222702   6.283   4.933  16.341  0.6630  0.0531  0.7011
  404TIP3    H122703   6.370   4.959  16.311  0.3098  0.3470 -0.1023
  404TIP3    H222704   6.231   4.926  16.260 -1.0538  3.4608  1.3133
  405TIP3   OH222705   0.995   1.886  14.869  0.1321 -0.2488 -0.0222
  405TIP3    H122706   0.995   1.880  14.965 -1.4303  0.0200  0.0363
  405TIP3    H222707   0.943   1.965  14.851 -2.5695 -2.1035 -1.0954
  406TIP3   OH222708   5.650   3.378   0.064  0.0180  0.4035 -0.4425
  406TIP3    H122709   5.724   3.359   0.123 -0.5053 -0.1633  0.0423
  406TIP3    H222710   5.660   3.316  -0.008  0.4230  0.8179 -0.7490
  407TIP3   OH222711   3.056   4.795   2.578  0.0309 -0.5236  0.0034
  407TIP3    H122712   2.983   4.855   2.593  0.0792 -0.2412 -0.8644
  407TIP3    H222713   3.016   4.708   2.582 -0.2155 -0.4016  0.2707
  408TIP3   OH222714   0.230   0.530   5.709  0.1637  0.6123  0.1752
  408TIP3    H122715   0.150   0.556   5.755 -0.4205  0.8050 -0.9209
  408TIP3    H222716   0.301   0.574   5.757 -0.1211 -1.2322  2.4888
  409TIP3   OH222717   6.485   3.821   1.130  0.0183  0.6196  0.5156
  409TIP3    H122718   6.537   3.837   1.052  1.8746  0.3793  1.6628
  409TIP3    H222719   6.454   3.731   1.120 -0.0420  0.6992 -0.0830
  410TIP3   OH222720   1.422   4.015   3.611  0.0582  0.2808  0.5211
  410TIP3    H122721   1.351   3.984   3.556  0.8696  0.6452 -0.7655
  410TIP3    H222722   1.418   3.959   3.689 -1.1418 -0.2038  0.1345
  411TIP3   OH222723   4.488   4.821  15.243  0.0405  0.0294 -0.3239
  411TIP3    H122724   4.520   4.791  15.158 -0.0786  0.0360 -0.3698
  411TIP3    H222725   4.425   4.890  15.223  0.8379  0.8069 -0.1956
  412TIP3   OH222726   4.920   1.471   2.452  0.0131  0.2175 -0.0205
  412TIP3    H122727   4.872   1.470   2.535  0.8272  0.5339  0.4702
  412TIP3    H222728   4.859   1.437   2.388 -0.1053 -1.5978  0.9986
  413TIP3   OH222729   4.495   3.767  14.964  0.0970  0.5448  0.3454
  413TIP3    H122730   4.400   3.761  14.973 -0.3638  0.1462 -3.3212
  413TIP3    H222731   4.519   3.692  14.909  2.3358  1.4714 -0.0735
  414TIP3   OH222732   3.828   0.709   0.594 -0.3258 -0.5435  0.3559
  414TIP3    H122733   3.821   0.724   0.500  3.3588 -1.3533 -0.1993
  414TIP3    H222734   3.759   0.646   0.614 -1.0407 -0.5209 -1.8274
  415TIP3   OH222735   0.009   6.333   4.543  0.2372  0.0606 -0.0267
  415TIP3    H122736  -0.053   6.272   4.582  0.1936  0.5352  0.6761
  415TIP3    H222737   0.095   6.300   4.570  0.3705 -1.1425 -1.7941
  416TIP3   OH222738   6.018   4.436   4.196  0.2704  0.0725 -0.0436
  416TIP3    H122739   5.928   4.426   4.163 -0.5998  1.6780  1.7096
  416TIP3    H222740   6.072   4.393   4.129 -1.9633 -3.6238  0.2509
  417TIP3   OH222741   5.290   0.044  12.286  0.2615 -0.5591  0.2380
  417TIP3    H122742   5.262   0.105  12.219 -1.6062  0.1121  1.5380
  417TIP3    H222743   5.379   0.072  12.309  0.9177 -0.7685 -1.8331
  418TIP3   OH222744   6.019   1.370  12.712  0.2183 -0.3492  0.3508
  418TIP3    H122745   6.053   1.298  12.765  1.3129 -1.1374 -1.3393
  418TIP3    H222746   6.056   1.448  12.752  0.1345 -0.8254  1.3847
  419TIP3   OH222747   5.577   6.074   4.808 -0.4499 -0.6687 -0.4769
  419TIP3    H122748   5.673   6.075   4.806 -0.4360  0.1920  0.1773
  419TIP3    H222749   5.554   5.993   4.853 -0.0477 -1.1521 -1.1228
  420TIP3   OH222750   3.674   5.043   2.734 -0.3633  0.1344  0.1065
  420TIP3    H122751   3.650   4.952   2.753 -1.6144  0.6505  1.2096
  420TIP3    H222752   3.624   5.094   2.798  1.1296  1.5400  0.2023
  421TIP3   OH222753   6.060   5.197  15.852  0.2469  0.8953 -0.5893
  421TIP3    H122754   6.147   5.208  15.892  1.8740  0.2744 -3.5814
  421TIP3    H222755   6.055   5.269  15.788 -0.4562 -0.3368 -1.9806
  422TIP3   OH222756   5.321   6.308  15.482 -0.1278  0.3438  0.0394
  422TIP3    H122757   5.275   6.240  15.530  1.3028 -0.8846 -0.2440
  422TIP3    H222758   5.342   6.268  15.398  0.1346  1.3848 -0.4039
  423TIP3   OH222759   3.322   6.332   4.376 -0.3445 -0.6005  0.2716
  423TIP3    H122760   3.247   6.325   4.435  1.0537 -0.0025  2.2424
  423TIP3    H222761   3.338   6.427   4.369  1.0685 -0.7409  1.0892
  424TIP3   OH222762   2.776   6.522   6.017 -0.1139 -0.3157 -0.0278
  424TIP3    H122763   2.818   6.552   6.098  1.6595 -1.5853 -0.4235
  424TIP3    H222764   2.805   6.585   5.951 -0.6752  0.0879  0.1007
  425TIP3   OH222765   6.591   5.726   1.537 -0.3508  0.0712  0.5280
  425TIP3    H122766   6.574   5.645   1.489  0.4966  0.7507 -0.9868
  425TIP3    H222767   6.674   5.709   1.582  0.3399  0.4062 -0.5777
  426TIP3   OH222768   4.334   3.000   1.832 -0.2830 -0.0107  0.1014
  426TIP3    H122769   4.245   2.966   1.825  0.3259 -1.3891 -2.1652
  426TIP3    H222770   4.358   3.023   1.742  1.6519  0.3198  0.6562
  427TIP3   OH222771   1.592   5.914  16.321  1.0113 -0.1195  0.2292
  427TIP3    H122772   1.505   5.940  16.351  1.2218  1.2277 -0.2693
  427TIP3    H222773   1.649   5.988  16.342  2.1168 -1.0898  0.8144
  428TIP3   OH222774   6.120   0.409   4.887  0.3240 -0.1893 -0.0393
  428TIP3    H122775   6.176   0.333   4.872 -1.8558 -1.9293  0.1227
  428TIP3    H222776   6.167   0.460   4.954  2.0580 -1.1130 -0.4773
  429TIP3   OH222777   1.835   2.712   2.667  0.0079 -0.2703  0.1411
  429TIP3    H122778   1.908   2.651   2.677  0.2959 -0.1405 -1.0207
  429TIP3    H222779   1.825   2.721   2.573 -0.3453  1.1035  0.2953
  430TIP3   OH222780   0.193   6.706  11.621  0.2411 -0.0356  0.0623
  430TIP3    H122781   0.275   6.659  11.635  0.7794  1.4630  2.7400
  430TIP3    H222782   0.129   6.659  11.674 -0.2641 -0.2475 -0.7217
  431TIP3   OH222783   2.519   3.862  15.302  0.4731 -0.3428 -0.7359
  431TIP3    H122784   2.455   3.928  15.329  2.1269  0.6080  1.2295
  431TIP3    H222785   2.474   3.809  15.236 -1.3916  1.9083 -1.4155
  432TIP3   OH222786   2.825   1.004   1.202  0.0965  0.1949 -0.4978
  432TIP3    H122787   2.813   1.066   1.274 -0.9505  0.5154 -0.9227
  432TIP3    H222788   2.817   0.918   1.242 -0.4077  0.3700 -0.2145
  433TIP3   OH222789   2.745   5.763   3.357  0.6650  0.0278 -0.3455
  433TIP3    H122790   2.699   5.693   3.404  0.3813 -0.8646 -1.8591
  433TIP3    H222791   2.821   5.783   3.411 -1.0906  1.0904  1.9095
  434TIP3   OH222792   6.420   2.852   3.653  0.0522 -0.1823 -0.3342
  434TIP3    H122793   6.357   2.919   3.680 -0.4734 -0.3296 -1.1466
  434TIP3    H222794   6.502   2.900   3.642  0.4316 -0.2016  1.9497
  435TIP3   OH222795   5.565   4.798   0.986  0.1590  0.1749  0.5388
  435TIP3    H122796   5.574   4.726   1.048 -1.0379  0.0474  0.5927
  435TIP3    H222797   5.611   4.769   0.907  2.6624  0.7734  1.6725
  436TIP3   OH222798   3.368   3.545   3.737 -0.1692  0.0660  0.1154
  436TIP3    H122799   3.325   3.460   3.741 -2.5047  1.2074  1.6705
  436TIP3    H222800   3.416   3.552   3.820  1.8499 -0.5575 -0.9424
  437TIP3   OH222801   4.018   5.613   1.394  0.5649  0.3395  0.4276
  437TIP3    H122802   4.042   5.540   1.451 -0.5539 -0.6613 -0.3461
  437TIP3    H222803   3.939   5.650   1.434 -0.2850 -0.4320 -0.4872
  438TIP3   OH222804   2.596   5.358   0.982  0.3421  0.2856  0.0815
  438TIP3    H122805   2.639   5.380   0.899  2.8826  1.5254  1.5796
  438TIP3    H222806   2.667   5.325   1.037 -1.1849 -0.1168  1.9036
  439TIP3   OH222807   5.499   0.776   1.809 -0.1023  0.2816 -0.4141
  439TIP3    H122808   5.458   0.690   1.822  0.0062  0.3021  0.0892
  439TIP3    H222809   5.555   0.788   1.886 -0.9877  1.2958  0.0980
  440TIP3   OH222810   1.287   4.574   0.165  0.2250  0.5153  0.5908
  440TIP3    H122811   1.243   4.605   0.244 -3.5605 -2.3426 -0.1318
  440TIP3    H222812   1.334   4.496   0.193 -3.1447 -1.9991 -0.1263
  441TIP3   OH222813   6.274   2.453  14.978 -0.2378 -0.5293  0.1633
  441TIP3    H122814   6.293   2.379  15.036  0.2219  0.3561  1.1892
  441TIP3    H222815   6.360   2.492  14.961 -0.3273 -0.9644 -1.4148
  442TIP3   OH222816   2.447   4.922  16.784  0.4100  0.2957  0.0127
  442TIP3    H122817   2.438   4.827  16.785 -1.0763  0.3878  1.8970
  442TIP3    H222818   2.433   4.947  16.693 -2.6918 -1.0773 -0.0348
  443TIP3   OH222819   0.680   1.356  14.230  0.2175  0.3173  0.1482
  443TIP3    H122820   0.721   1.330  14.148  0.2776  0.8161  0.0178
  443TIP3    H222821   0.732   1.313  14.298 -0.8046 -1.4378 -0.1186
  444TIP3   OH222822   4.977   2.654  15.409 -0.4430  0.6509 -0.3248
  444TIP3    H122823   4.913   2.712  15.370 -0.9539  0.7049  0.5542
  444TIP3    H222824   4.953   2.651  15.502 -0.1912 -0.6394 -0.2746
  445TIP3   OH222825   2.861   1.075   5.318  0.0077 -0.2189  0.3659
  445TIP3    H122826   2.882   1.000   5.262 -0.9749  0.2422 -0.6730
  445TIP3    H222827   2.926   1.142   5.293 -1.6942  0.7346 -1.8603
  446TIP3   OH222828   2.815   5.971   4.509  0.1704  0.5762  0.0866
  446TIP3    H122829   2.842   5.974   4.418 -1.7382 -1.4472 -0.6424
  446TIP3    H222830   2.866   5.900   4.547  0.2297  0.7378  0.3112
  447TIP3   OH222831   2.652   6.166   2.882 -0.0156  0.7325  0.0233
  447TIP3    H122832   2.567   6.188   2.844 -0.6404 -0.8419  0.4367
  447TIP3    H222833   2.715   6.211   2.825 -1.0630  0.8985 -1.0574
  448TIP3   OH222834   6.766   2.132  12.875  0.4229  0.2592 -0.0670
  448TIP3    H122835   6.797   2.151  12.786 -2.9884 -1.3377 -1.7953
  448TIP3    H222836   6.730   2.216  12.905  1.1560  0.7022 -0.4045
  449TIP3   OH222837   1.451   4.475  10.900 -0.1954 -0.9224  0.0341
  449TIP3    H122838   1.362   4.496  10.929 -0.7883 -0.9106 -1.7127
  449TIP3    H222839   1.477   4.401  10.956 -1.8788 -1.9189 -0.4217
  450TIP3   OH222840   2.521   0.902   3.420  0.1900 -0.2122 -0.2545
  450TIP3    H122841   2.477   0.841   3.361  0.0986  0.1121 -0.5209
  450TIP3    H222842   2.465   0.906   3.497  0.2919 -0.6085 -0.1557
  451TIP3   OH222843   2.876   4.706  11.241  0.0861 -0.0980 -0.1016
  451TIP3    H122844   2.902   4.625  11.284 -0.5901 -1.0080 -1.3265
  451TIP3    H222845   2.927   4.708  11.160  1.4895  1.6801  0.7532
  452TIP3   OH222846   6.009   2.011   3.168  0.1489 -0.4592 -0.2059
  452TIP3    H122847   5.952   1.949   3.123  0.5369  0.1224 -1.5296
  452TIP3    H222848   6.006   1.984   3.260 -0.3931 -1.8650 -0.6209
  453TIP3   OH222849   2.175   1.133   4.012 -0.3667  0.0243 -0.2158
  453TIP3    H122850   2.082   1.136   3.989 -0.4859  3.2698  0.3134
  453TIP3    H222851   2.221   1.147   3.930 -0.4331  0.4273 -0.1872
  454TIP3   OH222852   2.579   3.291  14.583  0.2472  0.0426 -0.5935
  454TIP3    H122853   2.640   3.347  14.535  2.9167 -1.4050  0.8528
  454TIP3    H222854   2.500   3.344  14.591  1.1691  1.9606 -2.8010
  455TIP3   OH222855   5.811   2.731  15.116  0.3212  0.0347  0.2941
  455TIP3    H122856   5.823   2.826  15.109 -1.4811  0.2439 -0.7365
  455TIP3    H222857   5.728   2.721  15.163  0.6506 -1.0411  0.6594
  456TIP3   OH222858   1.621   3.281   3.403 -0.1076  0.1837 -0.3313
  456TIP3    H122859   1.656   3.310   3.318  0.6241  0.9407  0.2077
  456TIP3    H222860   1.613   3.186   3.395  0.1795  0.2213 -1.1624
  457TIP3   OH222861   4.421   0.369  17.094 -0.4332  0.0847  0.4347
  457TIP3    H122862   4.416   0.284  17.052 -0.1345  0.5954 -0.6917
  457TIP3    H222863   4.473   0.354  17.173 -0.5467 -0.8029  0.3478
  458TIP3   OH222864   0.771   3.450  11.522 -0.0854 -0.1415  0.3474
  458TIP3    H122865   0.862   3.477  11.524  0.0532 -0.6023  0.3697
  458TIP3    H222866   0.738   3.467  11.610  0.2331 -0.8346  0.6030
  459TIP3   OH222867   5.546   0.626   1.291 -0.3081 -0.1936 -0.1831
  459TIP3    H122868   5.640   0.619   1.276 -0.2789 -0.6809  0.1740
  459TIP3    H222869   5.531   0.571   1.368 -0.6286  1.1777  0.7667
  460TIP3   OH222870   4.480   2.650   2.469 -0.3598 -0.5036 -0.0296
  460TIP3    H122871   4.450   2.574   2.420 -1.0608 -0.8644  0.9347
  460TIP3    H222872   4.542   2.615   2.533 -0.3646 -0.2005  0.1434
  461TIP3   OH222873   2.930   5.690  10.767 -0.4162  0.3312 -0.0558
  461TIP3    H122874   2.902   5.781  10.774  0.1548  0.6429 -1.4611
  461TIP3    H222875   3.015   5.695  10.723 -0.3147 -0.8823 -0.0238
  462TIP3   OH222876   3.517   6.314   4.914  0.2382 -0.2332  0.0295
  462TIP3    H122877   3.593   6.371   4.926  1.3214 -1.4646 -0.6851
  462TIP3    H222878   3.466   6.356   4.844 -2.5719  3.3413  3.7158
  463TIP3   OH222879   5.705   1.268   2.627 -0.3175 -0.0055  0.4989
  463TIP3    H122880   5.776   1.246   2.688 -1.0814 -1.7151  0.8254
  463TIP3    H222881   5.630   1.219   2.660 -1.4939  1.2695 -0.2145
  464TIP3   OH222882   3.345   6.485  15.738 -0.3808 -0.0242 -0.1897
  464TIP3    H122883   3.412   6.422  15.712  0.8427  1.6363 -1.3537
  464TIP3    H222884   3.263   6.436  15.735  0.6407 -1.8623  0.2584
  465TIP3   OH222885   3.338   2.696   0.720 -0.1076 -0.0607 -0.2134
  465TIP3    H122886   3.272   2.697   0.789  0.0396 -2.6581  0.0804
  465TIP3    H222887   3.422   2.700   0.766 -0.0110 -1.7198 -0.1792
  466TIP3   OH222888   3.894   1.064   0.643 -0.1781 -0.1056 -0.2014
  466TIP3    H122889   3.887   1.099   0.555  0.2354  2.4168  0.6788
  466TIP3    H222890   3.975   1.013   0.643 -0.1896 -0.1321 -1.2661
  467TIP3   OH222891   3.929   4.578  14.309 -0.1664 -0.3313 -0.2328
  467TIP3    H122892   3.948   4.643  14.241 -0.3162  0.6764  0.6486
  467TIP3    H222893   3.999   4.591  14.374  0.8156 -2.2597 -0.8390
  468TIP3   OH222894   2.643   1.466  12.479  0.5713 -0.4019 -0.1912
  468TIP3    H122895   2.708   1.418  12.530  0.9002 -1.0998 -1.2308
  468TIP3    H222896   2.654   1.557  12.507  0.8666 -0.7286  0.8317
  469TIP3   OH222897   4.714   5.866   0.189 -0.5472 -0.1170  0.3315
  469TIP3    H122898   4.805   5.889   0.205 -0.6866 -0.9602  2.7887
  469TIP3    H222899   4.698   5.789   0.245 -2.6610 -0.2248 -0.3175
  470TIP3   OH222900   5.194   5.436   6.167 -0.2264  0.5767  0.3079
  470TIP3    H122901   5.133   5.508   6.183  0.8008  2.1347 -2.1159
  470TIP3    H222902   5.145   5.357   6.189 -2.1579  1.8949  1.0009
  471TIP3   OH222903   6.193   3.857   3.742  0.0093  0.2682  0.0201
  471TIP3    H122904   6.225   3.924   3.802  0.4654  0.3081 -0.2628
  471TIP3    H222905   6.212   3.892   3.655  0.1315 -0.1684 -0.1314
  472TIP3   OH222906   4.998   6.723   5.067  0.0984  0.4559  0.1024
  472TIP3    H122907   5.069   6.663   5.045  1.4429  2.1266 -0.3185
  472TIP3    H222908   5.005   6.793   5.002 -3.2067 -0.2588 -1.2454
  473TIP3   OH222909   5.509   3.477  16.457 -0.4807 -0.5474  0.0425
  473TIP3    H122910   5.532   3.517  16.541  0.3513 -2.0089  0.5495
  473TIP3    H222911   5.423   3.513  16.435 -0.0514  0.9828  0.7761
  474TIP3   OH222912   4.022   1.165   6.576 -0.4840  0.1245 -0.4574
  474TIP3    H122913   4.060   1.104   6.512 -0.2901 -1.1878  0.8456
  474TIP3    H222914   3.936   1.186   6.541 -0.7215 -1.2397 -0.7360
  475TIP3   OH222915   1.938   3.349  14.415  0.0100  0.4207 -0.0348
  475TIP3    H122916   1.933   3.403  14.493  2.7871  0.7821  0.0078
  475TIP3    H222917   1.855   3.302  14.412 -0.0896  0.1337  3.3255
  476TIP3   OH222918   0.712   5.375  14.974 -0.6082 -0.1070  0.2264
  476TIP3    H122919   0.688   5.363  14.882  0.7007 -2.4449  0.1025
  476TIP3    H222920   0.656   5.314  15.022  0.0498 -0.3070  0.7528
  477TIP3   OH222921   1.467   2.805  15.227 -0.1123 -0.0512  0.1841
  477TIP3    H122922   1.415   2.735  15.188  0.2397 -0.1562 -0.1050
  477TIP3    H222923   1.557   2.785  15.200 -0.0817  0.8656 -0.4270
  478TIP3   OH222924   5.356   5.547  15.694 -0.0323 -0.2753  0.3351
  478TIP3    H122925   5.416   5.622  15.702  0.7950 -0.7277 -1.1853
  478TIP3    H222926   5.272   5.587  15.672  0.9119  0.2240 -3.0118
  479TIP3   OH222927   5.464   2.744  11.309  0.3999  0.3490 -0.4223
  479TIP3    H122928   5.395   2.740  11.243  2.8797 -0.0458 -3.1681
  479TIP3    H222929   5.470   2.654  11.342  1.3648 -0.2550 -2.1652
  480TIP3   OH222930   0.135   0.780   2.210  0.2429  0.0474 -0.3629
  480TIP3    H122931   0.049   0.738   2.219 -0.0837  0.2118 -2.2821
  480TIP3    H222932   0.142   0.801   2.116  1.2835  2.3577  0.1503
  481TIP3   OH222933   1.917   5.507   1.029 -0.3789 -0.0498  0.4195
  481TIP3    H122934   1.962   5.588   1.006 -1.3134 -0.6196 -4.8087
  481TIP3    H222935   1.986   5.447   1.055  0.6486  1.6153  1.6853
  482TIP3   OH222936   3.868   0.676   4.656  0.8233  0.1137  0.3679
  482TIP3    H122937   3.808   0.652   4.586  0.7219  0.5723  0.2896
  482TIP3    H222938   3.955   0.652   4.623  0.7365 -0.0348  0.2503
  483TIP3   OH222939   0.336   6.743   1.144 -0.3288 -0.0943 -0.6109
  483TIP3    H122940   0.272   6.673   1.159  0.0470 -0.4669 -0.7439
  483TIP3    H222941   0.414   6.698   1.113  0.7640  0.1026  1.6437
  484TIP3   OH222942   2.332   0.897   5.693 -0.4142  0.2464 -0.2712
  484TIP3    H122943   2.361   0.945   5.616  1.8989  2.5081  1.7826
  484TIP3    H222944   2.250   0.940   5.718 -0.3570  0.5538 -0.6117
  485TIP3   OH222945   3.839   6.138  11.088 -0.4129  0.7389 -0.2026
  485TIP3    H122946   3.864   6.055  11.129  0.1171 -0.6616 -3.0783
  485TIP3    H222947   3.899   6.202  11.124  1.4391 -0.8246 -0.3197
  486TIP3   OH222948   4.311   4.768  17.191 -0.1234  0.0758  0.2380
  486TIP3    H122949   4.388   4.799  17.143 -0.3541  1.9700  0.9934
  486TIP3    H222950   4.237   4.808  17.144 -0.3285  2.5116  2.4305
  487TIP3   OH222951   4.475   4.053   0.694 -0.0066  0.4240 -0.1145
  487TIP3    H122952   4.473   4.142   0.659  0.3946  0.4589 -0.0525
  487TIP3    H222953   4.415   4.055   0.769  0.4973  0.8219  0.2925
  488TIP3   OH222954   6.315   1.738   3.428 -0.0296  0.0182 -0.0168
  488TIP3    H122955   6.309   1.730   3.333 -0.2583  1.3623 -0.1421
  488TIP3    H222956   6.404   1.770   3.444  0.1579 -0.6266  0.2655
  489TIP3   OH222957   5.507   5.177   3.783  0.0009  0.0648  0.2602
  489TIP3    H122958   5.476   5.265   3.760  0.7834  0.2299 -0.2234
  489TIP3    H222959   5.526   5.183   3.876 -1.2826 -0.0120  0.5457
  490TIP3   OH222960   5.990   2.118   0.157 -0.1872 -0.1070  0.1446
  490TIP3    H122961   5.907   2.069   0.158  0.8534 -1.9298  0.6116
  490TIP3    H222962   5.995   2.159   0.243 -1.2344  1.1817 -0.3728
  491TIP3   OH222963   3.008   1.833   6.533 -0.8684 -0.0322 -0.0895
  491TIP3    H122964   2.997   1.925   6.510  0.6361 -0.0189 -0.9222
  491TIP3    H222965   3.094   1.830   6.575 -0.3814 -1.2194 -1.1166
  492TIP3   OH222966   4.593   1.557  13.598  0.3840 -0.0920 -0.2611
  492TIP3    H122967   4.520   1.606  13.634  0.5855 -0.5234  0.7846
  492TIP3    H222968   4.669   1.588  13.647  0.5908 -1.0446  0.0420
  493TIP3   OH222969   0.484   3.556  14.469 -0.3498 -0.1893 -0.2443
  493TIP3    H122970   0.406   3.549  14.525  0.9175  1.7501  1.9808
  493TIP3    H222971   0.556   3.570  14.531  1.5880 -0.5885 -2.2911
  494TIP3   OH222972   5.705   4.406  14.812 -0.0772 -0.1385  0.1523
  494TIP3    H122973   5.736   4.495  14.828  1.5086 -0.4390 -0.9482
  494TIP3    H222974   5.652   4.384  14.889 -0.5179  1.7474  0.4205
  495TIP3   OH222975   1.137   5.698   3.694 -0.5083  0.0121 -0.5190
  495TIP3    H122976   1.185   5.685   3.613  1.9357 -0.6714  0.9469
  495TIP3    H222977   1.078   5.771   3.675  1.6000  1.3873 -2.2704
  496TIP3   OH222978   2.582   4.018  11.791  0.2046  0.0539  0.8264
  496TIP3    H122979   2.656   3.969  11.756 -0.4513 -0.3540 -0.0175
  496TIP3    H222980   2.539   4.055  11.714  0.1301  1.1646  1.3825
  497TIP3   OH222981   6.574   0.599  14.300  0.1873  0.0105  0.3015
  497TIP3    H122982   6.558   0.693  14.313  0.9335 -0.0087  1.5176
  497TIP3    H222983   6.488   0.562  14.282 -0.2783  0.7618  0.9257
  498TIP3   OH222984   2.278   4.229   0.767 -0.0870 -0.2260 -0.0178
  498TIP3    H122985   2.243   4.141   0.778  1.0269 -0.5841  0.8729
  498TIP3    H222986   2.252   4.254   0.679  0.4267 -1.8499 -0.6646
  499TIP3   OH222987   3.465   6.276   3.767 -0.1533 -0.0862 -0.1775
  499TIP3    H122988   3.492   6.224   3.843 -0.5367 -0.1512 -0.0860
  499TIP3    H222989   3.516   6.357   3.774  0.3653 -0.4001 -0.2627
  500TIP3   OH222990   0.022   5.547  12.169 -0.5184 -0.6169 -0.2654
  500TIP3    H122991  -0.029   5.607  12.115 -0.1755  0.0779  0.1650
  500TIP3    H222992  -0.035   5.526  12.242  0.2269  1.1687  0.8872
  501TIP3   OH222993   3.772   4.446  14.785 -0.8082  0.0444 -0.1556
  501TIP3    H122994   3.686   4.485  14.796 -1.3467 -0.8166 -1.0684
  501TIP3    H222995   3.834   4.518  14.801 -1.5188  0.0130  3.5172
  502TIP3   OH222996   2.435   3.409   2.497 -0.1551 -0.1143 -0.7571
  502TIP3    H122997   2.434   3.504   2.484  1.1312  0.4195  2.2138
  502TIP3    H222998   2.525   3.383   2.478  0.3165 -0.1693  1.3574
  503TIP3   OH222999   3.065   4.980   1.687  0.2141 -0.4254 -0.3704
  503TIP3    H123000   3.156   5.008   1.680  0.0820  0.8175  1.8405
  503TIP3    H223001   3.015   5.061   1.675 -0.4662 -0.6730  0.6767
  504TIP3   OH223002   1.332   0.568   3.077  0.1458  0.0097 -1.0056
  504TIP3    H123003   1.255   0.548   3.130  1.3325  0.5145  0.9875
  504TIP3    H223004   1.374   0.484   3.061 -0.8452 -0.2889 -2.2361
  505TIP3   OH223005   5.035   0.970  13.361 -0.1699  0.1740 -0.0749
  505TIP3    H123006   4.962   0.982  13.300 -0.0418 -0.1368 -0.2870
  505TIP3    H223007   5.001   1.002  13.445 -0.6986 -0.3731 -0.0737
  506TIP3   OH223008   4.481   2.777   0.692  0.8159 -0.2428  0.0461
  506TIP3    H123009   4.572   2.752   0.679  0.8320  0.2087 -0.7733
  506TIP3    H223010   4.485   2.866   0.726  0.6988 -0.5641  0.9282
  507TIP3   OH223011   6.326   1.712  17.030 -0.0076 -0.1930 -0.0059
  507TIP3    H123012   6.333   1.790  16.976 -1.0958 -0.6155 -0.7989
  507TIP3    H223013   6.389   1.726  17.101  1.8833  0.1119 -1.6662
  508TIP3   OH223014   2.012   5.940  12.921 -0.2592  0.0810  0.8294
  508TIP3    H123015   2.041   6.031  12.927 -0.1661 -0.0072  1.7980
  508TIP3    H223016   1.934   5.935  12.977 -0.8755 -0.2075 -0.0168
  509TIP3   OH223017   2.165   2.963   0.503 -0.5977 -0.3344  0.1444
  509TIP3    H123018   2.141   2.872   0.485 -0.1648 -0.1841 -1.3451
  509TIP3    H223019   2.086   3.013   0.484  0.0823 -0.0828 -2.4966
  510TIP3   OH223020   2.757   4.488   1.777  0.7521 -0.3463 -0.0788
  510TIP3    H123021   2.814   4.446   1.712  0.4528 -0.1951 -0.4468
  510TIP3    H223022   2.707   4.552   1.727  0.0932 -0.6378  0.1862
  511TIP3   OH223023   3.052   1.533  16.340 -0.0304  0.2658 -0.7607
  511TIP3    H123024   2.976   1.489  16.303  0.2467 -0.2785 -0.7111
  511TIP3    H223025   3.110   1.461  16.366 -1.1490  0.4697  2.8208
  512TIP3   OH223026   0.131   0.489   5.439  0.4971  0.3975 -0.0303
  512TIP3    H123027   0.175   0.507   5.522 -0.4818 -0.2405  0.6375
  512TIP3    H223028   0.054   0.438   5.462  0.6488 -0.5143 -1.4111
  513TIP3   OH223029   6.090   0.808  15.543  0.5266  0.1352  0.4424
  513TIP3    H123030   6.117   0.820  15.634  0.0497 -0.5594  0.6855
  513TIP3    H223031   6.157   0.853  15.492  0.8586  0.4435  1.1311
  514TIP3   OH223032   6.091   1.661   0.807  0.8504  0.0477 -0.5098
  514TIP3    H123033   6.092   1.682   0.714  0.6569 -0.4703 -0.6355
  514TIP3    H223034   6.071   1.744   0.850  0.7374  0.2506 -0.9431
  515TIP3   OH223035   4.739   1.677  16.462  0.4963  0.0389  0.1249
  515TIP3    H123036   4.651   1.680  16.499  0.6580  0.5418  0.4838
  515TIP3    H223037   4.737   1.739  16.389  0.3009 -0.6246 -0.4387
  516TIP3   OH223038   0.405   2.488   3.386  0.6846 -0.2520 -0.0314
  516TIP3    H123039   0.499   2.500   3.403  0.7893 -0.7021 -0.2578
  516TIP3    H223040   0.370   2.459   3.470  0.8028 -0.3698 -0.0217
  517TIP3   OH223041   6.393   3.074   3.399 -0.3306  0.0846 -0.3033
  517TIP3    H123042   6.478   3.045   3.435 -0.6906  0.1132  0.6068
  517TIP3    H223043   6.394   3.043   3.309 -0.0086 -1.3367  0.1474
  518TIP3   OH223044   4.000   2.766  16.089 -0.2520 -0.1628 -0.0165
  518TIP3    H123045   3.958   2.682  16.072  1.3216 -1.4582  2.0180
  518TIP3    H223046   4.090   2.744  16.111 -0.0342  1.9533  1.4900
  519TIP3   OH223047   4.529   3.945   5.107  0.2062  0.1200 -0.3581
  519TIP3    H123048   4.596   4.010   5.124  1.7291 -1.8477  1.5643
  519TIP3    H223049   4.509   3.906   5.192 -2.4145 -0.3351 -1.0652
  520TIP3   OH223050   5.352   5.909   4.460  0.6849 -0.2187  0.9258
  520TIP3    H123051   5.361   5.818   4.488  2.2724  0.3407  2.3843
  520TIP3    H223052   5.428   5.953   4.497  1.1476  1.2808 -1.5950
  521TIP3   OH223053   4.918   1.370  16.930  0.2452 -0.0068  0.3904
  521TIP3    H123054   4.948   1.302  16.870  0.1220 -0.0301  0.3557
  521TIP3    H223055   4.853   1.419  16.881  0.0864 -0.0756  0.5317
  522TIP3   OH223056   5.803   6.631   2.536 -0.3182 -0.1256 -0.6959
  522TIP3    H123057   5.883   6.582   2.520  1.1138  1.9282 -0.2195
  522TIP3    H223058   5.826   6.722   2.516 -2.2804  0.6387  0.2572
  523TIP3   OH223059   2.471   0.342   0.129 -0.1685 -0.2803  0.5070
  523TIP3    H123060   2.471   0.316   0.037  1.4135  1.0737  0.0847
  523TIP3    H223061   2.378   0.356   0.150 -0.5115 -0.0987 -1.0303
  524TIP3   OH223062   4.178   4.536  12.703  0.0086 -0.8297  0.7696
  524TIP3    H123063   4.175   4.608  12.767  1.1409 -0.2764  0.2426
  524TIP3    H223064   4.272   4.521  12.689 -0.1013  0.5811 -2.3936
  525TIP3   OH223065   4.454   6.513  12.229 -0.1887 -0.2400 -0.2492
  525TIP3    H123066   4.496   6.553  12.152 -1.1141  1.5193  0.1094
  525TIP3    H223067   4.380   6.464  12.193  0.6643 -1.2589 -0.6550
  526TIP3   OH223068   6.792   5.720  15.490 -0.0092 -0.3084 -0.0847
  526TIP3    H123069   6.757   5.693  15.405 -0.5246  1.3018 -0.4217
  526TIP3    H223070   6.887   5.709  15.482 -0.0163  0.2200 -1.0321
  527TIP3   OH223071   1.640   3.858   3.242 -0.3741 -0.2276  0.0174
  527TIP3    H123072   1.564   3.809   3.276  0.6105 -0.4434  2.0559
  527TIP3    H223073   1.619   3.949   3.259 -0.5732 -0.2150 -0.2876
  528TIP3   OH223074   2.489   4.959  10.566 -0.0340 -0.5381 -0.2552
  528TIP3    H123075   2.464   4.866  10.563  1.5049 -1.0140 -3.7887
  528TIP3    H223076   2.425   5.003  10.510  0.1019  0.2637  0.2196
  529TIP3   OH223077   1.450   5.473   3.508 -0.0044 -0.5293 -0.6454
  529TIP3    H123078   1.501   5.410   3.558 -0.0101  1.4960  2.1675
  529TIP3    H223079   1.507   5.498   3.435  2.4530  0.4021  1.4244
  530TIP3   OH223080   6.019   1.884  15.758 -0.1306  0.2868  0.6569
  530TIP3    H123081   6.099   1.936  15.760 -0.3162  0.5619  1.2259
  530TIP3    H223082   5.955   1.936  15.806 -0.9375  0.5192 -0.6339
  531TIP3   OH223083   3.382   4.997  11.485 -0.4148 -0.3536 -0.0856
  531TIP3    H123084   3.348   5.086  11.484  2.2541  0.7504 -0.6277
  531TIP3    H223085   3.403   4.980  11.577  2.8761  1.2477 -0.4249
  532TIP3   OH223086   5.907   5.675  13.421 -0.1533  0.5383 -0.3266
  532TIP3    H123087   5.923   5.691  13.328  0.2498  0.4724 -0.2732
  532TIP3    H223088   5.845   5.602  13.423  3.1282 -2.5574 -0.5740
  533TIP3   OH223089   5.388   0.944   0.743  0.2598 -0.3607 -0.4833
  533TIP3    H123090   5.390   1.038   0.723 -0.5614 -0.3341 -0.5104
  533TIP3    H223091   5.354   0.903   0.664 -1.9961 -0.3655  0.4101
  534TIP3   OH223092   4.595   1.002  15.581  0.2998 -0.2750 -0.1267
  534TIP3    H123093   4.608   1.020  15.488 -2.3465  0.3163 -0.4718
  534TIP3    H223094   4.546   0.920  15.582 -0.5295  0.2093  0.6612
  535TIP3   OH223095   4.671   2.756   3.848 -0.2439  0.1110  0.3326
  535TIP3    H123096   4.735   2.708   3.901  0.4747  2.3369  1.5992
  535TIP3    H223097   4.620   2.806   3.911 -3.6103 -1.8422 -0.6097
  536TIP3   OH223098   2.384   3.168  12.072  0.3111 -0.2658  0.2131
  536TIP3    H123099   2.290   3.170  12.090  0.3595  1.3597  0.3719
  536TIP3    H223100   2.422   3.129  12.151 -0.2387 -1.3547 -0.0278
  537TIP3   OH223101   4.532   1.752   3.955 -0.4547 -0.4903 -0.2166
  537TIP3    H123102   4.539   1.658   3.941 -0.3260 -0.5641  0.3155
  537TIP3    H223103   4.561   1.765   4.045  0.3500  0.1665 -0.5620
  538TIP3   OH223104   1.946   1.619   4.146 -0.4620  0.1767 -0.1833
  538TIP3    H123105   1.914   1.615   4.056 -0.6773  0.1566 -0.1071
  538TIP3    H223106   1.872   1.589   4.199 -0.0573 -0.6253 -0.0597
  539TIP3   OH223107   0.811   5.140  15.546 -0.7421 -0.3219  0.7729
  539TIP3    H123108   0.789   5.218  15.495  0.7399 -0.4064 -0.0609
  539TIP3    H223109   0.733   5.084  15.540 -0.7859 -0.1359 -1.0552
  540TIP3   OH223110   5.659   2.511  12.414 -0.1416  0.3154 -0.2131
  540TIP3    H123111   5.650   2.558  12.497 -0.8750  1.4727 -0.9248
  540TIP3    H223112   5.713   2.569  12.360 -0.5298  0.0375 -0.8986
  541TIP3   OH223113   3.261   4.352  15.005 -0.4410  0.3452  0.4702
  541TIP3    H123114   3.234   4.338  14.914  1.2796 -1.3499  0.1543
  541TIP3    H223115   3.275   4.264  15.039  0.8283  1.0084  1.7602
  542TIP3   OH223116   3.562   4.246   4.111 -0.9101 -0.5752 -0.2150
  542TIP3    H123117   3.615   4.276   4.037 -1.2496  0.7129  0.0308
  542TIP3    H223118   3.588   4.304   4.183 -0.0412 -2.2930  0.8988
  543TIP3   OH223119   2.662   6.624  15.141  0.0481 -0.3249  0.6596
  543TIP3    H123120   2.732   6.620  15.206  1.2697 -1.0017 -0.6354
  543TIP3    H223121   2.688   6.694  15.082 -0.1964 -0.7885 -0.0156
  544TIP3   OH223122   4.356   0.785   1.321  0.0433 -0.5980  0.5049
  544TIP3    H123123   4.265   0.794   1.351  0.1316 -0.1856  0.6465
  544TIP3    H223124   4.409   0.795   1.400  0.2606  0.1977  0.2653
  545TIP3   OH223125   6.520   5.627  11.527 -0.0942 -0.6121  0.3845
  545TIP3    H123126   6.513   5.711  11.482  1.6492  0.1020  1.3647
  545TIP3    H223127   6.561   5.569  11.462 -0.0738 -0.3421  0.1520
  546TIP3   OH223128   6.140   2.142  12.010 -0.2940  0.0714  0.6826
  546TIP3    H123129   6.127   2.100  12.095 -1.8356  0.3151  0.5968
  546TIP3    H223130   6.233   2.129  11.991  0.0684 -0.0644  2.3560
  547TIP3   OH223131   5.772   3.087  13.903 -0.3825  0.0654  0.1397
  547TIP3    H123132   5.831   3.012  13.911 -1.0697 -0.5884 -0.7048
  547TIP3    H223133   5.806   3.151  13.966  1.4963 -0.1028 -0.6324
  548TIP3   OH223134   2.295   4.477   5.378 -0.7363  0.6377 -0.0584
  548TIP3    H123135   2.305   4.482   5.283 -3.2770 -0.6354 -0.4516
  548TIP3    H223136   2.248   4.557   5.402  0.8004  1.4820  0.3569
  549TIP3   OH223137   6.255   4.169  13.212 -0.0678  0.3971 -0.0716
  549TIP3    H123138   6.337   4.209  13.241  0.1305  0.0630 -0.1639
  549TIP3    H223139   6.277   4.077  13.200 -0.5050  0.2703  0.0834
  550TIP3   OH223140   1.989   2.633   5.469  0.3301 -0.2622 -0.8043
  550TIP3    H123141   2.001   2.552   5.518  0.4717  0.2260 -0.0036
  550TIP3    H223142   2.068   2.640   5.415 -0.6549 -1.7349 -2.5414
  551TIP3   OH223143   2.943   0.405   2.576  0.3406 -0.0832  0.2344
  551TIP3    H123144   2.911   0.334   2.631  0.1640  0.8186  1.3504
  551TIP3    H223145   2.992   0.461   2.637  0.1950  0.9083 -0.5435
  552TIP3   OH223146   1.258   0.046  16.476  0.0236 -0.7017  0.2672
  552TIP3    H123147   1.313  -0.012  16.529 -0.5820 -0.8891  0.6904
  552TIP3    H223148   1.271   0.133  16.514 -0.1320 -0.7783  0.4962
  553TIP3   OH223149   3.117   5.063  14.137 -0.0708 -0.0884  0.8881
  553TIP3    H123150   3.165   5.043  14.057  0.6443  2.0961  0.7125
  553TIP3    H223151   3.047   4.998  14.139  2.1711 -2.6578  0.5789
  554TIP3   OH223152   6.312   2.501  13.713 -0.0329 -0.2088  0.1940
  554TIP3    H123153   6.250   2.511  13.785 -0.3531 -3.3907  0.5139
  554TIP3    H223154   6.258   2.480  13.637  0.5021 -1.3872  0.1068
  555TIP3   OH223155   4.624   2.337   3.132 -0.2487 -0.3890 -0.2521
  555TIP3    H123156   4.552   2.290   3.175  0.4256 -1.6218 -0.4098
  555TIP3    H223157   4.634   2.417   3.184 -1.4095 -0.4180  0.0556
  556TIP3   OH223158   3.934   5.348  13.913 -0.1095 -0.0510 -0.7356
  556TIP3    H123159   3.845   5.370  13.939 -0.8969 -1.1118 -2.3710
  556TIP3    H223160   3.931   5.254  13.895  1.4211 -0.1633 -0.5238
  557TIP3   OH223161   4.317   4.372   2.758  0.2244  0.7910  0.1002
  557TIP3    H123162   4.229   4.335   2.749 -0.1815  1.7120  0.0877
  557TIP3    H223163   4.367   4.306   2.805 -0.8628  0.8083  1.3253
  558TIP3   OH223164   0.481   2.150  13.648  0.0204  0.3358 -0.2504
  558TIP3    H123165   0.515   2.218  13.707 -0.1029  2.0402 -2.0307
  558TIP3    H223166   0.555   2.126  13.593  0.2116 -1.4603  0.7030
  559TIP3   OH223167   0.520   5.325   4.596  0.1569  0.3097  0.0981
  559TIP3    H123168   0.554   5.321   4.507 -1.1581 -1.5977 -0.3809
  559TIP3    H223169   0.425   5.332   4.586  0.0772  1.6565  1.3769
  560TIP3   OH223170   5.666   3.149   1.575  0.0121 -0.1783 -0.4396
  560TIP3    H123171   5.643   3.105   1.656 -0.7260  2.7786  1.0950
  560TIP3    H223172   5.650   3.084   1.507 -3.1681 -1.5460  1.4073
  561TIP3   OH223173   0.179   1.516  10.682  0.1956 -0.1661 -0.1360
  561TIP3    H123174   0.163   1.453  10.612  0.4967 -0.1599 -0.2126
  561TIP3    H223175   0.165   1.602  10.641  0.0158 -0.1769 -0.0950
  562TIP3   OH223176   2.277   4.902   1.304 -0.4425 -0.1054  0.2230
  562TIP3    H123177   2.191   4.940   1.287 -0.1377  0.4493 -0.0943
  562TIP3    H223178   2.294   4.922   1.396  0.2486  1.6421 -0.2507
  563TIP3   OH223179   5.379   1.853   0.012  0.2864 -0.5060  0.0485
  563TIP3    H123180   5.377   1.869   0.106 -0.3432 -0.9004  0.1072
  563TIP3    H223181   5.290   1.870  -0.018  0.4173 -0.6390 -0.4358
  564TIP3   OH223182   1.541   0.904  15.135  0.0779  0.2160  0.0195
  564TIP3    H123183   1.511   0.935  15.050 -0.4518  0.0101  0.1279
  564TIP3    H223184   1.461   0.892  15.186  0.2482 -1.4146 -0.0507
  565TIP3   OH223185   4.686   2.797  12.764  0.0407 -0.6346  0.0359
  565TIP3    H123186   4.689   2.812  12.858 -1.7586  0.5769 -0.0501
  565TIP3    H223187   4.694   2.884  12.725  2.6703 -1.2834 -1.0536
  566TIP3   OH223188   2.140   4.295   5.775  0.0807  0.1702  0.4094
  566TIP3    H123189   2.197   4.369   5.795  0.7465 -0.5199  1.1244
  566TIP3    H223190   2.180   4.221   5.820 -1.1161 -0.4267  0.5319
  567TIP3   OH223191   5.645   6.413  10.861 -0.9165 -0.4776 -0.2340
  567TIP3    H123192   5.655   6.334  10.914 -2.9009  0.0201  0.9965
  567TIP3    H223193   5.572   6.393  10.803 -1.1776  0.2973 -0.1774
  568TIP3   OH223194   6.045   3.189  12.406 -0.2242  0.0129  0.3158
  568TIP3    H123195   6.117   3.153  12.355 -1.8921  0.1680 -2.3289
  568TIP3    H223196   6.058   3.284  12.404  0.4219 -0.0350  1.3838
  569TIP3   OH223197   0.914   4.019  10.702 -0.1295 -0.2503 -0.4755
  569TIP3    H123198   0.916   4.087  10.634 -1.9399  1.3494  0.9770
  569TIP3    H223199   0.860   4.056  10.772  0.8647 -2.2302  1.4525
  570TIP3   OH223200   5.502   1.558   1.852 -0.0406 -0.9051  0.3424
  570TIP3    H123201   5.561   1.600   1.790 -0.6244  0.8911  0.9597
  570TIP3    H223202   5.557   1.496   1.900  0.8520 -0.8333 -0.5568
  571TIP3   OH223203   0.163   3.163   1.773 -0.2940 -0.2860  0.1797
  571TIP3    H123204   0.136   3.101   1.705  0.6296 -0.1857 -0.2967
  571TIP3    H223205   0.092   3.228   1.776 -0.0647  0.0578 -1.1396
  572TIP3   OH223206   6.613   4.731  12.770 -0.5277 -0.3167  0.0826
  572TIP3    H123207   6.545   4.688  12.717  0.7964  0.4161 -2.3592
  572TIP3    H223208   6.662   4.785  12.707  3.1743 -1.8171  1.4082
  573TIP3   OH223209   3.928   1.304   1.243  0.1138  0.2195  0.2699
  573TIP3    H123210   3.974   1.244   1.184  3.4408  1.9949  0.7878
  573TIP3    H223211   3.932   1.260   1.328  0.4522  0.1388  0.2147
  574TIP3   OH223212   0.713   4.580  14.134  0.1806  0.3715 -0.5264
  574TIP3    H123213   0.759   4.522  14.073  0.2591 -1.8369  1.4805
  574TIP3    H223214   0.645   4.524  14.173  1.1598  1.1363  2.5404
  575TIP3   OH223215   6.248   3.534   5.558  0.1909  0.0934  0.6187
  575TIP3    H123216   6.215   3.571   5.475 -0.5605 -0.8364  0.4769
  575TIP3    H223217   6.253   3.608   5.617  0.1660  0.6765 -0.0952
  576TIP3   OH223218   0.231   5.745  16.784  0.3643  0.1400  0.0598
  576TIP3    H123219   0.193   5.822  16.742 -0.7751 -1.0281 -1.1409
  576TIP3    H223220   0.160   5.708  16.836  0.3012 -1.1619 -0.9077
  577TIP3   OH223221   1.763   4.391   3.743 -0.1078 -0.0619  0.2045
  577TIP3    H123222   1.810   4.309   3.730 -0.3203 -0.4109  1.4950
  577TIP3    H223223   1.672   4.369   3.723 -0.1055 -0.0421  0.1732
  578TIP3   OH223224   2.923   6.808  14.688  0.5585  0.3005  0.2334
  578TIP3    H123225   2.955   6.866  14.619  0.0564  0.9328  0.5311
  578TIP3    H223226   2.971   6.835  14.767 -0.3046  0.9107  0.5665
  579TIP3   OH223227   3.650   2.335  14.878  0.3498 -0.0380  0.0062
  579TIP3    H123228   3.694   2.401  14.932  1.9989 -0.8356 -0.3020
  579TIP3    H223229   3.577   2.381  14.838  0.1957  1.0516  1.4485
  580TIP3   OH223230   2.609   6.810  13.843  0.7512  0.0916  1.0110
  580TIP3    H123231   2.669   6.872  13.801  0.3045 -0.5697 -0.6703
  580TIP3    H223232   2.659   6.776  13.917  1.2669  1.9016  1.5619
  581TIP3   OH223233   4.511   2.264   0.262 -0.3406 -0.0926  0.4254
  581TIP3    H123234   4.465   2.348   0.260 -0.0564  0.0563 -0.5400
  581TIP3    H223235   4.602   2.287   0.282 -0.7217 -0.4323  2.8971
  582TIP3   OH223236   1.590   4.732  13.123 -0.2530  0.4927  0.2262
  582TIP3    H123237   1.593   4.645  13.162  0.2696 -0.2952 -1.4727
  582TIP3    H223238   1.513   4.774  13.162 -0.2930 -0.5722  1.3422
  583TIP3   OH223239   1.834   5.703  12.897  0.5545 -0.4058  0.1401
  583TIP3    H123240   1.852   5.610  12.885  3.4930  0.0560  0.2335
  583TIP3    H223241   1.916   5.746  12.873 -1.0767  2.2808 -1.0849
  584TIP3   OH223242   3.748   3.553  17.005  0.8463  0.1902 -0.4924
  584TIP3    H123243   3.670   3.524  16.958 -0.3725  0.1035  1.4580
  584TIP3    H223244   3.745   3.505  17.088  1.9364  1.5752  0.4022
  585TIP3   OH223245   5.995   1.279   3.882 -0.2544  0.0219 -0.1507
  585TIP3    H123246   5.927   1.226   3.842 -2.1901  1.9123  0.4294
  585TIP3    H223247   5.998   1.358   3.828 -0.3208  1.0384  1.2824
  586TIP3   OH223248   6.791   2.789  15.138 -0.5727 -0.2722  0.5746
  586TIP3    H123249   6.864   2.783  15.200 -0.4760 -2.5012  0.3078
  586TIP3    H223250   6.714   2.766  15.189 -0.9436  0.8538  0.5508
  587TIP3   OH223251   6.138   4.518   3.362  0.1745 -0.7483  0.6198
  587TIP3    H123252   6.118   4.485   3.450  0.3469 -0.3671  0.8035
  587TIP3    H223253   6.053   4.545   3.327 -0.1237 -2.2843  0.0852
  588TIP3   OH223254   6.121   0.095  11.306 -0.1842  0.0629  0.4362
  588TIP3    H123255   6.127   0.025  11.371  1.4376  0.0824  0.3428
  588TIP3    H223256   6.169   0.168  11.345 -2.2016  1.3217  0.7236
  589TIP3   OH223257   5.644   0.182  13.292  0.0225  0.3008  0.1625
  589TIP3    H123258   5.693   0.117  13.343 -1.4908 -0.4342  0.7417
  589TIP3    H223259   5.584   0.130  13.238  0.3353  1.1485 -1.0496
  590TIP3   OH223260   1.255   6.665   1.965 -0.2451  0.0904  0.2046
  590TIP3    H123261   1.266   6.644   2.058 -4.3125  0.8276  1.0661
  590TIP3    H223262   1.276   6.758   1.958 -0.2954  0.1248  0.5008
  591TIP3   OH223263   1.138   3.811  13.688  0.0363 -0.7975  0.4051
  591TIP3    H123264   1.207   3.786  13.627  0.0035 -1.0759  0.4782
  591TIP3    H223265   1.166   3.896  13.723 -0.3561 -0.2325 -0.6155
  592TIP3   OH223266   1.656   0.750   4.582 -0.6413 -0.2445  0.0169
  592TIP3    H123267   1.687   0.777   4.668  1.2359  0.6695 -0.8857
  592TIP3    H223268   1.567   0.717   4.597 -0.6722  0.6801  2.1446
  593TIP3   OH223269   4.541   0.620   0.406  0.1883  0.3831 -0.4040
  593TIP3    H123270   4.601   0.680   0.360  0.4635 -0.7816 -1.6471
  593TIP3    H223271   4.561   0.534   0.369  0.1025 -0.5676  1.6425
  594TIP3   OH223272   0.994   0.387  12.354  0.6602 -0.0071 -0.5171
  594TIP3    H123273   0.943   0.317  12.314 -0.4422  1.4858 -1.8616
  594TIP3    H223274   1.032   0.347  12.433  0.9399 -2.3699 -1.7612
  595TIP3   OH223275   0.482   0.230  14.799 -0.4906  0.6885 -0.6407
  595TIP3    H123276   0.532   0.286  14.857  0.6522 -0.1171 -0.8122
  595TIP3    H223277   0.397   0.273  14.790 -0.1627  1.5804  0.4277
  596TIP3   OH223278   2.724   6.131  14.801 -0.0916 -0.2168  0.2669
  596TIP3    H123279   2.760   6.047  14.831 -0.3044 -0.6392 -0.6242
  596TIP3    H223280   2.696   6.175  14.881 -0.7391 -1.3496  0.6889
  597TIP3   OH223281   1.379   1.512   2.051 -0.2508 -0.2650 -0.1926
  597TIP3    H123282   1.405   1.420   2.060 -1.9950 -0.7374  0.4630
  597TIP3    H223283   1.292   1.508   2.011 -0.8521  1.0263  0.9128
  598TIP3   OH223284   6.223   5.676   3.254 -0.5393 -0.7845 -0.4189
  598TIP3    H123285   6.250   5.681   3.162 -2.3232  1.6398 -0.9306
  598TIP3    H223286   6.180   5.760   3.270  1.4193 -0.2747  3.2362
  599TIP3   OH223287   0.356   4.437  11.069 -0.0804  0.2361  0.0460
  599TIP3    H123288   0.390   4.524  11.089  0.1338  0.2865 -0.5085
  599TIP3    H223289   0.321   4.445  10.980 -0.4628 -0.1307  0.1602
  600TIP3   OH223290   6.039   4.185   2.906  0.2850  0.3644 -0.1157
  600TIP3    H123291   6.032   4.257   2.970  1.4207 -0.2218  0.7016
  600TIP3    H223292   5.962   4.131   2.924  0.5502  0.2418  0.7304
  601TIP3   OH223293   0.995   6.813  14.168  0.0809 -0.1097  0.2697
  601TIP3    H123294   0.919   6.777  14.123  2.1829 -2.1879 -1.8504
  601TIP3    H223295   1.011   6.897  14.125 -0.0234 -0.4568 -0.4573
  602TIP3   OH223296   5.118   5.271   3.555  0.4497 -0.3954  0.1939
  602TIP3    H123297   5.066   5.319   3.490 -1.0046 -1.3432  0.5979
  602TIP3    H223298   5.173   5.338   3.596  0.8807  0.3314 -1.5130
  603TIP3   OH223299   3.375   5.099  15.558 -0.3163  0.3008 -0.1813
  603TIP3    H123300   3.469   5.098  15.542 -0.0007  1.1610  1.4380
  603TIP3    H223301   3.337   5.064  15.477  1.3601  0.2053 -0.9761
  604TIP3   OH223302   4.655   3.009   0.023 -0.7417 -0.3755  0.2688
  604TIP3    H123303   4.699   2.976   0.101  0.1866 -0.6951 -0.3824
  604TIP3    H223304   4.628   2.930  -0.025  0.2221 -0.1993 -0.5869
  605TIP3   OH223305   3.051   3.577   6.157  0.3711 -0.3674 -0.3972
  605TIP3    H123306   2.960   3.607   6.169  0.4605 -0.4113  0.4461
  605TIP3    H223307   3.097   3.654   6.123 -0.0504 -0.4438 -1.1608
  606TIP3   OH223308   2.467   4.726   3.122 -0.0076 -0.2391  0.3662
  606TIP3    H123309   2.381   4.710   3.083  0.5276 -2.9566  0.0976
  606TIP3    H223310   2.451   4.722   3.217 -0.8548  3.8728  0.6185
  607TIP3   OH223311   0.657   2.586  17.205  0.0416 -0.3779  0.1835
  607TIP3    H123312   0.596   2.579  17.132  0.0288  0.3467  0.1166
  607TIP3    H223313   0.602   2.572  17.283 -0.1253 -0.1618  0.1051
  608TIP3   OH223314   4.556   2.839  14.648 -0.1371  0.4565 -0.0270
  608TIP3    H123315   4.630   2.779  14.657 -0.0198  0.8241  1.6135
  608TIP3    H223316   4.592   2.913  14.599  0.1366 -0.0804 -0.6606
  609TIP3   OH223317   3.984   3.901  11.266 -0.0213  0.0362 -0.2593
  609TIP3    H123318   3.892   3.921  11.247 -0.4853 -2.0520 -0.4030
  609TIP3    H223319   4.031   3.925  11.186 -0.7898 -0.9907 -1.0471
  610TIP3   OH223320   1.926   5.322  12.156  0.1582 -0.3092  0.2178
  610TIP3    H123321   1.925   5.232  12.121 -0.2194 -0.5767  0.8955
  610TIP3    H223322   2.017   5.335  12.185  0.6769  0.1948 -1.5298
  611TIP3   OH223323   1.642   0.113  15.799  0.7876  0.1129  0.4306
  611TIP3    H123324   1.549   0.130  15.815  0.1309  1.9413 -3.8604
  611TIP3    H223325   1.688   0.186  15.841 -0.2032  1.4336 -0.6655
  612TIP3   OH223326   1.055   5.516  16.723  0.0585  0.2132  0.0467
  612TIP3    H123327   1.106   5.462  16.662 -0.9870  0.7722 -1.3733
  612TIP3    H223328   1.110   5.522  16.801  2.8281  1.8776 -1.8443
  613TIP3   OH223329   2.615   5.017   1.700  0.8318  0.3235 -0.2601
  613TIP3    H123330   2.693   4.961   1.699  0.7048  0.0853  1.2989
  613TIP3    H223331   2.612   5.053   1.788 -0.0481  1.4551 -0.7309
  614TIP3   OH223332   1.236   2.364  10.453  0.2787  0.2484  0.0472
  614TIP3    H123333   1.240   2.458  10.439  1.7822  0.0810 -0.8522
  614TIP3    H223334   1.159   2.335  10.404  0.0037  0.9531  0.0561
  615TIP3   OH223335   4.990   6.763  17.099 -0.1755  0.0428 -0.2224
  615TIP3    H123336   5.027   6.675  17.089 -0.1549 -0.1039  0.9602
  615TIP3    H223337   4.967   6.769  17.192 -2.6308  0.3242 -0.7740
  616TIP3   OH223338   2.249   2.394  12.162  0.2841  0.2038  0.7133
  616TIP3    H123339   2.241   2.329  12.232 -1.6782 -0.1264  0.2302
  616TIP3    H223340   2.267   2.476  12.208  1.1301 -0.3556  1.4325
  617TIP3   OH223341   4.193   4.542   5.529  0.3560 -0.4395 -0.9108
  617TIP3    H123342   4.281   4.530   5.563 -0.1739 -1.2596  0.2368
  617TIP3    H223343   4.137   4.541   5.607 -0.7461 -0.7880 -1.6846
  618TIP3   OH223344   6.363   5.887   5.258  0.1659 -0.0523  0.7489
  618TIP3    H123345   6.416   5.854   5.330  2.4675 -0.9846 -1.2009
  618TIP3    H223346   6.317   5.963   5.294  1.8344  0.0086  2.9568
  619TIP3   OH223347   3.026   4.059   2.638  0.0610  0.3478  0.5043
  619TIP3    H123348   3.014   4.113   2.716 -0.4000  2.2269 -0.8256
  619TIP3    H223349   3.120   4.040   2.637  0.0292  0.0130  1.6590
  620TIP3   OH223350   0.888   1.170  11.437  0.0057 -0.0322 -0.0155
  620TIP3    H123351   0.949   1.099  11.420 -2.2310 -2.1712  0.3996
  620TIP3    H223352   0.911   1.201  11.525  0.6871 -0.6172  0.0163
  621TIP3   OH223353   6.666   2.131  13.813  0.1887 -0.3606  0.0693
  621TIP3    H123354   6.724   2.055  13.819 -0.3339 -0.7258  0.6529
  621TIP3    H223355   6.725   2.206  13.812  0.6774 -0.7198  0.7470
  622TIP3   OH223356   2.798   2.994   6.352  0.5292 -0.0165 -0.2347
  622TIP3    H123357   2.818   3.085   6.329  1.7387 -0.4608 -1.0476
  622TIP3    H223358   2.884   2.952   6.360  0.0621 -0.7404  1.7295
  623TIP3   OH223359   5.293   2.837   1.246 -0.1731  0.2620  0.2818
  623TIP3    H123360   5.307   2.749   1.282 -0.4949  0.4638  0.9065
  623TIP3    H223361   5.287   2.894   1.322  0.9635  0.9809 -0.1417
  624TIP3   OH223362   0.236   1.837  14.886  0.3018  0.8335 -0.2612
  624TIP3    H123363   0.280   1.899  14.828  0.2808  0.1491 -1.0329
  624TIP3    H223364   0.147   1.871  14.894  0.2284  0.7876 -0.8527
  625TIP3   OH223365   3.869   5.445   4.596 -0.0099 -0.1834  0.7472
  625TIP3    H123366   3.872   5.350   4.585 -1.0758 -0.4721  2.5878
  625TIP3    H223367   3.955   5.468   4.632 -0.3147 -0.7082  1.8508
  626TIP3   OH223368   3.427   0.353  14.873  0.2448  0.4219 -0.0619
  626TIP3    H123369   3.333   0.338  14.857  0.4305 -0.8432 -0.0861
  626TIP3    H223370   3.443   0.315  14.959  0.7019  0.8318  0.0384
  627TIP3   OH223371   4.997   4.156   2.243 -0.0981  0.0022 -0.0732
  627TIP3    H123372   4.966   4.156   2.152 -0.8809  1.8251  0.1426
  627TIP3    H223373   4.974   4.070   2.276  1.2639 -1.1549 -1.9118
  628TIP3   OH223374   2.856   0.067  12.070 -0.6722  0.1093  0.3725
  628TIP3    H123375   2.799   0.086  12.145 -0.4083  1.1004  0.3435
  628TIP3    H223376   2.796   0.061  11.996 -0.8840 -0.3563  0.5789
  629TIP3   OH223377   5.590   5.129   3.229 -0.3770  0.0072 -0.0219
  629TIP3    H123378   5.507   5.159   3.266 -0.4842  0.7154 -0.8091
  629TIP3    H223379   5.603   5.042   3.267  0.0462  1.0764  2.5437
  630TIP3   OH223380   5.436   6.040  14.194  0.2400 -0.0515  0.1674
  630TIP3    H123381   5.418   6.079  14.109  0.7791  0.8476  0.4464
  630TIP3    H223382   5.428   6.113  14.256 -1.4418 -0.9489  1.0699
  631TIP3   OH223383   3.726   4.014  10.836  0.0689  0.3141  0.1036
  631TIP3    H123384   3.786   4.086  10.852  1.1521 -0.7773  1.0831
  631TIP3    H223385   3.771   3.937  10.869 -1.2511 -0.7625 -0.5108
  632TIP3   OH223386   2.993   1.582  11.270 -0.0134  0.5884  0.1042
  632TIP3    H123387   2.904   1.588  11.307  0.3445  1.3068  0.8975
  632TIP3    H223388   2.997   1.654  11.207  0.3887  1.3452  0.9640
  633TIP3   OH223389   5.296   5.138  12.879 -0.2709  0.1863  0.0151
  633TIP3    H123390   5.355   5.112  12.808 -2.2765 -1.3194 -1.1993
  633TIP3    H223391   5.265   5.224  12.855  1.6901  1.2365  0.9241
  634TIP3   OH223392   3.249   0.794   0.054  0.1324  0.6180  0.2182
  634TIP3    H123393   3.170   0.819   0.102  0.2499  1.7024 -0.1229
  634TIP3    H223394   3.218   0.768  -0.032  0.2221  2.2966 -0.3617
  635TIP3   OH223395   0.762   2.983  15.236  0.0422  0.5187  0.4764
  635TIP3    H123396   0.705   2.928  15.182 -0.9095  2.4480 -0.5953
  635TIP3    H223397   0.727   3.071  15.225  2.6714  1.6583  0.5688
  636TIP3   OH223398   5.390   4.975  14.905 -0.3595 -0.5886 -0.4943
  636TIP3    H123399   5.319   5.038  14.896  0.4030  0.7327  1.7907
  636TIP3    H223400   5.347   4.890  14.910 -1.8479  0.2086  1.2778
  637TIP3   OH223401   4.647   1.709   5.577 -0.0246  0.0516  0.0934
  637TIP3    H123402   4.558   1.742   5.563  0.0486 -0.6486 -2.5949
  637TIP3    H223403   4.674   1.676   5.492  3.5152  1.8406  0.3254
  638TIP3   OH223404   0.467   2.459  15.289  0.1904 -0.1849  0.2045
  638TIP3    H123405   0.510   2.431  15.369  1.6063 -0.1648 -0.5189
  638TIP3    H223406   0.539   2.479  15.229 -0.8232  0.7108 -0.7599
  639TIP3   OH223407   6.397   5.399  15.385  0.4684 -0.3015  0.4940
  639TIP3    H123408   6.451   5.434  15.314  1.2782 -1.3958  0.5395
  639TIP3    H223409   6.309   5.394  15.349  0.2597  1.9724  0.5702
  640TIP3   OH223410   2.523   0.885  15.712 -0.3388  0.2309  0.5013
  640TIP3    H123411   2.564   0.921  15.790  1.8101 -0.6958 -0.1399
  640TIP3    H223412   2.538   0.951  15.644  2.0321 -0.9648 -0.2353
  641TIP3   OH223413   3.191   0.717   2.585  0.0792  0.0071  0.4755
  641TIP3    H123414   3.240   0.758   2.513 -0.8213  1.8292  0.8551
  641TIP3    H223415   3.257   0.666   2.631  1.1430  0.5515 -0.3737
  642TIP3   OH223416   6.325   6.349  16.912  0.1663  0.2273  0.4248
  642TIP3    H123417   6.234   6.379  16.918 -0.2588 -1.0714  0.8164
  642TIP3    H223418   6.323   6.259  16.945  1.4300 -0.1471 -0.4338
  643TIP3   OH223419   0.691   5.816   4.423  0.2004 -0.2431 -0.6466
  643TIP3    H123420   0.736   5.851   4.501  0.8460 -0.5279 -0.8817
  643TIP3    H223421   0.635   5.746   4.456  0.9364 -0.7753 -0.5065
  644TIP3   OH223422   0.387   3.909  15.860  0.8246  0.4335  0.3634
  644TIP3    H123423   0.464   3.855  15.876  0.7772  0.3593  0.3446
  644TIP3    H223424   0.328   3.888  15.933  0.6540  0.1788  0.1534
  645TIP3   OH223425   1.559   2.709   0.570  0.4103 -0.1047 -0.7914
  645TIP3    H123426   1.645   2.669   0.557 -0.5232 -2.9455  1.0140
  645TIP3    H223427   1.501   2.662   0.511 -0.1567  1.0145 -1.1639
  646TIP3   OH223428   5.123   3.154  12.660 -0.0139  0.0249  0.2985
  646TIP3    H123429   5.097   3.244  12.681  0.7299  0.3828 -0.2495
  646TIP3    H223430   5.139   3.156  12.565  2.3815 -0.0518  0.6504
  647TIP3   OH223431   4.475   5.803   3.439  0.2811 -0.4984  0.6090
  647TIP3    H123432   4.543   5.751   3.397  0.4008 -0.5344  0.8506
  647TIP3    H223433   4.505   5.894   3.430 -0.8655 -0.2506 -1.6082
  648TIP3   OH223434   0.991   3.026  13.503 -0.1844 -0.0636  0.0454
  648TIP3    H123435   1.032   3.102  13.462 -0.8365  0.1743 -0.1750
  648TIP3    H223436   0.916   3.061  13.549 -0.0125 -0.4667  0.6464
  649TIP3   OH223437   2.957   2.762  15.043  0.5196 -0.1009  0.4718
  649TIP3    H123438   2.965   2.788  15.135  1.7267  0.3064  0.2754
  649TIP3    H223439   2.868   2.785  15.019  1.0423  2.5669  0.7333
  650TIP3   OH223440   3.668   0.175  12.868  0.0625  0.4758  0.3944
  650TIP3    H123441   3.592   0.130  12.831  0.2827 -1.5028  2.1325
  650TIP3    H223442   3.633   0.255  12.907 -0.8157  0.4634 -0.3496
  651TIP3   OH223443   2.720   5.097  11.609  0.1793  0.0466  0.1709
  651TIP3    H123444   2.769   5.170  11.571  0.0011  0.2010  0.2344
  651TIP3    H223445   2.633   5.103  11.569 -0.0280  0.2443  0.6291
  652TIP3   OH223446   4.717   1.952  16.823 -0.5305 -0.1055  0.2033
  652TIP3    H123447   4.784   1.896  16.860  0.6001  0.0383 -1.4953
  652TIP3    H223448   4.640   1.939  16.878  0.4911 -1.3077  1.3793
  653TIP3   OH223449   5.510   0.667  16.431  0.4750  0.2328 -0.6388
  653TIP3    H123450   5.451   0.611  16.482 -1.3874  1.0915 -1.7461
  653TIP3    H223451   5.542   0.732  16.494  0.7842 -0.6254  0.1189
  654TIP3   OH223452   1.677   1.653  17.154 -0.2205 -0.1406  0.1245
  654TIP3    H123453   1.674   1.652  17.058  1.7338  1.0992 -0.0167
  654TIP3    H223454   1.750   1.712  17.175  0.3140 -1.4729  2.3573
  655TIP3   OH223455   6.016   5.011  13.456 -0.0853 -0.4108  0.5662
  655TIP3    H123456   5.969   5.078  13.505  1.2791  0.3544  0.8702
  655TIP3    H223457   6.060   4.959  13.523  0.1413 -0.6309  0.2502
  656TIP3   OH223458   5.579   3.941   0.296 -0.1518  0.0624 -0.1058
  656TIP3    H123459   5.541   3.884   0.362 -2.1163  1.9510  0.5221
  656TIP3    H223460   5.637   3.885   0.245  1.6199 -1.4667  3.2925
  657TIP3   OH223461   5.488   3.093   4.595  0.2849 -0.4780 -0.6337
  657TIP3    H123462   5.513   3.135   4.677 -0.5294 -1.0020 -0.1095
  657TIP3    H223463   5.570   3.059   4.559  0.7654  0.4378 -0.4410
  658TIP3   OH223464   1.068   4.058  15.751 -0.0980  0.0009 -0.0613
  658TIP3    H123465   1.156   4.087  15.726 -0.1959  0.4037  0.0544
  658TIP3    H223466   1.023   4.138  15.777  0.3704 -0.4788  2.5453
  659TIP3   OH223467   3.739   4.583   3.290 -0.2369 -0.1368  0.2076
  659TIP3    H123468   3.714   4.495   3.265  0.8555 -0.3288 -0.2824
  659TIP3    H223469   3.691   4.640   3.231  0.9977 -0.5228 -1.2465
  660TIP3   OH223470   0.793   3.405   4.131 -0.3998  0.0661 -0.0645
  660TIP3    H123471   0.719   3.460   4.159  0.8240  0.3733  2.9741
  660TIP3    H223472   0.753   3.319   4.115 -1.6018  0.5582  0.1484
  661TIP3   OH223473   4.526   2.622   5.936  0.1336  0.3932  0.2745
  661TIP3    H123474   4.509   2.714   5.916 -0.0588  0.1078 -0.9149
  661TIP3    H223475   4.439   2.583   5.943  0.2132 -0.0129 -0.7891
  662TIP3   OH223476   4.997   4.757   3.741  0.2117 -0.3920  0.0497
  662TIP3    H123477   5.011   4.842   3.701  0.0106 -0.7926 -0.9013
  662TIP3    H223478   5.051   4.759   3.821 -0.4495  0.9111  0.4881
  663TIP3   OH223479   6.753   6.091  12.157 -0.1180 -0.0376  0.3211
  663TIP3    H123480   6.769   6.018  12.217  1.1170  0.4584  0.6152
  663TIP3    H223481   6.657   6.099  12.155 -0.2423 -1.1465  0.8907
  664TIP3   OH223482   5.483   5.313  12.445 -0.3514  0.2299 -0.4651
  664TIP3    H123483   5.468   5.236  12.391 -0.8155 -0.0816  0.0875
  664TIP3    H223484   5.496   5.385  12.382 -0.6278 -0.1679 -0.9848
  665TIP3   OH223485   1.383   5.007  13.279  0.1087 -0.6678  0.0785
  665TIP3    H123486   1.383   4.946  13.353  0.6792 -1.0101 -0.1920
  665TIP3    H223487   1.314   4.974  13.221  0.5421 -1.1873 -0.1593
  666TIP3   OH223488   0.686   4.193  12.467  0.5706 -0.2960 -0.0670
  666TIP3    H123489   0.649   4.229  12.387 -0.3069 -0.4408  0.2649
  666TIP3    H223490   0.757   4.253  12.490 -1.2464  1.6417  0.8303
  667TIP3   OH223491   6.465   5.738  14.929  0.2305  0.3254  0.3020
  667TIP3    H123492   6.455   5.757  14.835 -1.5092  1.2529  0.6462
  667TIP3    H223493   6.529   5.667  14.931 -0.2598 -0.2491 -1.6396
  668TIP3   OH223494   2.771   6.522   6.297 -0.3770  0.2738  0.3055
  668TIP3    H123495   2.694   6.468   6.314 -0.8189  0.5205 -0.8360
  668TIP3    H223496   2.736   6.610   6.283  0.0785  0.3521 -0.4057
  669TIP3   OH223497   5.829   3.286   3.760  1.0143  0.2752  0.3097
  669TIP3    H123498   5.822   3.352   3.691 -0.5207  2.0149  2.0062
  669TIP3    H223499   5.866   3.333   3.835  1.6229 -1.2853  1.0398
  670TIP3   OH223500   3.214   1.163  15.811  0.7481 -0.4469 -0.2839
  670TIP3    H123501   3.261   1.081  15.827  1.6577  0.0806 -0.1955
  670TIP3    H223502   3.146   1.139  15.748 -1.1254 -1.9763  2.1358
  671TIP3   OH223503   2.958   4.380  12.265 -0.3951 -0.2940  0.2714
  671TIP3    H123504   2.905   4.306  12.234 -0.6299 -0.4016  0.9222
  671TIP3    H223505   2.959   4.371  12.360 -1.5367  1.2795  0.4736
  672TIP3   OH223506   2.295   5.557  13.041 -0.0040  0.0687 -1.0060
  672TIP3    H123507   2.239   5.616  12.990 -0.3961  0.7440  0.1594
  672TIP3    H223508   2.346   5.615  13.097  1.0667 -0.6083 -1.2532
  673TIP3   OH223509   1.526   6.583   1.786  0.1441  0.5547  0.0086
  673TIP3    H123510   1.436   6.614   1.775 -0.5104 -1.6075 -1.3214
  673TIP3    H223511   1.564   6.641   1.852 -1.9441  2.0487 -0.0159
  674TIP3   OH223512   2.523   1.753  14.900  0.2795  0.5536 -0.3926
  674TIP3    H123513   2.549   1.845  14.905 -0.5629  0.8651 -1.4803
  674TIP3    H223514   2.501   1.739  14.808 -2.3144  0.0277  0.2290
  675TIP3   OH223515   4.655   2.878   5.971 -0.6603 -0.6296 -0.5260
  675TIP3    H123516   4.560   2.868   5.962 -0.6073 -1.5410 -0.1016
  675TIP3    H223517   4.669   2.893   6.064 -0.2528 -2.1515 -0.3252
  676TIP3   OH223518   3.890   5.938  11.290  0.1078  0.1796  0.0140
  676TIP3    H123519   3.983   5.940  11.270  0.0609  4.4634 -0.7531
  676TIP3    H223520   3.886   5.938  11.385  0.8817 -0.0336  0.0542
  677TIP3   OH223521   4.924   0.443   3.947  0.0454 -0.4123 -0.4070
  677TIP3    H123522   4.841   0.407   3.977 -0.8574  1.3051 -0.7282
  677TIP3    H223523   4.918   0.442   3.851  0.4142 -0.3146 -0.4337
  678TIP3   OH223524   6.139   3.920  13.009  0.0799  0.6855  0.2070
  678TIP3    H123525   6.228   3.892  12.989  0.1808 -0.3384  1.9191
  678TIP3    H223526   6.083   3.860  12.961  0.3147 -1.6450  2.6227
  679TIP3   OH223527   5.596   4.591   1.172 -1.1080 -0.4673  0.4674
  679TIP3    H123528   5.663   4.525   1.152 -1.4443 -0.7718  0.3546
  679TIP3    H223529   5.526   4.543   1.215 -1.6660 -0.3041 -0.2439
  680TIP3   OH223530   4.882   3.614   1.759 -0.3186 -0.8537  0.2807
  680TIP3    H123531   4.974   3.639   1.748 -0.4984  0.5407  1.5758
  680TIP3    H223532   4.877   3.525   1.725  1.1780 -0.4184 -1.2071
  681TIP3   OH223533   6.167   1.211  14.089  0.1128  0.1393 -0.4176
  681TIP3    H123534   6.228   1.240  14.157  1.6229 -1.1530 -1.1575
  681TIP3    H223535   6.205   1.129  14.056 -1.4411 -0.1111 -1.6998
  682TIP3   OH223536   2.239   3.398  11.654  0.0896 -0.4429 -0.3906
  682TIP3    H123537   2.237   3.418  11.561  0.4949  0.9265 -0.1254
  682TIP3    H223538   2.212   3.479  11.697  3.6776  0.3135  0.8272
  683TIP3   OH223539   2.200   6.443   0.159  0.2537 -1.0031 -0.6085
  683TIP3    H123540   2.174   6.473   0.246 -0.0532 -0.7606 -0.7858
  683TIP3    H223541   2.265   6.375   0.176 -0.3685 -1.4966 -0.1739
  684TIP3   OH223542   5.269   0.437   1.682  0.3877  0.4006 -0.2512
  684TIP3    H123543   5.344   0.414   1.738 -0.1882 -1.3134 -0.1217
  684TIP3    H223544   5.299   0.416   1.594  0.1680  0.0001 -0.2311
  685TIP3   OH223545   1.662   1.550   0.377  0.0690 -0.1700 -0.3186
  685TIP3    H123546   1.707   1.484   0.324 -0.2261 -1.3214  0.8100
  685TIP3    H223547   1.625   1.611   0.313  0.3618 -1.0893 -1.4015
  686TIP3   OH223548   1.073   5.463   5.204 -0.1281  0.3017 -0.1652
  686TIP3    H123549   1.070   5.500   5.116 -0.4640  0.8882  0.0876
  686TIP3    H223550   1.092   5.538   5.261 -0.6929  0.0641  0.3448
  687TIP3   OH223551   2.091   3.749   4.283  0.1331  0.1397 -1.1947
  687TIP3    H123552   2.030   3.803   4.332  1.4419  1.5131 -1.0269
  687TIP3    H223553   2.112   3.676   4.342 -1.7605 -0.7230 -1.4870
  688TIP3   OH223554   4.842   1.670  13.711  0.4383  0.3173  0.0220
  688TIP3    H123555   4.887   1.586  13.706  0.1011  0.1257  0.1413
  688TIP3    H223556   4.866   1.715  13.630  1.7985  0.7115  0.6148
  689TIP3   OH223557   0.714   3.949  15.800 -0.1788  0.0787  0.0048
  689TIP3    H123558   0.672   3.951  15.886  2.3135 -0.1702  1.3332
  689TIP3    H223559   0.807   3.966  15.819  1.0857 -3.3447 -2.1914
  690TIP3   OH223560   0.330   3.256   5.323 -0.4537  0.3629  0.0643
  690TIP3    H123561   0.339   3.324   5.390  0.6793 -0.1133  0.4253
  690TIP3    H223562   0.390   3.186   5.351 -0.8326 -0.3467 -0.8313
  691TIP3   OH223563   2.211   5.200  16.450 -0.0310  0.1558  0.3368
  691TIP3    H123564   2.138   5.159  16.404  0.1837 -1.0291  0.9780
  691TIP3    H223565   2.170   5.257  16.515 -0.3563  0.5472 -0.2091
  692TIP3   OH223566   3.431   1.030  16.833 -0.4192 -0.4363 -0.1361
  692TIP3    H123567   3.359   1.038  16.896  0.0433 -0.6223  0.4190
  692TIP3    H223568   3.488   0.963  16.870  1.8748  2.0950  1.2336
  693TIP3   OH223569   0.533   4.463   4.203 -0.1111 -1.2684  0.0184
  693TIP3    H123570   0.501   4.535   4.149  1.4442 -0.4710  0.0829
  693TIP3    H223571   0.532   4.498   4.292  2.4333 -0.5408 -0.1426
  694TIP3   OH223572   0.924   6.804  14.727 -0.3759 -0.4814 -0.0667
  694TIP3    H123573   0.965   6.890  14.730 -0.6481 -0.3795  1.1975
  694TIP3    H223574   0.941   6.773  14.638 -0.8440  1.1494 -0.7745
  695TIP3   OH223575   6.364   3.281   5.379 -0.3186  0.2027 -0.2343
  695TIP3    H123576   6.418   3.320   5.311 -0.9306 -0.0748 -0.8961
  695TIP3    H223577   6.332   3.355   5.431 -2.0501  0.7025 -1.8988
  696TIP3   OH223578   1.609   2.512  13.701 -0.0120  0.5836 -0.1967
  696TIP3    H123579   1.655   2.431  13.725 -0.5082  0.8542  1.9021
  696TIP3    H223580   1.524   2.504  13.743 -0.8038  1.3863 -1.5690
  697TIP3   OH223581   1.252   1.162   2.259 -0.6775  0.0621  0.0937
  697TIP3    H123582   1.168   1.193   2.225 -1.0593  0.1914  1.1156
  697TIP3    H223583   1.234   1.071   2.286 -0.1540 -0.3297 -0.8170
  698TIP3   OH223584   1.602   4.466  13.236 -0.2957  0.3835  1.0411
  698TIP3    H123585   1.671   4.477  13.171 -1.7361 -1.4287 -0.9292
  698TIP3    H223586   1.594   4.371  13.247 -2.1180  0.5505  1.5674
  699TIP3   OH223587   4.821   5.198   6.353 -0.0438 -0.0515 -0.3383
  699TIP3    H123588   4.878   5.141   6.302  1.8320  1.6881 -0.3312
  699TIP3    H223589   4.748   5.142   6.379  1.8194 -2.5147 -0.0504
  700TIP3   OH223590   3.503   5.992  12.555 -0.7498 -0.5703 -0.1457
  700TIP3    H123591   3.582   6.041  12.576 -0.8249 -0.2529 -0.5943
  700TIP3    H223592   3.526   5.901  12.574 -0.7798 -0.3239  1.1712
  701TIP3   OH223593   0.495   4.070  11.585  1.0725  0.5402 -0.0275
  701TIP3    H123594   0.417   4.066  11.641  1.1301  3.3781  0.3812
  701TIP3    H223595   0.467   4.030  11.503  0.2520 -1.4969  1.1644
  702TIP3   OH223596   2.555   5.935  16.613 -0.1933 -0.1328 -0.7495
  702TIP3    H123597   2.584   5.932  16.704 -1.3338  0.1742 -0.3644
  702TIP3    H223598   2.589   6.019  16.580  0.5266 -0.4072 -0.7282
  703TIP3   OH223599   6.037   1.647  12.796  0.3768  0.0536 -0.3119
  703TIP3    H123600   6.002   1.665  12.883  0.9394  0.7089 -0.2101
  703TIP3    H223601   6.003   1.718  12.742  0.7922  0.1765 -0.4149
  704TIP3   OH223602   1.480   6.209   5.280  0.5066  0.5436  0.4761
  704TIP3    H123603   1.432   6.150   5.221  0.7765  0.1446  0.6516
  704TIP3    H223604   1.453   6.297   5.252  0.1376  0.3438  0.1776
  705TIP3   OH223605   2.907   5.163  15.887  0.1868  0.1264 -0.0249
  705TIP3    H123606   2.959   5.158  15.807  0.7457 -0.6640  0.3673
  705TIP3    H223607   2.854   5.242  15.877  0.5672  0.2720 -0.9770
  706TIP3   OH223608   1.245   0.986  11.077 -0.1200 -0.2333  0.2740
  706TIP3    H123609   1.259   1.081  11.080 -2.8240  0.2222  2.2844
  706TIP3    H223610   1.211   0.969  10.989  0.0462  0.7037  0.0185
  707TIP3   OH223611   1.455   0.780   5.547  0.1267 -0.2731  0.0135
  707TIP3    H123612   1.496   0.702   5.508 -0.5300 -0.1613 -0.9177
  707TIP3    H223613   1.392   0.744   5.610  0.5873 -0.4691  0.3702
  708TIP3   OH223614   2.337   5.408   5.088 -0.0370 -0.0610 -0.3552
  708TIP3    H123615   2.424   5.429   5.124 -0.2838 -0.1895  0.3381
  708TIP3    H223616   2.353   5.333   5.031  0.0704 -1.1915  1.0782
  709TIP3   OH223617   3.902   1.908  13.312 -0.2062 -0.2489 -0.2947
  709TIP3    H123618   3.872   1.819  13.332  2.3981 -1.0850  0.2884
  709TIP3    H223619   3.926   1.904  13.219  2.2665 -0.9843  0.3002
  710TIP3   OH223620   6.676   5.965   4.377  0.0081  0.4896 -0.3268
  710TIP3    H123621   6.628   6.041   4.343 -0.0900  0.4193 -0.3480
  710TIP3    H223622   6.610   5.896   4.381  0.3489  0.0854 -1.3520
  711TIP3   OH223623   1.540   1.213  15.804 -0.0505  0.3033 -0.1479
  711TIP3    H123624   1.445   1.221  15.810 -0.2492 -2.1124  1.8479
  711TIP3    H223625   1.568   1.194  15.893  1.8845 -2.2254 -1.1579
  712TIP3   OH223626   2.026   6.050  13.282 -0.2958 -0.0500 -0.1663
  712TIP3    H123627   1.935   6.045  13.253 -0.2506 -0.1959 -0.2841
  712TIP3    H223628   2.032   5.984  13.352 -1.2490  2.4765  2.4754
  713TIP3   OH223629   6.344   4.389  14.943 -0.3629 -0.1746 -0.4044
  713TIP3    H123630   6.383   4.475  14.959  0.6792 -0.2745 -2.2014
  713TIP3    H223631   6.296   4.398  14.861 -0.3443 -1.2790 -0.5607
  714TIP3   OH223632   0.019   0.547  11.706 -0.5500 -0.1350 -0.0499
  714TIP3    H123633  -0.016   0.496  11.778 -1.2863 -0.7422 -0.8153
  714TIP3    H223634   0.098   0.500  11.680 -0.1590  0.2118  0.4989
  715TIP3   OH223635   5.352   4.028   3.416  0.5402 -0.1300  0.1646
  715TIP3    H123636   5.277   4.037   3.357  0.5176  0.1121  0.2256
  715TIP3    H223637   5.367   3.934   3.422 -1.0635 -0.3370  1.7703
  716TIP3   OH223638   5.645   1.192   4.660  0.5451  0.5684  0.1491
  716TIP3    H123639   5.601   1.267   4.620 -0.6317  0.0946  0.5023
  716TIP3    H223640   5.736   1.220   4.671  0.4440  1.4145 -1.0338
  717TIP3   OH223641   3.298   5.608  11.773 -0.1253  0.6177 -0.2744
  717TIP3    H123642   3.259   5.537  11.723  1.9715 -0.2604 -0.7995
  717TIP3    H223643   3.357   5.564  11.835  1.7803  1.8519 -1.0895
  718TIP3   OH223644   2.509   2.088  12.257 -0.4689 -0.3190 -0.0741
  718TIP3    H123645   2.460   2.028  12.201 -1.1610 -0.4128  0.6201
  718TIP3    H223646   2.601   2.072  12.236 -0.7170 -0.4409 -1.0851
  719TIP3   OH223647   4.234   1.389   6.109 -0.0501 -0.1517 -0.0805
  719TIP3    H123648   4.161   1.376   6.169 -0.7171  3.1260  0.0094
  719TIP3    H223649   4.308   1.344   6.151 -1.3444 -1.0872  1.2961
  720TIP3   OH223650   2.354   2.050  10.720  0.1159  0.2198 -0.0435
  720TIP3    H123651   2.353   1.957  10.698  0.6184  0.4844 -1.2301
  720TIP3    H223652   2.262   2.072  10.739 -0.0407 -0.4449 -0.0270
  721TIP3   OH223653   4.575   4.212   1.936 -0.8840  0.4503 -0.1577
  721TIP3    H123654   4.623   4.292   1.958  0.4968 -0.3565 -0.1039
  721TIP3    H223655   4.608   4.187   1.850  0.3048 -1.1792  0.7041
  722TIP3   OH223656   1.994   3.565   2.139 -0.2748 -0.7926 -0.0005
  722TIP3    H123657   1.918   3.606   2.096  0.7150  1.3345  0.1547
  722TIP3    H223658   2.057   3.636   2.149  2.1345 -2.6528 -0.9111
  723TIP3   OH223659   2.127   6.043   4.632 -0.4448 -0.1229  0.2783
  723TIP3    H123660   2.100   5.955   4.607 -0.8515 -0.0982  0.6293
  723TIP3    H223661   2.046   6.092   4.641 -0.1659  0.7432 -1.5236
  724TIP3   OH223662   1.638   6.483  16.319  0.0475  0.0106  0.7528
  724TIP3    H123663   1.640   6.438  16.403 -0.8955 -0.0792  0.7421
  724TIP3    H223664   1.699   6.434  16.264 -0.8891 -1.2383  0.7702
  725TIP3   OH223665   1.836   1.888  12.098 -0.0127  0.5589 -0.0022
  725TIP3    H123666   1.799   1.972  12.070  2.5943  2.1846  1.0434
  725TIP3    H223667   1.852   1.840  12.017 -0.8545  1.3618 -0.6694
  726TIP3   OH223668   4.494   2.592  16.780 -0.4583 -0.5631  0.1815
  726TIP3    H123669   4.502   2.683  16.811 -0.7580  0.1420 -1.7121
  726TIP3    H223670   4.528   2.540  16.853 -1.7849  0.9473  1.9900
  727TIP3   OH223671   6.465   6.569  16.761 -0.8785  0.2074 -0.2705
  727TIP3    H123672   6.531   6.515  16.719 -1.1477  0.5066 -1.1014
  727TIP3    H223673   6.433   6.516  16.834 -1.2363 -0.8254 -1.1491
  728TIP3   OH223674   2.401   5.931   1.322  0.2769 -0.6789 -0.3384
  728TIP3    H123675   2.328   5.975   1.365 -0.1673 -1.3504 -0.3750
  728TIP3    H223676   2.459   5.906   1.394  0.0786 -0.8280 -0.2260
  729TIP3   OH223677   5.577   5.692   3.300  0.4297 -0.4709  0.6738
  729TIP3    H123678   5.636   5.730   3.365  0.0898 -1.3167  1.4982
  729TIP3    H223679   5.556   5.605   3.335 -3.2609  0.6868  1.6676
  730TIP3   OH223680   0.814   6.482   1.982 -1.2665  0.1305 -0.1646
  730TIP3    H123681   0.850   6.477   1.894  0.8809 -1.7218  0.7235
  730TIP3    H223682   0.854   6.409   2.029 -2.2255  1.1170  2.3942
  731TIP3   OH223683   0.761   3.894   1.725  0.1261 -0.4224  0.0343
  731TIP3    H123684   0.706   3.883   1.802  1.5541  0.0587  1.1613
  731TIP3    H223685   0.758   3.987   1.706  0.5190 -0.3953  0.0886
  732TIP3   OH223686   6.215   1.946  14.914 -0.0478  0.2714 -0.1112
  732TIP3    H123687   6.200   1.921  14.823  2.7328  0.9504 -0.8304
  732TIP3    H223688   6.240   1.864  14.957  3.1592  0.6134 -1.0997
  733TIP3   OH223689   6.682   2.242   5.166  0.4531 -0.6455  0.0070
  733TIP3    H123690   6.661   2.249   5.073 -2.0403 -0.9806  0.4708
  733TIP3    H223691   6.683   2.148   5.183  2.6324 -0.6587  0.0157
  734TIP3   OH223692   5.990   3.751   0.917  0.4015  0.3388 -0.5531
  734TIP3    H123693   5.976   3.659   0.937  1.4267  0.4081  0.5717
  734TIP3    H223694   5.948   3.798   0.989 -0.9621  0.8107 -1.6124
  735TIP3   OH223695   1.097   2.520   2.490  0.2968  0.3552  0.7338
  735TIP3    H123696   1.178   2.547   2.533  1.1827 -0.1270 -0.5761
  735TIP3    H223697   1.062   2.450   2.545  1.5219 -0.3967  0.5788
  736TIP3   OH223698   4.864   6.098   2.484 -0.2776  0.8408  0.2358
  736TIP3    H123699   4.920   6.114   2.560  0.8137 -2.1950  0.2382
  736TIP3    H223700   4.775   6.098   2.519  0.0209  1.6434  1.0516
  737TIP3   OH223701   6.100   3.819   6.049  0.0952 -0.6354 -0.1854
  737TIP3    H123702   6.186   3.798   6.083  0.0772 -0.9238 -0.3147
  737TIP3    H223703   6.045   3.744   6.071 -0.4560  0.1039  1.0514
  738TIP3   OH223704   6.797   0.808  12.143 -0.1023 -0.6941  0.3391
  738TIP3    H123705   6.725   0.860  12.178  0.3190  0.4437 -0.4123
  738TIP3    H223706   6.790   0.818  12.048  0.5230 -1.2749  0.2251
  739TIP3   OH223707   6.147   6.729   5.714 -0.3793  0.3967  0.9272
  739TIP3    H123708   6.105   6.799   5.664 -0.5369  0.3548  1.0034
  739TIP3    H223709   6.237   6.728   5.682 -0.4468  0.4582  0.7380
  740TIP3   OH223710   0.160   1.378  17.251  0.4373 -0.0109 -0.0209
  740TIP3    H123711   0.088   1.390  17.312  0.1320  1.0908 -0.5766
  740TIP3    H223712   0.179   1.466  17.218  0.1071 -0.6561 -2.0485
  741TIP3   OH223713   5.874   1.813  11.812  0.3741  0.0040 -0.3442
  741TIP3    H123714   5.819   1.828  11.735  1.0668 -1.0172 -1.0561
  741TIP3    H223715   5.928   1.891  11.819 -0.8865  0.8674  0.1536
  742TIP3   OH223716   3.354   4.595   3.652 -0.0029 -0.4330  0.1621
  742TIP3    H123717   3.361   4.510   3.695  2.9486 -0.3902 -0.0350
  742TIP3    H223718   3.275   4.634   3.689 -0.7364 -2.7035  1.2053
  743TIP3   OH223719   2.342   1.172  15.911 -0.0237 -0.1852 -0.3753
  743TIP3    H123720   2.272   1.237  15.919 -0.6034 -0.8592  0.2212
  743TIP3    H223721   2.342   1.150  15.818 -0.2075  0.2507 -0.4840
  744TIP3   OH223722   4.045   6.163   1.643  0.1745 -0.2935  0.7384
  744TIP3    H123723   3.983   6.097   1.613 -0.9440  0.2939  1.6607
  744TIP3    H223724   4.009   6.246   1.612  0.0690  0.1271  1.9150
  745TIP3   OH223725   3.763   1.535   3.194 -0.7382  0.1896 -0.1468
  745TIP3    H123726   3.681   1.548   3.240  0.0028  1.2405  0.9327
  745TIP3    H223727   3.739   1.533   3.101 -1.7329  3.0170 -0.0251
  746TIP3   OH223728   4.200   6.726  14.396  0.7716 -0.0868 -0.4240
  746TIP3    H123729   4.293   6.746  14.412  0.5141  0.8556  0.0014
  746TIP3    H223730   4.168   6.693  14.480  0.2818  1.4098  0.0061
  747TIP3   OH223731   0.754   5.401  17.075  0.3926  0.1496 -0.2793
  747TIP3    H123732   0.784   5.394  17.166  0.6120  2.5672 -0.1012
  747TIP3    H223733   0.826   5.446  17.030 -1.0361  1.9311 -0.8788
  748TIP3   OH223734   6.358   2.390   6.342 -0.1075  0.3445  0.5712
  748TIP3    H123735   6.265   2.397   6.324 -0.5205 -2.8722  0.9143
  748TIP3    H223736   6.395   2.473   6.312 -2.8542  1.1532 -0.8433
  749TIP3   OH223737   6.690   1.151  14.469  0.6354 -0.9565  0.3874
  749TIP3    H123738   6.717   1.112  14.551  2.2045 -2.7230 -0.8837
  749TIP3    H223739   6.750   1.114  14.404  0.8795  2.0077 -1.2552
  750TIP3   OH223740   3.408   6.723   4.719  0.3144  0.0646 -0.1907
  750TIP3    H123741   3.414   6.778   4.641  2.2853 -1.4727 -1.2142
  750TIP3    H223742   3.497   6.720   4.754 -0.2572 -0.4214  1.3396
  751TIP3   OH223743   1.856   2.233  17.019 -0.4512 -0.3211  0.8169
  751TIP3    H123744   1.773   2.248  16.974 -1.0164 -0.0055  1.9243
  751TIP3    H223745   1.893   2.156  16.976 -0.7492  0.2316 -0.4694
  752TIP3   OH223746   1.514   4.314  10.690  0.1882 -0.0909 -0.4307
  752TIP3    H123747   1.504   4.371  10.766  1.3331  0.1788 -0.4611
  752TIP3    H223748   1.600   4.273  10.702 -0.3532 -1.3480 -0.7193
  753TIP3   OH223749   0.832   1.820   0.786  0.4184 -0.5120  0.0736
  753TIP3    H123750   0.788   1.751   0.736 -0.3411  0.2855 -0.3733
  753TIP3    H223751   0.923   1.816   0.758  0.2917 -1.0398 -0.2784
  754TIP3   OH223752   2.954   2.351  10.860  0.0114  0.0475  0.1524
  754TIP3    H123753   2.972   2.341  10.767 -0.3519  1.2572 -0.0749
  754TIP3    H223754   3.039   2.342  10.903  0.4725  1.2154 -0.4723
  755TIP3   OH223755   1.489   5.507  17.168 -0.1861 -0.1289  0.2158
  755TIP3    H123756   1.555   5.463  17.114 -0.0474  1.1955 -0.7473
  755TIP3    H223757   1.441   5.562  17.107 -1.0117  0.2999  1.2174
  756TIP3   OH223758   6.065   3.896   5.316 -0.5402  0.0465  0.1962
  756TIP3    H123759   6.043   3.989   5.306 -1.0909  0.0289  1.1344
  756TIP3    H223760   5.987   3.850   5.285 -0.3360 -0.1091 -0.0952
  757TIP3   OH223761   0.511   0.409  11.849  0.2619  0.0478  0.8819
  757TIP3    H123762   0.589   0.365  11.816 -1.2841 -0.5457 -2.3426
  757TIP3    H223763   0.534   0.502  11.845  0.8622 -0.1193  0.1228
  758TIP3   OH223764   0.620   5.389  15.516  0.0795 -0.1653 -0.1970
  758TIP3    H123765   0.572   5.401  15.434  1.3246 -1.0450 -1.0927
  758TIP3    H223766   0.617   5.475  15.558 -0.1103  0.4715 -1.4375
  759TIP3   OH223767   0.136   6.407  16.325 -0.3354  0.4188  0.3983
  759TIP3    H123768   0.105   6.464  16.395 -2.6524  0.2197 -0.3812
  759TIP3    H223769   0.127   6.318  16.360 -0.2182  0.3761  0.3209
  760TIP3   OH223770   4.613   3.232   5.593  0.4957 -0.3024  0.6209
  760TIP3    H123771   4.583   3.187   5.514 -0.6057  0.3342  0.6610
  760TIP3    H223772   4.709   3.222   5.591  0.2967 -3.5262  1.1543
  761TIP3   OH223773   2.206   0.102  11.124  0.4887 -0.3343 -0.8422
  761TIP3    H123774   2.277   0.157  11.091 -1.0351  2.4353  0.2039
  761TIP3    H223775   2.133   0.119  11.065  0.2039 -1.9765 -1.0094
  762TIP3   OH223776   6.767   6.011   3.573  0.3539  0.4016  0.0028
  762TIP3    H123777   6.809   5.969   3.648  0.2322 -1.0314 -0.7046
  762TIP3    H223778   6.673   5.999   3.588  0.2628  1.3444  0.2935
  763TIP3   OH223779   1.258   3.608  11.406 -0.1724 -0.1929 -0.0711
  763TIP3    H123780   1.336   3.645  11.364 -1.9250  1.4997 -2.0507
  763TIP3    H223781   1.242   3.527  11.359  0.0981 -0.2847 -0.0093
  764TIP3   OH223782   4.847   1.856  10.973 -0.3518 -0.3662 -0.0956
  764TIP3    H123783   4.842   1.949  10.993  0.1220 -0.1400 -0.9641
  764TIP3    H223784   4.941   1.835  10.980 -0.4052 -0.6861 -0.2988
  765TIP3   OH223785   3.333   1.677  10.628 -0.5227 -0.0365 -0.2100
  765TIP3    H123786   3.407   1.717  10.582  0.3320 -0.4475  0.7611
  765TIP3    H223787   3.262   1.740  10.619  0.2523  0.8574 -0.2582
  766TIP3   OH223788   1.324   3.462  12.412 -0.3745 -0.1638 -0.2494
  766TIP3    H123789   1.301   3.532  12.351 -0.4966  0.5948  0.6499
  766TIP3    H223790   1.246   3.405  12.414 -0.1059 -0.5803 -1.3192
  767TIP3   OH223791   5.698   4.682  14.878 -0.0960 -0.1453 -0.4884
  767TIP3    H123792   5.710   4.763  14.928 -1.1489 -0.7587  0.8274
  767TIP3    H223793   5.655   4.711  14.797  1.4842  0.8438 -1.0326
  768TIP3   OH223794   0.966   5.808   3.156  0.0798  0.0449  0.2037
  768TIP3    H123795   0.921   5.884   3.193  0.1631  0.3023 -0.2136
  768TIP3    H223796   0.959   5.740   3.224 -0.3902  0.2797  0.3971
  769TIP3   OH223797   6.139   0.541   5.660  0.4532 -0.0745  0.4744
  769TIP3    H123798   6.045   0.554   5.644  0.2287 -1.0529  0.8828
  769TIP3    H223799   6.147   0.447   5.677  1.6935 -0.2263 -0.7803
  770TIP3   OH223800   4.544   0.311   3.218  0.0787  0.3799 -0.1200
  770TIP3    H123801   4.605   0.267   3.160  0.5610 -0.4420  0.9620
  770TIP3    H223802   4.483   0.242   3.245 -0.7876  0.9866 -0.4755
  771TIP3   OH223803   5.217   2.276   1.723 -0.2786 -0.5420 -0.1797
  771TIP3    H123804   5.239   2.183   1.721 -0.0074 -0.4904  0.2407
  771TIP3    H223805   5.193   2.292   1.814  0.2670 -0.0641 -0.1220
  772TIP3   OH223806   6.092   0.868  16.295 -0.2727 -0.2517 -0.4506
  772TIP3    H123807   6.087   0.789  16.242 -0.3419 -1.0713  0.7348
  772TIP3    H223808   6.001   0.890  16.314 -0.3095  0.7950 -1.7195
  773TIP3   OH223809   4.679   5.138   5.337 -0.0161  0.0076  0.5171
  773TIP3    H123810   4.726   5.055   5.350 -0.0578 -0.3831 -1.4782
  773TIP3    H223811   4.652   5.136   5.245 -2.2430  1.1144  1.0778
  774TIP3   OH223812   1.542   3.911  12.968 -0.4130  1.0035 -0.5159
  774TIP3    H123813   1.465   3.967  12.968 -0.2388  1.2898  0.7916
  774TIP3    H223814   1.598   3.945  12.898 -1.5718  0.6180 -1.6542
  775TIP3   OH223815   0.009   2.075   3.760 -0.0258 -0.1194 -0.5017
  775TIP3    H123816   0.082   2.021   3.729  0.1177 -0.0945 -0.2089
  775TIP3    H223817  -0.058   2.066   3.692 -0.0986 -0.8536 -0.3361
  776TIP3   OH223818   6.006   1.518  16.975  0.0542 -0.3414 -0.0604
  776TIP3    H123819   6.090   1.505  16.931 -0.5503 -0.3170 -1.2695
  776TIP3    H223820   5.944   1.469  16.922 -0.6926 -0.4046  0.8517
  777TIP3   OH223821   3.285   1.167   4.476  0.0518  0.4930 -0.1088
  777TIP3    H123822   3.356   1.158   4.539 -1.3547 -1.9617  1.3230
  777TIP3    H223823   3.208   1.131   4.522 -0.8879 -2.3558 -3.4767
  778TIP3   OH223824   1.830   1.372   6.535  0.2962  0.2291 -0.7255
  778TIP3    H123825   1.863   1.441   6.477  2.4881 -1.9221 -2.2349
  778TIP3    H223826   1.798   1.419   6.612 -0.1941  3.0354 -2.4869
  779TIP3   OH223827   3.472   6.463   3.491  0.2946 -0.3098 -0.3191
  779TIP3    H123828   3.428   6.548   3.490 -0.2519 -0.5893 -0.5997
  779TIP3    H223829   3.522   6.462   3.573  0.7336  0.4956 -0.5733
  780TIP3   OH223830   5.714   4.098  12.849 -0.3088 -0.1792 -0.0388
  780TIP3    H123831   5.808   4.107  12.834  0.2228  0.2073  2.8987
  780TIP3    H223832   5.689   4.178  12.893 -1.8432 -0.6796  0.0526
  781TIP3   OH223833   3.792   4.091   2.628 -0.3229  0.1078 -0.6708
  781TIP3    H123834   3.773   4.175   2.585 -1.6138  1.2305  1.8531
  781TIP3    H223835   3.759   4.102   2.717  0.5620 -2.7041  0.1091
  782TIP3   OH223836   4.471   3.142   2.063  0.3343  0.0322  0.7683
  782TIP3    H123837   4.415   3.118   2.136  1.4784  1.3228  2.1311
  782TIP3    H223838   4.430   3.102   1.987 -2.3268  0.7586  1.7231
  783TIP3   OH223839   6.327   1.731   0.126  0.1890 -0.8836 -0.1373
  783TIP3    H123840   6.265   1.673   0.171 -0.9018  1.3722  1.4581
  783TIP3    H223841   6.271   1.790   0.075  1.3348 -2.0555 -2.9186
  784TIP3   OH223842   3.910   0.253  12.291 -0.2368 -0.3524 -0.7787
  784TIP3    H123843   3.964   0.223  12.218  0.5481  0.2402 -0.4607
  784TIP3    H223844   3.973   0.291  12.353 -0.4372 -3.4460  1.5980
  785TIP3   OH223845   3.137   5.521  10.171 -0.3820  0.2605 -0.3503
  785TIP3    H123846   3.221   5.557  10.143  1.2090 -3.7074 -1.2815
  785TIP3    H223847   3.130   5.546  10.263  1.7922  0.7091 -0.2461
  786TIP3   OH223848   5.096   4.152   4.052 -0.5703  0.0554 -0.0164
  786TIP3    H123849   5.086   4.241   4.020  1.4632 -0.0885 -1.2750
  786TIP3    H223850   5.030   4.101   4.005 -0.7874  0.6766 -0.3915
  787TIP3   OH223851   2.543   0.474  14.073 -0.2299 -0.7398 -0.2514
  787TIP3    H123852   2.487   0.527  14.130  0.6828 -0.6965  0.6383
  787TIP3    H223853   2.601   0.427  14.133  0.0421 -1.5224 -1.1043
  788TIP3   OH223854   0.901   1.579  15.405  0.7129  0.0526 -0.4672
  788TIP3    H123855   0.829   1.592  15.344  2.3853  0.2843 -2.5053
  788TIP3    H223856   0.869   1.616  15.488 -0.8074  1.8899 -1.7811
  789TIP3   OH223857   2.619   6.582  16.880  0.3114 -0.1400  0.2345
  789TIP3    H123858   2.558   6.582  16.806 -0.9909  0.2825  1.2696
  789TIP3    H223859   2.670   6.661  16.868 -1.4401  1.1641  0.9693
  790TIP3   OH223860   1.841   3.606  15.510  0.3560  0.2915 -0.2639
  790TIP3    H123861   1.791   3.551  15.448  2.0170 -1.5814 -0.0480
  790TIP3    H223862   1.785   3.610  15.588  0.3153 -1.4870 -0.1449
  791TIP3   OH223863   1.480   0.060   2.263  0.0900  0.4641 -0.2608
  791TIP3    H123864   1.465   0.130   2.199  0.5672 -1.7877 -3.0412
  791TIP3    H223865   1.576   0.051   2.266  0.0262 -1.5792 -1.8872
  792TIP3   OH223866   5.019   5.819   1.667  0.3014 -0.4558  0.0089
  792TIP3    H123867   4.933   5.788   1.695  0.4020  0.8466  2.0059
  792TIP3    H223868   5.078   5.745   1.684  0.2617  0.0607  3.0260
  793TIP3   OH223869   3.829   6.773   0.587  0.2476  0.2252 -0.5012
  793TIP3    H123870   3.848   6.697   0.533 -0.4653  0.1287 -0.6377
  793TIP3    H223871   3.787   6.738   0.665  1.0434  0.3863  0.0101
  794TIP3   OH223872   5.858   5.099  10.637  0.3570 -0.4726 -1.1194
  794TIP3    H123873   5.774   5.143  10.641  0.6652  0.5679 -3.9385
  794TIP3    H223874   5.837   5.006  10.638 -1.2503 -0.3282 -4.7443
  795TIP3   OH223875   6.070   2.716  12.176 -0.3293  0.3814 -0.3074
  795TIP3    H123876   6.146   2.665  12.203 -0.8015 -1.0078 -1.4851
  795TIP3    H223877   6.052   2.688  12.086 -2.6368  0.1295  0.1547
  796TIP3   OH223878   4.947   2.921   2.108  0.0131  0.2228  0.0618
  796TIP3    H123879   5.012   2.943   2.175 -0.3252 -0.5383  0.6558
  796TIP3    H223880   4.881   2.870   2.154 -1.2342  1.3308 -0.4545
  797TIP3   OH223881   3.999   0.042  12.026 -0.0210 -0.6787 -0.0391
  797TIP3    H123882   3.913   0.021  11.989 -0.5178  0.1329  0.6228
  797TIP3    H223883   4.039   0.100  11.961  0.0230 -1.0535 -0.3479
  798TIP3   OH223884   5.089   6.340  15.190  0.2100 -0.6018  0.1196
  798TIP3    H123885   5.048   6.311  15.108 -0.6207 -0.2579  0.4083
  798TIP3    H223886   5.135   6.263  15.222 -0.8809 -1.2361  0.2038
  799TIP3   OH223887   1.681   4.643   3.050  0.0320 -0.0738  0.0361
  799TIP3    H123888   1.600   4.690   3.032 -0.9122 -1.9878 -1.0324
  799TIP3    H223889   1.687   4.642   3.146 -1.8997 -0.9528  0.1986
  800TIP3   OH223890   5.018   2.619   2.050  0.1518 -0.1158  0.3356
  800TIP3    H123891   4.998   2.561   2.123  0.0237 -0.9966 -0.3779
  800TIP3    H223892   4.981   2.704   2.075 -1.3029 -0.7961  0.6025
  801TIP3   OH223893   0.014   1.243  11.242 -0.7528 -0.0369  0.2678
  801TIP3    H123894   0.005   1.335  11.219  2.0530  0.1626 -0.4664
  801TIP3    H223895   0.073   1.207  11.175 -0.2586 -1.8732  1.6024
  802TIP3   OH223896   3.520   5.520  15.709  0.1148 -0.1638  0.6028
  802TIP3    H123897   3.543   5.568  15.788  1.5061  0.9339 -0.4275
  802TIP3    H223898   3.603   5.492  15.672 -0.5304 -0.9784 -0.2939
  803TIP3   OH223899   1.956   1.016   4.732  0.1006 -0.4585  0.1154
  803TIP3    H123900   1.893   0.951   4.762  1.3477 -2.2696 -0.9873
  803TIP3    H223901   1.904   1.094   4.715 -1.7911 -1.7772 -0.4332
  804TIP3   OH223902   5.314   6.587   3.485 -0.5584  0.0157 -0.3429
  804TIP3    H123903   5.369   6.594   3.563 -2.8182  0.9488  1.2379
  804TIP3    H223904   5.275   6.500   3.491 -0.7919  0.1161 -0.4002
  805TIP3   OH223905   2.477   3.879   0.807 -0.5567  0.1390  0.2947
  805TIP3    H123906   2.539   3.947   0.781 -0.5271 -0.1144 -0.3166
  805TIP3    H223907   2.396   3.902   0.761 -0.5479 -0.2287  0.0916
  806TIP3   OH223908   1.731   1.337  12.929 -0.1339  0.6323  0.0153
  806TIP3    H123909   1.730   1.429  12.954 -1.4742  0.8054 -0.5664
  806TIP3    H223910   1.649   1.302  12.964  0.0982 -0.1958 -0.2460
  807TIP3   OH223911   4.742   4.757  12.007 -0.2433 -0.9967  0.6039
  807TIP3    H123912   4.786   4.782  11.926  1.0643 -2.2816  0.8905
  807TIP3    H223913   4.753   4.833  12.065 -1.5315  0.0905 -0.5012
  808TIP3   OH223914   3.916   2.482  10.817  0.3631 -0.3504 -0.0157
  808TIP3    H123915   3.930   2.411  10.879 -0.8116 -1.0829 -0.5548
  808TIP3    H223916   3.861   2.545  10.864 -1.5581 -1.4741 -0.6558
  809TIP3   OH223917   6.433   0.968  13.362 -0.0262  0.1696 -0.0311
  809TIP3    H123918   6.416   0.931  13.275 -1.3317  2.2140 -0.7200
  809TIP3    H223919   6.349   0.963  13.407  1.0437 -2.6610  1.9615
  810TIP3   OH223920   5.504   0.546  12.149 -0.7843  0.5592 -0.2021
  810TIP3    H123921   5.465   0.628  12.179  0.2588  1.3373 -0.8721
  810TIP3    H223922   5.571   0.573  12.086  0.0129 -0.7773  0.0250
  811TIP3   OH223923   0.469   2.115  12.446 -0.3513 -0.1132  0.6589
  811TIP3    H123924   0.524   2.052  12.493  1.5456 -0.3933 -1.7490
  811TIP3    H223925   0.441   2.177  12.514 -0.2849 -2.1353  2.6694
  812TIP3   OH223926   1.047   1.894  13.107  0.2348 -0.5962 -0.0570
  812TIP3    H123927   1.050   1.933  13.194  2.1058 -1.9356  0.5521
  812TIP3    H223928   0.992   1.816  13.118 -2.6471  1.1762 -1.0271
  813TIP3   OH223929   6.621   5.370   5.504 -0.0677 -0.5489  0.2662
  813TIP3    H123930   6.542   5.396   5.455  0.3761 -0.5860 -0.4862
  813TIP3    H223931   6.591   5.361   5.594 -0.1904  2.9544  0.6966
  814TIP3   OH223932   4.295   5.108   1.178  0.0659  0.4137  0.0948
  814TIP3    H123933   4.368   5.115   1.117 -1.3220  1.4380 -1.5290
  814TIP3    H223934   4.223   5.071   1.127 -1.4519  2.2416  0.7731
  815TIP3   OH223935   6.734   1.146  14.758 -0.2651 -0.1120 -0.1719
  815TIP3    H123936   6.684   1.225  14.740  0.6882  1.0325  1.8081
  815TIP3    H223937   6.696   1.110  14.838 -0.8739 -1.8735 -1.1963
  816TIP3   OH223938   3.416   3.185  17.257  0.0692  0.3729  0.4960
  816TIP3    H123939   3.432   3.117  17.323  1.3436  0.3264  0.1575
  816TIP3    H223940   3.376   3.256  17.306  1.1136  0.3859  1.3756
  817TIP3   OH223941   2.931   2.631   0.555 -0.3212 -0.2905 -0.4570
  817TIP3    H123942   2.933   2.572   0.631 -0.3008 -0.3991 -0.5414
  817TIP3    H223943   2.975   2.581   0.486  0.7933  0.2783 -0.1957
  818TIP3   OH223944   1.091   2.859  16.504 -0.1414 -0.1292 -0.4830
  818TIP3    H123945   1.102   2.931  16.441 -2.3266  0.3613 -0.3688
  818TIP3    H223946   1.128   2.783  16.460  0.8611  0.7402 -1.2087
  819TIP3   OH223947   4.336   1.681  14.846  0.5832 -0.1029  0.1549
  819TIP3    H123948   4.397   1.750  14.874  0.8299 -0.1434 -0.2641
  819TIP3    H223949   4.383   1.599  14.862  0.1981 -0.1886  0.8727
  820TIP3   OH223950   1.705   2.429   0.711 -0.3160 -0.1038  0.7394
  820TIP3    H123951   1.678   2.349   0.666 -0.1300 -0.0300  0.4907
  820TIP3    H223952   1.773   2.466   0.655 -2.2468  1.6405 -0.6287
  821TIP3   OH223953   1.335   4.890  16.362 -0.2590  0.1166  0.6273
  821TIP3    H123954   1.296   4.905  16.275  1.0916 -3.0585 -0.6591
  821TIP3    H223955   1.269   4.840  16.409 -0.7404  1.3169  1.2749
  822TIP3   OH223956   2.469   5.766  16.132  0.0958  0.1740 -0.2634
  822TIP3    H123957   2.441   5.698  16.193  0.7691  1.4624  1.5860
  822TIP3    H223958   2.387   5.804  16.100 -0.2761 -0.5278 -0.1645
  823TIP3   OH223959   2.567   1.998  16.318  0.5844 -0.2802 -0.1341
  823TIP3    H123960   2.604   2.070  16.370 -1.0297 -0.3359  1.1765
  823TIP3    H223961   2.559   2.034  16.230 -0.8369  1.4631  0.6360
  824TIP3   OH223962   5.374   0.548   5.860 -0.1959  0.5391  0.1008
  824TIP3    H123963   5.406   0.468   5.819 -1.5260 -1.7602  3.1478
  824TIP3    H223964   5.397   0.539   5.952 -2.4185  2.5406  0.9746
  825TIP3   OH223965   5.207   2.310  16.651 -0.7028 -0.1952 -0.0381
  825TIP3    H123966   5.261   2.294  16.574 -0.1497  0.5579  0.1842
  825TIP3    H223967   5.268   2.311  16.725 -1.2634 -1.2293  0.4690
  826TIP3   OH223968   5.759   2.836  10.756 -0.0714  0.1443  0.1088
  826TIP3    H123969   5.679   2.852  10.706  0.7336 -0.9258 -1.6318
  826TIP3    H223970   5.825   2.892  10.714  0.7153 -1.0798 -0.3601
  827TIP3   OH223971   5.079   1.300  13.188  0.4947 -0.6878  0.1868
  827TIP3    H123972   5.163   1.308  13.232 -0.0630  0.4948  1.1045
  827TIP3    H223973   5.020   1.266  13.255 -0.4025  1.2628  0.4465
  828TIP3   OH223974   1.827   1.665   3.904 -0.2185 -0.5474  0.1452
  828TIP3    H123975   1.746   1.711   3.883  0.0568 -0.1916 -0.1537
  828TIP3    H223976   1.837   1.601   3.833  0.0700 -0.1819 -0.1516
  829TIP3   OH223977   0.805   3.318   5.709 -0.0695 -0.4673  0.1727
  829TIP3    H123978   0.800   3.315   5.805  0.2809 -1.2200  0.1758
  829TIP3    H223979   0.819   3.411   5.689  0.2227 -0.3516  0.8701
  830TIP3   OH223980   3.033   4.396   0.692  0.7220  0.0179 -0.2664
  830TIP3    H123981   3.067   4.462   0.752  0.0940 -1.1124  1.4013
  830TIP3    H223982   3.097   4.324   0.697  2.2376  0.9715 -3.2173
  831TIP3   OH223983   4.110   3.229   0.390  0.6001  0.2011  0.2411
  831TIP3    H123984   4.028   3.236   0.340 -1.3152 -1.6901  2.8391
  831TIP3    H223985   4.131   3.320   0.412  0.2255  0.8784 -1.9192
  832TIP3   OH223986   1.950   1.325  10.654  0.3348  0.0122  0.2894
  832TIP3    H123987   1.882   1.327  10.720 -1.5501  0.4655 -1.5454
  832TIP3    H223988   1.983   1.235  10.654 -0.4567 -0.2798  1.0237
  833TIP3   OH223989   5.653   4.971  14.999 -0.0483  0.7240  0.5491
  833TIP3    H123990   5.560   4.974  14.975 -0.1930 -1.6746  0.5754
  833TIP3    H223991   5.653   4.961  15.094  0.1894 -0.1803  0.4618
  834TIP3   OH223992   1.527   2.554  16.677 -0.6400 -0.0686  0.1039
  834TIP3    H123993   1.465   2.492  16.717 -0.6650  0.6719  1.2817
  834TIP3    H223994   1.478   2.636  16.674  0.3666  0.6178  1.3925
  835TIP3   OH223995   6.520   6.638  13.964 -0.4419 -0.7621 -0.4079
  835TIP3    H123996   6.562   6.595  14.038 -0.1443  0.6363  0.2606
  835TIP3    H223997   6.461   6.572  13.928  0.0779 -1.7529  0.5058
  836TIP3   OH223998   1.807   0.394  11.206 -0.0745 -0.4149 -0.4580
  836TIP3    H123999   1.876   0.456  11.182 -1.6865  1.1511 -1.2815
  836TIP3    H224000   1.836   0.310  11.169  1.9399 -0.0994  0.2931
  837TIP3   OH224001   6.812   5.659  12.609 -0.2096 -0.4247 -0.5577
  837TIP3    H124002   6.759   5.703  12.543 -0.3382 -1.8010 -1.4056
  837TIP3    H224003   6.868   5.599  12.560 -1.1869 -2.4148  0.6174
  838TIP3   OH224004   3.614   2.444  15.792  0.0915 -0.3091 -0.6511
  838TIP3    H124005   3.628   2.465  15.884  1.0806 -1.4597 -0.4950
  838TIP3    H224006   3.520   2.428  15.784 -0.0746  0.3093  0.0410
  839TIP3   OH224007   4.046   5.673  11.212  0.0256  0.1559 -0.2787
  839TIP3    H124008   3.961   5.714  11.199 -0.2820 -0.3020  0.2597
  839TIP3    H224009   4.103   5.745  11.242  0.0472  0.6328 -1.4010
  840TIP3   OH224010   4.086   5.670   2.724 -0.3648 -0.2901  0.2673
  840TIP3    H124011   4.103   5.686   2.632  1.2570  0.8463  0.7091
  840TIP3    H224012   3.991   5.664   2.731 -0.4934 -0.9679 -1.5396
  841TIP3   OH224013   2.051   5.696  14.860 -0.2180 -0.1651  0.1452
  841TIP3    H124014   1.957   5.692  14.878 -0.3061  0.1974 -0.2084
  841TIP3    H224015   2.057   5.737  14.774  0.2801  0.2323  0.3632
  842TIP3   OH224016   5.333   2.978  13.038  0.1791 -0.4000  0.2803
  842TIP3    H124017   5.423   2.998  13.062 -0.5089  1.8451  1.3153
  842TIP3    H224018   5.339   2.940  12.950  2.1625 -0.9161  0.6050
  843TIP3   OH224019   4.570   4.775  14.984  0.1146  0.7465 -0.0674
  843TIP3    H124020   4.482   4.762  14.948  0.2015  1.1714 -0.4380
  843TIP3    H224021   4.618   4.697  14.955 -0.4301 -0.0381  1.0785
  844TIP3   OH224022   0.270   1.893   2.122 -0.2206 -0.1505 -0.2333
  844TIP3    H124023   0.241   1.935   2.203  0.1105 -0.7890  0.2315
  844TIP3    H224024   0.334   1.828   2.151  0.0101 -0.2837 -1.0272
  845TIP3   OH224025   0.345   6.621   2.105  0.0521  0.0159  0.1055
  845TIP3    H124026   0.426   6.607   2.056  0.1344  0.1938  0.1883
  845TIP3    H224027   0.291   6.545   2.084 -0.3066  0.5719 -1.0652
  846TIP3   OH224028   1.099   5.952   4.397  0.8283  0.1664 -0.0302
  846TIP3    H124029   1.177   5.900   4.379  0.6826 -0.9179  2.0969
  846TIP3    H224030   1.119   5.996   4.480 -0.2124  1.1823 -0.2856
  847TIP3   OH224031   3.071   0.046   2.671 -0.0782 -0.1050  0.1383
  847TIP3    H124032   3.135   0.073   2.737  0.9428 -0.3220 -0.7307
  847TIP3    H224033   3.123   0.002   2.604 -0.8810  1.2705 -1.4761
  848TIP3   OH224034   2.709   2.853  13.813 -0.5165 -0.9258  0.2172
  848TIP3    H124035   2.710   2.886  13.722 -2.5880 -2.2566 -0.3334
  848TIP3    H224036   2.634   2.896  13.853 -0.1771 -1.0831  1.0245
  849TIP3   OH224037   0.804   5.196  13.447 -0.4894 -0.6554 -0.1904
  849TIP3    H124038   0.754   5.164  13.522 -0.3328 -0.1709  0.1248
  849TIP3    H224039   0.825   5.117  13.397 -0.6695 -0.9755  0.2313
  850TIP3   OH224040   2.752   1.163   1.406  0.7759 -0.1079 -0.2613
  850TIP3    H124041   2.674   1.166   1.461  0.5721  0.6646 -0.5854
  850TIP3    H224042   2.816   1.217   1.453  0.9039 -0.2029 -0.3254
  851TIP3   OH224043   5.920   5.902  14.771  0.0953  0.3151 -0.1503
  851TIP3    H124044   5.830   5.881  14.797  0.7665 -1.9681  0.5128
  851TIP3    H224045   5.938   5.986  14.814 -1.1917  0.0334  1.0070
  852TIP3   OH224046   3.269   6.325   3.365  0.7467 -0.3014  0.7709
  852TIP3    H124047   3.318   6.299   3.287 -0.6319 -1.2878  0.2060
  852TIP3    H224048   3.335   6.368   3.421  1.1902  3.4608 -2.2038
  853TIP3   OH224049   2.908   2.865   5.418  0.6085 -0.2953 -0.4758
  853TIP3    H124050   2.946   2.953   5.414  1.7269 -0.7800 -0.9807
  853TIP3    H224051   2.983   2.806   5.411 -0.0520 -1.3071  0.6083
  854TIP3   OH224052   0.406   6.107  10.804 -0.3639 -0.6140 -0.1426
  854TIP3    H124053   0.483   6.052  10.791 -0.7680 -1.2265  0.0108
  854TIP3    H224054   0.400   6.159  10.724 -0.5849 -1.5607 -0.7607
  855TIP3   OH224055   4.584   1.358  15.165 -0.1425  0.0904 -0.5617
  855TIP3    H124056   4.505   1.313  15.192 -2.5779  2.4697 -3.0211
  855TIP3    H224057   4.601   1.421  15.235 -0.5399 -0.2970 -0.1080
  856TIP3   OH224058   2.302   4.247   1.138 -0.2398 -0.6293  0.1781
  856TIP3    H124059   2.314   4.318   1.202 -0.0422  0.0589 -0.6108
  856TIP3    H224060   2.378   4.190   1.152 -1.3452 -1.7223  2.0905
  857TIP3   OH224061   4.108   6.009   3.300  0.5450 -0.0668 -0.6443
  857TIP3    H124062   4.137   6.088   3.255  1.6015  0.4855  0.9190
  857TIP3    H224063   4.175   5.944   3.278  0.8129  0.0743 -0.2579
  858TIP3   OH224064   1.434   2.382  15.842  0.2507  1.0771  0.1075
  858TIP3    H124065   1.454   2.417  15.755 -2.1595  1.8786 -0.1928
  858TIP3    H224066   1.477   2.442  15.903 -0.8156  2.5077 -0.4947
  859TIP3   OH224067   5.197   0.734   5.120  0.3417 -0.7753  0.0878
  859TIP3    H124068   5.264   0.717   5.054  0.9124 -1.3698  0.8179
  859TIP3    H224069   5.139   0.658   5.115  0.3507 -0.7919  0.2281
  860TIP3   OH224070   2.512   5.143  16.258 -0.2911 -0.5318  0.0568
  860TIP3    H124071   2.545   5.134  16.168 -0.1576 -1.0520  0.1546
  860TIP3    H224072   2.547   5.226  16.288  0.7102 -0.9524  0.0673
  861TIP3   OH224073   0.748   2.329  11.278  0.2874 -0.2263  0.2507
  861TIP3    H124074   0.704   2.303  11.198 -0.8746  0.0274  0.7883
  861TIP3    H224075   0.738   2.254  11.337  0.4225 -0.1047  0.4327
  862TIP3   OH224076   4.220   2.136  14.097  0.3816 -0.1271  0.2094
  862TIP3    H124077   4.195   2.062  14.041 -0.8099 -0.9201  1.7118
  862TIP3    H224078   4.315   2.144  14.084  0.0195  0.6095 -2.8961
  863TIP3   OH224079   4.355   6.642   1.628 -0.3137 -0.3785 -0.4327
  863TIP3    H124080   4.424   6.672   1.569  0.5112 -0.7863  0.3028
  863TIP3    H224081   4.275   6.647   1.576  0.0894  1.2039 -0.9391
  864TIP3   OH224082   1.744   2.510  16.242 -0.0291  0.0025  0.2238
  864TIP3    H124083   1.749   2.533  16.334 -0.5074  0.4473  0.1450
  864TIP3    H224084   1.834   2.495  16.216 -0.0923 -4.1886  1.7255
  865TIP3   OH224085   2.177   2.529   2.511  0.1359 -0.4753  0.3342
  865TIP3    H124086   2.144   2.446   2.476 -2.9316  0.2273  1.2635
  865TIP3    H224087   2.150   2.594   2.446 -1.6252  0.2742  1.7149
  866TIP3   OH224088   3.205   6.495  13.615  0.0182  0.5728  0.3457
  866TIP3    H124089   3.141   6.438  13.657 -1.3320  1.9765  0.2747
  866TIP3    H224090   3.229   6.558  13.683  1.2640  0.1287  0.3399
  867TIP3   OH224091   3.592   2.167   5.045 -0.3659  0.7012  0.1643
  867TIP3    H124092   3.534   2.179   4.969 -0.5341  0.1361  0.1986
  867TIP3    H224093   3.606   2.256   5.078 -0.3487  0.9481 -0.4845
  868TIP3   OH224094   5.720   1.708  11.321  0.3766  0.2915 -0.5340
  868TIP3    H124095   5.725   1.801  11.296  0.7955  0.2947 -0.4397
  868TIP3    H224096   5.632   1.681  11.294 -0.0384  0.9219  0.1449
  869TIP3   OH224097   0.153   6.429   2.104 -0.0528 -0.0673 -0.1138
  869TIP3    H124098   0.086   6.365   2.080  0.3114 -0.5298  0.0977
  869TIP3    H224099   0.185   6.400   2.189 -0.0856  0.5627  0.1222
  870TIP3   OH224100   1.511   5.039  11.199 -0.4281 -0.1571 -0.4221
  870TIP3    H124101   1.523   5.071  11.288 -0.6400  0.3795 -0.5863
  870TIP3    H224102   1.451   5.101  11.158  0.4235  0.1641 -1.2383
  871TIP3   OH224103   5.410   3.650  11.475  0.1920 -0.2243 -0.6340
  871TIP3    H124104   5.390   3.742  11.458 -2.0851 -0.3966  0.6989
  871TIP3    H224105   5.498   3.638  11.439  0.7627  2.5718 -0.4346
  872TIP3   OH224106   0.165   2.138  16.984 -0.0727 -0.7802  0.8461
  872TIP3    H124107   0.099   2.083  17.025 -2.4528  0.8232 -0.6219
  872TIP3    H224108   0.211   2.078  16.924 -0.2829 -1.8770  1.7448
  873TIP3   OH224109   5.754   0.433  13.337 -0.5037  0.3347 -0.2291
  873TIP3    H124110   5.673   0.469  13.301 -0.3376  0.7670 -0.1691
  873TIP3    H224111   5.767   0.351  13.288 -1.1008  0.1439 -0.0744
  874TIP3   OH224112   3.056   2.344   3.619  0.3187  0.1108  0.0794
  874TIP3    H124113   3.069   2.438   3.629 -0.0242  0.0244  1.5725
  874TIP3    H224114   2.965   2.335   3.589 -0.0257  0.2188  1.0643
  875TIP3   OH224115   0.878   3.930   5.147  0.3921  0.5939 -0.4573
  875TIP3    H124116   0.844   4.013   5.114 -1.0813  0.5432  0.8205
  875TIP3    H224117   0.972   3.945   5.157 -0.0344  2.6798  1.2118
  876TIP3   OH224118   0.577   5.153  11.422 -0.1827  0.2336  0.4106
  876TIP3    H124119   0.642   5.206  11.375  0.6066 -0.9036  0.2036
  876TIP3    H224120   0.493   5.187  11.391  0.2050  2.7598  1.8069
  877TIP3   OH224121   4.225   4.130   2.521 -0.3549 -0.1963  0.1175
  877TIP3    H124122   4.242   4.090   2.435  0.0837 -0.2228  0.2154
  877TIP3    H224123   4.308   4.169   2.546 -1.0213  1.6580 -0.4192
  878TIP3   OH224124   2.465   6.522  14.212 -0.2822  1.1226  0.0379
  878TIP3    H124125   2.503   6.478  14.288  1.7184  0.7630 -1.0824
  878TIP3    H224126   2.374   6.539  14.236 -0.8343 -2.4954  1.0427
  879TIP3   OH224127   1.356   0.931   4.737  0.7000 -0.0325 -0.5225
  879TIP3    H124128   1.304   0.865   4.691  1.7508 -0.0974 -1.6882
  879TIP3    H224129   1.292   0.986   4.782 -0.1607 -2.6336  1.6585
  880TIP3   OH224130   3.389   6.024  14.013 -0.4788 -0.0773  0.8942
  880TIP3    H124131   3.296   6.030  13.990 -0.2161  3.2530  0.1128
  880TIP3    H224132   3.397   6.077  14.092  1.0639  1.8054 -0.4276
  881TIP3   OH224133   0.798   2.294  14.024 -0.1500  0.0110 -0.0695
  881TIP3    H124134   0.831   2.209  14.055  0.9039  0.8705  1.2923
  881TIP3    H224135   0.810   2.353  14.099  1.6644  1.9905 -1.7853
  882TIP3   OH224136   1.560   1.310   1.234 -0.0521 -0.1956  0.1803
  882TIP3    H124137   1.480   1.333   1.186 -0.2026 -0.4059  0.3277
  882TIP3    H224138   1.610   1.257   1.172  0.1063  0.1729 -0.0133
  883TIP3   OH224139   1.273   5.621   3.915 -0.4213  0.0417 -0.4776
  883TIP3    H124140   1.245   5.660   3.832  0.6956 -0.7283 -1.2487
  883TIP3    H224141   1.198   5.633   3.974 -1.2147  0.6591 -1.5732
  884TIP3   OH224142   2.132   5.395  14.434  0.1353 -0.2104 -0.3507
  884TIP3    H124143   2.187   5.317  14.428  0.6785  0.0312  1.1207
  884TIP3    H224144   2.042   5.361  14.425  0.4133 -0.8565 -0.7851
  885TIP3   OH224145   3.717   3.182  17.111  0.5348  0.1852  0.6973
  885TIP3    H124146   3.654   3.129  17.061  1.1317  1.2657 -1.3199
  885TIP3    H224147   3.663   3.249  17.154  0.1412  0.1001  0.3460
  886TIP3   OH224148   2.881   3.524  16.560  0.0907 -0.5932  0.0436
  886TIP3    H124149   2.893   3.583  16.486  0.4998 -0.6615  0.0489
  886TIP3    H224150   2.868   3.438  16.519 -1.4937 -0.3612  0.0121
  887TIP3   OH224151   5.592   5.091  11.105  0.4517  0.4399 -0.1891
  887TIP3    H124152   5.646   5.029  11.154 -0.4381 -0.5818 -0.4418
  887TIP3    H224153   5.653   5.140  11.050  1.1518 -0.4468 -0.2137
  888TIP3   OH224154   6.793   5.357  11.006 -0.0304  0.5243 -0.1696
  888TIP3    H124155   6.799   5.275  11.054 -1.4351  0.7361  0.4210
  888TIP3    H224156   6.872   5.359  10.952  2.0986  0.6437  2.6965
  889TIP3   OH224157   1.234   1.279  13.157  0.4676 -0.3793  0.9458
  889TIP3    H124158   1.263   1.199  13.111 -0.1639 -0.4814  0.7205
  889TIP3    H224159   1.315   1.315  13.194  1.2715  0.5806 -1.5754
  890TIP3   OH224160   0.346   1.536   6.446  0.0077  0.4942 -0.5837
  890TIP3    H124161   0.374   1.445   6.435 -0.0667  0.3988 -0.0021
  890TIP3    H224162   0.418   1.578   6.492 -0.0797  0.6647 -0.6013
  891TIP3   OH224163   4.801   3.895  16.882 -0.2851 -0.1196  0.0264
  891TIP3    H124164   4.858   3.829  16.922 -0.6663 -0.5904 -0.2018
  891TIP3    H224165   4.774   3.857  16.799  1.0109  1.1100 -1.0046
  892TIP3   OH224166   5.698   5.313  11.740 -0.2531  0.9665 -0.0240
  892TIP3    H124167   5.625   5.359  11.782 -0.4308 -0.2750  1.1128
  892TIP3    H224168   5.700   5.347  11.650 -1.2659  2.1134  0.3677
  893TIP3   OH224169   0.754   1.161  16.165 -0.2234  0.6845  0.1165
  893TIP3    H124170   0.697   1.147  16.241  1.3816 -0.9523  1.0905
  893TIP3    H224171   0.706   1.120  16.092 -1.2999  1.3404  0.4333
  894TIP3   OH224172   0.776   2.028   5.405  0.2068 -0.1056  0.0433
  894TIP3    H124173   0.775   1.952   5.462  0.2963 -1.0967 -1.2364
  894TIP3    H224174   0.773   2.103   5.464 -0.7291 -1.1073  1.2973
  895TIP3   OH224175   5.761   1.208   2.938  0.2376  0.0354  0.2858
  895TIP3    H124176   5.710   1.228   3.017 -0.8619 -0.5260 -0.2638
  895TIP3    H224177   5.714   1.136   2.896  0.6903  0.4623 -1.0016
  896TIP3   OH224178   2.038   4.506   3.185 -0.9615  0.2183 -0.7284
  896TIP3    H124179   1.992   4.549   3.113 -1.4231  2.8063  0.9893
  896TIP3    H224180   1.968   4.481   3.246 -0.3768  0.8004  0.1963
  897TIP3   OH224181   0.132   3.985  16.705  0.5640  0.0443  1.2508
  897TIP3    H124182   0.186   3.932  16.764  1.0013  0.2101  1.0009
  897TIP3    H224183   0.178   3.982  16.621 -0.4207 -0.7794  0.7203
  898TIP3   OH224184   3.183   1.791  12.379  0.0132  1.0138  0.3983
  898TIP3    H124185   3.217   1.822  12.295  1.4000  0.1306  0.5935
  898TIP3    H224186   3.259   1.794  12.438 -0.1325 -1.2608  0.7909
  899TIP3   OH224187   0.890   1.538   0.078 -0.0837  0.3997 -0.4848
  899TIP3    H124188   0.851   1.617   0.040  0.3564  0.6972 -0.3158
  899TIP3    H224189   0.951   1.570   0.145 -0.7347 -0.1067  0.3808
  900TIP3   OH224190   1.921   4.074   6.208 -0.4167  0.6465 -0.1289
  900TIP3    H124191   1.977   4.067   6.286 -1.4671  0.8890  0.6728
  900TIP3    H224192   1.871   3.993   6.208 -0.7714  0.8669 -0.2718
  901TIP3   OH224193   4.900   3.398   4.300  0.2353  0.1094 -0.4086
  901TIP3    H124194   4.945   3.473   4.260  0.7283 -0.0297 -0.1253
  901TIP3    H224195   4.898   3.419   4.394  0.9958 -0.5475 -0.2370
  902TIP3   OH224196   0.203   4.822   1.332 -0.0862  0.3123  0.0626
  902TIP3    H124197   0.198   4.726   1.334  0.5789  0.2741  2.1278
  902TIP3    H224198   0.215   4.843   1.239  0.0979 -1.6150 -0.3962
  903TIP3   OH224199   1.742   0.134   1.440  0.0729  0.4588 -0.5646
  903TIP3    H124200   1.664   0.078   1.443  0.2846  0.2121  0.6685
  903TIP3    H224201   1.708   0.219   1.413 -0.5680  0.2548 -0.4311
  904TIP3   OH224202   2.326   2.928   1.851  0.8065  0.1114 -0.5074
  904TIP3    H124203   2.270   2.873   1.905 -0.3968  1.5913 -0.1609
  904TIP3    H224204   2.412   2.888   1.856  0.4000 -0.6124  1.3109
  905TIP3   OH224205   2.346   2.545   2.258 -0.1164 -0.0474  0.1358
  905TIP3    H124206   2.273   2.592   2.297 -0.4744 -1.5998  1.4346
  905TIP3    H224207   2.413   2.612   2.245 -0.4441  0.8013  2.3215
  906TIP3   OH224208   6.746   6.386   1.347 -0.0487 -0.6123 -0.0023
  906TIP3    H124209   6.739   6.478   1.372  0.8114  0.1684 -2.3227
  906TIP3    H224210   6.722   6.338   1.426 -4.0755  1.5498  0.3791
  907TIP3   OH224211   2.984   2.896   5.844 -0.1819 -0.0350 -0.3148
  907TIP3    H124212   2.944   2.943   5.917  1.5408 -0.1374  0.7467
  907TIP3    H224213   3.009   2.811   5.882  0.6160 -0.1409 -1.0543
  908TIP3   OH224214   6.649   1.674   3.261 -0.4667 -0.0696  0.4335
  908TIP3    H124215   6.611   1.717   3.185 -1.1754  1.0196  1.3742
  908TIP3    H224216   6.743   1.694   3.255  0.1678 -3.0812 -2.0890
  909TIP3   OH224217   2.738   5.619   2.194  0.3048 -0.6011  0.1734
  909TIP3    H124218   2.647   5.642   2.208  0.8737  1.7138  0.5100
  909TIP3    H224219   2.756   5.643   2.103  1.0863  1.0319  0.7176
  910TIP3   OH224220   1.637   3.231  14.599 -0.5550 -0.3064  0.2336
  910TIP3    H124221   1.596   3.317  14.598  0.1133  0.0328  1.2563
  910TIP3    H224222   1.649   3.211  14.692  1.7030 -0.3290 -0.0174
  911TIP3   OH224223   4.185   6.197   2.505  0.0736  0.2518  0.1987
  911TIP3    H124224   4.124   6.256   2.549 -1.8505 -0.8303 -0.8685
  911TIP3    H224225   4.131   6.151   2.440  2.1778 -0.2921 -1.2735
  912TIP3   OH224226   4.808   1.766   2.709 -0.0800 -0.0053 -0.0327
  912TIP3    H124227   4.728   1.745   2.661 -0.6427  1.4073  0.2292
  912TIP3    H224228   4.822   1.859   2.691  2.2073 -0.5034 -1.0761
  913TIP3   OH224229   6.681   1.674   6.539 -0.0633 -0.9061 -0.0012
  913TIP3    H124230   6.764   1.632   6.514 -0.2764 -1.7545  0.6497
  913TIP3    H224231   6.654   1.628   6.619  0.0396  0.9655  1.1804
  914TIP3   OH224232   4.989   1.924   0.791  0.3773 -0.0843 -0.4394
  914TIP3    H124233   4.914   1.976   0.819  0.8371 -1.0240  2.8775
  914TIP3    H224234   4.963   1.833   0.809  1.0778 -0.7427 -2.4366
  915TIP3   OH224235   0.693   1.975   6.062  0.2950 -0.5581 -0.4288
  915TIP3    H124236   0.612   2.014   6.028 -0.1323  1.2101  2.2884
  915TIP3    H224237   0.673   1.955   6.153  2.9063 -0.0407  0.3326
  916TIP3   OH224238   0.156   6.681  12.019  0.2094 -0.3217  0.5388
  916TIP3    H124239   0.193   6.714  12.101 -0.6971  0.1963  0.7503
  916TIP3    H224240   0.079   6.736  12.003  0.5665 -0.1667 -0.8551
  917TIP3   OH224241   6.704   3.071   5.518  0.5410  0.0987 -0.5644
  917TIP3    H124242   6.759   3.013   5.466  0.4607  1.3845 -2.1579
  917TIP3    H224243   6.744   3.158   5.508  0.0769  0.5083  0.9185
  918TIP3   OH224244   0.576   1.453  15.651  0.1069 -0.2087  0.0058
  918TIP3    H124245   0.667   1.482  15.655  0.5367 -1.3741 -0.9337
  918TIP3    H224246   0.532   1.505  15.719  1.3416  0.7728  0.0976
  919TIP3   OH224247   3.612   0.110   2.340 -0.5869 -0.5817 -0.0743
  919TIP3    H124248   3.698   0.070   2.343 -0.0014  0.6414  0.1948
  919TIP3    H224249   3.551   0.037   2.331  0.6305 -1.3639 -3.1583
  920TIP3   OH224250   6.785   5.699   1.744 -0.5040  0.5419 -0.7550
  920TIP3    H124251   6.811   5.779   1.791 -1.4586 -0.4771  1.6323
  920TIP3    H224252   6.848   5.633   1.773 -0.7888  0.0096 -1.3399
  921TIP3   OH224253   3.687   2.309  14.563  0.6247 -0.0392 -0.3130
  921TIP3    H124254   3.621   2.287  14.628  0.3107  0.9824 -0.2560
  921TIP3    H224255   3.739   2.377  14.605  0.2148  0.8644 -1.2268
  922TIP3   OH224256   3.475   5.362  13.452  0.4564 -0.0767 -0.2587
  922TIP3    H124257   3.487   5.426  13.523  1.8916  0.5161 -0.9984
  922TIP3    H224258   3.473   5.414  13.372  1.5260 -0.9080 -0.8712
  923TIP3   OH224259   0.885   1.157   3.046  0.9833 -0.1866  0.0833
  923TIP3    H124260   0.922   1.121   3.126  1.9923  0.4550 -0.0803
  923TIP3    H224261   0.958   1.202   3.004  0.5705 -0.8165 -1.3834
  924TIP3   OH224262   1.950   2.093  14.821  0.0979 -0.6719 -0.1072
  924TIP3    H124263   2.038   2.106  14.856 -0.7766 -1.1055  2.4640
  924TIP3    H224264   1.947   2.149  14.743  1.9933  0.9081  0.8506
  925TIP3   OH224265   3.007   3.522  12.990 -0.4479 -0.0456 -0.1898
  925TIP3    H124266   2.942   3.591  12.975 -0.6666  0.1754  1.5824
  925TIP3    H224267   3.083   3.567  13.026  0.6131 -0.3548 -1.9242
  926TIP3   OH224268   5.844   3.110   3.026  0.0371  0.1635  0.3198
  926TIP3    H124269   5.757   3.081   3.055 -0.4461  1.5854  0.4171
  926TIP3    H224270   5.826   3.161   2.947  0.6099  1.5628  1.0605
  927TIP3   OH224271   0.133   0.087  11.467 -0.2510 -0.0731 -0.1445
  927TIP3    H124272   0.157   0.017  11.529 -2.7016 -2.2225 -1.4255
  927TIP3    H224273   0.064   0.136  11.512  0.1807  0.3715  0.0377
  928TIP3   OH224274   3.664   0.373  16.673  0.1847 -0.5081 -0.4685
  928TIP3    H124275   3.689   0.302  16.614 -1.7365 -1.3192 -0.3649
  928TIP3    H224276   3.711   0.450  16.639  0.6324 -1.3663 -1.8600
  929TIP3   OH224277   6.114   1.902   5.628 -0.2533 -0.3589 -0.1013
  929TIP3    H124278   6.171   1.878   5.556 -0.4430  0.4604 -0.5375
  929TIP3    H224279   6.172   1.943   5.693 -0.3561  0.7514 -0.6736
  930TIP3   OH224280   2.297   1.567  16.476  0.3580  0.7366 -0.5465
  930TIP3    H124281   2.289   1.524  16.391  1.8367 -0.5842 -0.0624
  930TIP3    H224282   2.352   1.644  16.459  0.3838  0.6529 -0.8455
  931TIP3   OH224283   0.090   6.111   4.952 -0.2309  0.0824  0.5945
  931TIP3    H124284   0.181   6.134   4.973 -0.6373  1.8642  0.5002
  931TIP3    H224285   0.040   6.136   5.029 -0.5543 -1.8316  1.0541
  932TIP3   OH224286   1.409   5.158   1.180  0.1429 -0.1479 -0.1452
  932TIP3    H124287   1.409   5.127   1.271 -0.0079 -4.2932 -1.3502
  932TIP3    H224288   1.317   5.163   1.156  0.2072 -0.8285 -0.5526
  933TIP3   OH224289   5.783   2.434  10.583 -0.1572 -0.0413 -0.1204
  933TIP3    H124290   5.839   2.386  10.522 -0.5999  0.2612 -0.7697
  933TIP3    H224291   5.750   2.508  10.533 -1.8773 -0.7124 -0.0541
  934TIP3   OH224292   1.817   5.419   0.194 -0.0390 -0.5769  0.0873
  934TIP3    H124293   1.862   5.341   0.226 -0.8826 -1.5873 -1.0644
  934TIP3    H224294   1.752   5.385   0.133  0.7311  1.1239 -1.8161
  935TIP3   OH224295   6.069   4.358  17.166  0.0258  0.2142 -0.0941
  935TIP3    H124296   6.089   4.451  17.166  1.6939 -0.1119 -0.0063
  935TIP3    H224297   6.101   4.326  17.082 -1.4059 -0.1432 -0.5382
  936TIP3   OH224298   1.983   5.750   2.489 -0.4832 -0.3238 -0.0518
  936TIP3    H124299   1.970   5.780   2.579  0.0272 -1.4630  0.4193
  936TIP3    H224300   2.036   5.818   2.448 -0.2440 -0.0699  0.6693
  937TIP3   OH224301   1.414   0.635  13.762 -0.5000  0.3397 -0.1579
  937TIP3    H124302   1.318   0.631  13.764 -0.4622 -2.4599 -0.0915
  937TIP3    H224303   1.433   0.723  13.730 -3.0633  1.2798  0.6264
  938TIP3   OH224304   5.140   3.950  14.824  0.1180  0.2499  0.2857
  938TIP3    H124305   5.206   4.018  14.836  0.8081 -0.5268  1.0055
  938TIP3    H224306   5.173   3.875  14.874 -0.7415 -0.5400 -0.2979
  939TIP3   OH224307   2.400   3.705   3.927 -0.1800 -0.4799 -0.1925
  939TIP3    H124308   2.388   3.784   3.980 -0.2825  1.7076 -3.1808
  939TIP3    H224309   2.492   3.706   3.903 -0.6021 -0.0177 -1.9352
  940TIP3   OH224310   1.868   4.313  13.388  0.2046  0.3419  0.1484
  940TIP3    H124311   1.828   4.335  13.472  0.9806 -0.4311  0.7323
  940TIP3    H224312   1.921   4.236  13.406  1.0321  0.6538 -0.8776
  941TIP3   OH224313   2.690   5.299  12.825 -0.0727  0.2927  0.1525
  941TIP3    H124314   2.692   5.252  12.741 -0.9148  2.7052 -1.3222
  941TIP3    H224315   2.605   5.276  12.863  0.1929 -0.5924  0.2402
  942TIP3   OH224316   2.208   5.024   2.120 -0.3167  0.1647 -0.2528
  942TIP3    H124317   2.247   5.042   2.206 -1.2617  1.7311 -0.1006
  942TIP3    H224318   2.231   5.101   2.067 -1.1183 -0.0182 -0.8930
  943TIP3   OH224319   3.083   5.848  16.466 -0.6804  0.0382  0.4337
  943TIP3    H124320   3.112   5.930  16.506  0.9311 -0.5869  0.6189
  943TIP3    H224321   3.111   5.855  16.375 -1.0946 -0.0570  0.2974
  944TIP3   OH224322   1.822   3.701  15.812 -0.7068 -0.1899 -0.1576
  944TIP3    H124323   1.764   3.751  15.869  1.2676  1.5705  0.4574
  944TIP3    H224324   1.878   3.652  15.872 -1.1371 -1.4143 -0.7219
  945TIP3   OH224325   0.888   2.758   2.730 -0.5210  0.2038  0.5278
  945TIP3    H124326   0.796   2.735   2.743 -0.2864 -0.5004  0.9822
  945TIP3    H224327   0.937   2.690   2.776  0.3743 -1.7462 -2.9499
  946TIP3   OH224328   5.965   3.304  13.792  0.3823  0.1860  0.1790
  946TIP3    H124329   5.993   3.249  13.719  1.6273  0.3403  0.5278
  946TIP3    H224330   5.874   3.278  13.807 -0.6894  1.6360 -2.8123
  947TIP3   OH224331   3.103   6.145   0.931  0.0444  0.1951 -0.0659
  947TIP3    H124332   3.158   6.219   0.952  0.4072 -0.3549  1.0291
  947TIP3    H224333   3.101   6.093   1.012  0.1612 -1.2054 -0.9268
  948TIP3   OH224334   0.005   5.383   3.377  0.0271 -0.1613 -0.4404
  948TIP3    H124335  -0.004   5.397   3.471 -2.0700  0.0669 -0.6434
  948TIP3    H224336  -0.027   5.294   3.362 -0.2174  0.0173 -1.0130
  949TIP3   OH224337   6.644   6.280   5.408  0.0091  0.2960  0.0796
  949TIP3    H124338   6.617   6.245   5.323 -0.9922  0.9252  0.1203
  949TIP3    H224339   6.563   6.314   5.447  0.4928  0.2304  1.1869
  950TIP3   OH224340   4.384   3.826  15.475 -0.1297 -0.3364 -0.3726
  950TIP3    H124341   4.473   3.856  15.454  0.0380 -0.5379  0.0385
  950TIP3    H224342   4.342   3.902  15.515  0.3580 -0.6815  0.8462
  951TIP3   OH224343   0.070   2.544  11.178 -0.1757 -0.1592  0.8462
  951TIP3    H124344   0.084   2.476  11.243 -0.5663  0.1232  1.2339
  951TIP3    H224345  -0.015   2.582  11.201  0.9592  1.8828  1.9571
  952TIP3   OH224346   0.264   4.110   4.120 -0.1905 -0.3906  0.2901
  952TIP3    H124347   0.310   4.084   4.199  0.4949 -0.5106 -0.1380
  952TIP3    H224348   0.333   4.137   4.060 -0.8128  1.4446  0.3576
  953TIP3   OH224349   1.014   5.848  16.243 -0.3614  0.3612 -0.3711
  953TIP3    H124350   1.091   5.793  16.258 -2.3173 -2.5627 -0.0215
  953TIP3    H224351   0.943   5.801  16.287 -2.7258  1.8186 -2.3862
  954TIP3   OH224352   2.104   1.965  13.790 -0.0038  0.5809 -0.1392
  954TIP3    H124353   2.183   1.980  13.841  0.2203 -0.4258 -0.1775
  954TIP3    H224354   2.065   1.886  13.827 -0.3687  0.4009 -0.8726
  955TIP3   OH224355   2.863   0.126   3.023 -0.3392  0.1585 -0.1063
  955TIP3    H124356   2.843   0.145   2.931 -0.8269 -0.8002 -0.2035
  955TIP3    H224357   2.861   0.031   3.029 -0.1419  0.2072  0.8654
  956TIP3   OH224358   6.411   4.906   3.868 -0.0095  0.6216  0.8553
  956TIP3    H124359   6.379   4.818   3.886 -0.3137  0.5488 -0.0340
  956TIP3    H224360   6.452   4.933   3.950  1.0786 -0.7658  0.7989
  957TIP3   OH224361   3.168   6.419  13.147 -0.0918 -0.0920 -0.2681
  957TIP3    H124362   3.078   6.416  13.114  0.8124 -1.6136 -2.8932
  957TIP3    H224363   3.162   6.388  13.237 -2.1529 -0.5193 -0.5041
  958TIP3   OH224364   0.236   0.466  15.912  0.5497  0.0390 -0.2423
  958TIP3    H124365   0.245   0.401  15.842 -0.0971 -0.2533 -0.0581
  958TIP3    H224366   0.233   0.415  15.992 -0.0092  0.2935 -0.0974
  959TIP3   OH224367   6.272   4.858   5.314 -0.1423 -0.1070 -0.3246
  959TIP3    H124368   6.234   4.926   5.257  0.2243  0.5062  0.1559
  959TIP3    H224369   6.219   4.862   5.394  1.4598  1.3807  0.7188
  960TIP3   OH224370   4.726   2.228  17.048 -0.0414 -0.1443 -0.4012
  960TIP3    H124371   4.718   2.185  16.963  0.8697 -0.3471 -0.3908
  960TIP3    H224372   4.678   2.170  17.108  1.0275 -1.0775 -0.4167
  961TIP3   OH224373   4.113   5.228   2.585  0.2940  0.2827  0.0856
  961TIP3    H124374   4.177   5.300   2.584 -1.5406  1.9924  0.0598
  961TIP3    H224375   4.164   5.152   2.611  2.6243  1.2731 -1.2403
  962TIP3   OH224376   2.565   3.198  11.573  0.4719  0.4105 -0.3681
  962TIP3    H124377   2.503   3.243  11.515  1.8309  0.6028 -1.7180
  962TIP3    H224378   2.523   3.201  11.659 -1.0211  1.2422 -1.0884
  963TIP3   OH224379   1.329   3.270  15.608 -0.1493 -0.3193  0.6603
  963TIP3    H124380   1.298   3.185  15.576 -0.7220  0.1859 -0.1584
  963TIP3    H224381   1.336   3.324  15.530 -0.5882  0.6384  1.2625
  964TIP3   OH224382   5.940   3.737   3.723 -0.6285  0.3485 -0.3945
  964TIP3    H124383   6.011   3.799   3.740 -0.4017 -0.2782  1.0074
  964TIP3    H224384   5.874   3.757   3.788 -0.8386 -0.4473 -0.3523
  965TIP3   OH224385   4.990   6.000   3.934  0.0857 -0.5553 -0.0469
  965TIP3    H124386   5.039   6.082   3.939 -0.8416 -0.0020  0.2174
  965TIP3    H224387   5.009   5.955   4.016 -0.9675  0.3274  0.7209
  966TIP3   OH224388   3.229   4.590  13.891 -0.4726 -0.1705 -0.4307
  966TIP3    H124389   3.258   4.628  13.808  3.5669 -1.2826  0.2686
  966TIP3    H224390   3.244   4.659  13.956  2.5315 -1.2543  0.1724
  967TIP3   OH224391   1.615   5.223  14.931  0.0293 -0.3488  0.2622
  967TIP3    H124392   1.652   5.310  14.913  0.7855 -0.5183  0.9394
  967TIP3    H224393   1.677   5.162  14.891 -0.2545 -0.6003  0.2008
  968TIP3   OH224394   6.439   2.989  11.226  0.2009 -0.1863 -0.1030
  968TIP3    H124395   6.434   2.913  11.284 -1.0805 -0.7417 -0.9083
  968TIP3    H224396   6.502   2.964  11.158  1.2010  0.2130  0.6560
  969TIP3   OH224397   5.975   0.633   2.989 -0.0259  0.1427  0.4478
  969TIP3    H124398   6.000   0.542   2.972 -1.9021 -0.7020  1.8873
  969TIP3    H224399   5.961   0.637   3.083  2.0037  2.5147  0.7467
  970TIP3   OH224400   6.521   3.084  13.756  0.4767  0.5910  0.1457
  970TIP3    H124401   6.591   3.021  13.776 -1.0584 -1.0889  0.4486
  970TIP3    H224402   6.441   3.033  13.760 -1.0725  2.9436  2.2031
  971TIP3   OH224403   4.130   0.076  16.896  0.2173 -0.5278  0.5193
  971TIP3    H124404   4.129   0.163  16.937 -1.4536 -0.8542  1.2364
  971TIP3    H224405   4.046   0.037  16.920 -0.3961 -1.1760 -2.2899
  972TIP3   OH224406   6.569   5.062  16.580  0.0896 -0.5565  0.3257
  972TIP3    H124407   6.512   4.991  16.609 -1.9803  0.6186 -0.6677
  972TIP3    H224408   6.584   5.044  16.488 -0.0262  0.0178  0.1938
  973TIP3   OH224409   4.224   3.295   1.582  0.1495 -0.4700  0.0071
  973TIP3    H124410   4.136   3.328   1.566  0.9303  1.3167 -1.0271
  973TIP3    H224411   4.258   3.277   1.494  1.4297  0.6747  0.2368
  974TIP3   OH224412   0.628   2.297   2.733  0.4462 -0.4342  0.3402
  974TIP3    H124413   0.705   2.264   2.686 -0.2960 -0.1150 -1.1260
  974TIP3    H224414   0.562   2.228   2.722 -0.3355  0.4569 -0.7100
  975TIP3   OH224415   5.905   0.729  15.777  0.2414  0.6486 -0.6790
  975TIP3    H124416   5.840   0.692  15.718  1.3222  1.8610 -2.7078
  975TIP3    H224417   5.855   0.787  15.834 -0.8228 -0.5642 -0.3178
  976TIP3   OH224418   0.689   1.834  11.435  0.2275 -0.2358 -0.3645
  976TIP3    H124419   0.768   1.847  11.487  0.1246 -2.3902  0.4023
  976TIP3    H224420   0.720   1.805  11.350  0.2834 -0.0064 -0.4241
  977TIP3   OH224421   1.318   2.445   1.199  0.6151  0.2749  0.1263
  977TIP3    H124422   1.283   2.399   1.275  1.0024  0.4832  0.4401
  977TIP3    H224423   1.267   2.413   1.125  0.8244 -0.5979  0.3515
  978TIP3   OH224424   0.347   2.167  16.675  0.4777  1.0682  0.2422
  978TIP3    H124425   0.294   2.094  16.706 -0.1076  2.2294  2.1487
  978TIP3    H224426   0.292   2.210  16.610 -0.4984  1.5806  1.3607
  979TIP3   OH224427   2.975   2.315  15.063 -0.0851 -0.7070  0.5092
  979TIP3    H124428   2.887   2.334  15.096  0.4819  0.5211  1.3634
  979TIP3    H224429   3.013   2.401  15.044  0.9383 -1.2235  0.1333
  980TIP3   OH224430   5.912   6.680  16.393 -0.0514  0.1387 -0.1775
  980TIP3    H124431   5.981   6.743  16.415 -0.7646  0.8741  0.0339
  980TIP3    H224432   5.848   6.690  16.464  0.0842 -1.2465  0.1591
  981TIP3   OH224433   1.321   2.042   0.938 -0.0453 -0.1627 -0.4466
  981TIP3    H124434   1.313   1.978   0.867  0.7887 -0.2761 -0.4489
  981TIP3    H224435   1.302   1.992   1.018 -0.3392 -0.1906 -0.5361
  982TIP3   OH224436   2.617   6.743   6.239  0.3767  0.3652  0.4897
  982TIP3    H124437   2.526   6.748   6.267 -0.4581 -0.7577 -1.7471
  982TIP3    H224438   2.628   6.819   6.181  0.8072  0.3590  0.5587
  983TIP3   OH224439   4.762   5.109   2.979 -0.1717 -0.9915 -0.2555
  983TIP3    H124440   4.804   5.110   3.064  1.5352 -0.6753 -1.0551
  983TIP3    H224441   4.670   5.087   2.997 -0.3397  1.0962  1.8162
  984TIP3   OH224442   0.799   6.398   3.268 -0.5393  0.0305  0.1330
  984TIP3    H124443   0.840   6.472   3.312  0.0971  0.1302 -0.6169
  984TIP3    H224444   0.712   6.430   3.243  0.0170  0.7874 -0.8751
  985TIP3   OH224445   4.508   4.235  12.863  0.7533  0.1794 -0.5489
  985TIP3    H124446   4.546   4.288  12.933  2.2930 -0.0574 -1.1782
  985TIP3    H224447   4.516   4.290  12.784 -0.2221  0.1168 -0.7048
  986TIP3   OH224448   5.357   3.532  13.555 -0.2634 -0.0122  0.5257
  986TIP3    H124449   5.263   3.515  13.548 -0.4420  1.4134 -1.0387
  986TIP3    H224450   5.398   3.465  13.500 -0.5270  0.6184 -0.4600
  987TIP3   OH224451   3.861   4.207   3.352 -0.6056  0.1186  0.1692
  987TIP3    H124452   3.878   4.134   3.411  1.0173 -0.9476 -1.4812
  987TIP3    H224453   3.779   4.245   3.383  0.3391 -0.1251  3.2666
  988TIP3   OH224454   3.931   4.905   3.717  0.2046 -0.0221  0.1617
  988TIP3    H124455   3.873   4.848   3.769 -0.9437  0.3293 -0.6871
  988TIP3    H224456   4.000   4.847   3.686  0.9486 -0.2307  2.0966
  989TIP3   OH224457   3.157   6.345   4.796 -0.7070  0.1465  0.0851
  989TIP3    H124458   3.093   6.275   4.784 -0.3641 -0.2576  0.5915
  989TIP3    H224459   3.168   6.352   4.891 -0.9105  1.0512  0.0528
  990TIP3   OH224460   3.067   6.051  12.037  0.3173 -0.7263 -0.0427
  990TIP3    H124461   3.091   5.958  12.038  1.3511 -0.4653 -0.2108
  990TIP3    H224462   3.090   6.081  11.949 -1.9347 -0.7825 -0.7177
  991TIP3   OH224463   0.940   4.069   5.683 -0.3457 -0.2090 -1.2149
  991TIP3    H124464   0.921   4.044   5.592 -1.8192 -1.5828 -0.5624
  991TIP3    H224465   0.958   3.986   5.727  1.6241  0.5504 -0.4893
  992TIP3   OH224466   0.165   2.893  14.218 -0.2852 -0.1408 -0.1793
  992TIP3    H124467   0.217   2.840  14.159  0.9066 -0.0209  0.7414
  992TIP3    H224468   0.199   2.982  14.207 -0.7045  0.0453 -0.0116
  993TIP3   OH224469   5.493   5.370  10.923 -0.3421 -0.6388  0.1240
  993TIP3    H124470   5.564   5.343  10.866 -0.5168 -1.0353  0.0934
  993TIP3    H224471   5.482   5.464  10.905  0.0765 -0.6076  0.0303
  994TIP3   OH224472   3.297   4.754  12.459 -0.0783 -0.2887  0.0583
  994TIP3    H124473   3.371   4.717  12.506 -1.0608 -3.0212 -0.3521
  994TIP3    H224474   3.239   4.788  12.527 -0.1880 -1.6322  0.6616
  995TIP3   OH224475   5.255   5.385   0.679  0.1534  0.7241  0.4486
  995TIP3    H124476   5.275   5.470   0.640 -0.0375  0.1076 -1.1090
  995TIP3    H224477   5.194   5.405   0.750 -0.7245  1.8266 -0.5478
  996TIP3   OH224478   2.178   1.180   3.527  0.2583 -0.3266 -0.2125
  996TIP3    H124479   2.096   1.145   3.561  1.1086 -1.5804  0.6488
  996TIP3    H224480   2.238   1.105   3.528  0.8058 -0.0660 -3.0285
  997TIP3   OH224481   2.697   2.657  13.295 -0.1722 -0.1278 -0.0845
  997TIP3    H124482   2.746   2.590  13.343 -0.2607  0.7600  1.2926
  997TIP3    H224483   2.605   2.637  13.313 -0.1710  1.2498  1.6352
  998TIP3   OH224484   1.452   4.327  16.938 -0.2059  0.5453  0.3277
  998TIP3    H124485   1.405   4.249  16.966  1.1233  0.2474  1.9279
  998TIP3    H224486   1.465   4.316  16.844 -0.0790 -1.1347  0.5159
  999TIP3   OH224487   2.995   6.308  12.660  0.4162 -0.0753 -0.9278
  999TIP3    H124488   3.003   6.388  12.608  0.7166  0.1281 -0.5729
  999TIP3    H224489   3.052   6.323  12.736  0.1321 -0.4467 -0.6380
 1000TIP3   OH224490   1.434   6.584  13.376 -0.0260  0.4815 -0.0655
 1000TIP3    H124491   1.375   6.659  13.381  0.9524  1.3337 -0.8616
 1000TIP3    H224492   1.490   6.602  13.300 -0.4082 -1.5276 -0.8940
 1001TIP3   OH224493   0.108   1.999  13.751 -0.2707  0.1397  1.3275
 1001TIP3    H124494   0.108   1.911  13.713  0.9275  1.0285 -0.9141
 1001TIP3    H224495   0.186   2.001  13.807  0.4843  0.1770  0.2960
 1002TIP3   OH224496   1.785   4.591  11.986  0.2501 -0.2099  0.9096
 1002TIP3    H124497   1.796   4.507  12.031  1.1413  0.4148  1.9341
 1002TIP3    H224498   1.822   4.577  11.899  0.7506 -0.7775  1.2074
 1003TIP3   OH224499   3.573   0.411  13.004 -0.1866  0.0820  0.0669
 1003TIP3    H124500   3.665   0.436  12.998  0.5677 -2.3498  0.5299
 1003TIP3    H224501   3.550   0.429  13.096  0.4093 -1.0245  0.4532
 1004TIP3   OH224502   3.076   0.850  17.007  0.0072 -0.5685  0.7872
 1004TIP3    H124503   3.090   0.879  16.917 -0.9579 -3.3625 -0.3763
 1004TIP3    H224504   3.157   0.873  17.052  1.5962 -1.4083 -1.4472
 1005TIP3   OH224505   0.255   0.579   4.326  0.1243 -0.2938 -0.0399
 1005TIP3    H124506   0.245   0.487   4.350 -0.9066 -0.3165 -0.4946
 1005TIP3    H224507   0.173   0.620   4.351  0.6074  0.5351  0.2377
 1006TIP3   OH224508   1.595   2.176   5.274  0.7200  0.0221  0.0849
 1006TIP3    H124509   1.535   2.154   5.345  1.2322 -2.6352 -0.2012
 1006TIP3    H224510   1.661   2.233   5.314  0.9320 -1.3202  1.7434
 1007TIP3   OH224511   0.574   3.249   5.491  0.4431  0.0613 -0.3066
 1007TIP3    H124512   0.648   3.310   5.484  1.0087 -0.4324  0.9205
 1007TIP3    H224513   0.518   3.287   5.559  0.1988 -0.1749 -0.3738
 1008TIP3   OH224514   5.083   4.772   2.756 -0.7490 -0.4297  0.0954
 1008TIP3    H124515   5.170   4.766   2.716 -0.0180  1.6292  1.2151
 1008TIP3    H224516   5.080   4.861   2.792 -2.3351 -1.3225  2.3308
 1009TIP3   OH224517   3.534   4.759  16.411 -0.0348  0.2345  0.0555
 1009TIP3    H124518   3.497   4.799  16.332 -1.7724 -3.1124 -1.0218
 1009TIP3    H224519   3.514   4.821  16.481 -0.6054  2.2067 -1.7591
 1010TIP3   OH224520   0.920   0.039   4.404  0.4499  0.1108 -0.3698
 1010TIP3    H124521   0.854   0.048   4.473  1.0199  0.3712  0.1482
 1010TIP3    H224522   0.885   0.089   4.330  0.0577  0.2252 -0.1042
 1011TIP3   OH224523   3.606   3.215  16.722  0.1031 -0.3630  0.3790
 1011TIP3    H124524   3.547   3.244  16.791  1.2350 -2.7501  2.5277
 1011TIP3    H224525   3.564   3.136  16.687  1.4716 -1.4986  1.2302
 1012TIP3   OH224526   3.174   5.428   1.408  0.8640  0.2229 -0.1627
 1012TIP3    H124527   3.214   5.497   1.460  0.8684  0.2879 -0.2520
 1012TIP3    H224528   3.092   5.408   1.454  0.4115  0.9295 -0.6385
 1013TIP3   OH224529   3.880   1.772   5.917  0.0170  0.0970 -0.1570
 1013TIP3    H124530   3.953   1.818   5.957 -0.9307 -0.7646  2.7910
 1013TIP3    H224531   3.907   1.680   5.915 -0.9949 -0.2567  1.1364
 1014TIP3   OH224532   3.905   6.676   4.996  0.0183 -0.1007  0.4895
 1014TIP3    H124533   3.865   6.632   5.071 -1.1579  1.8486  1.0913
 1014TIP3    H224534   3.959   6.745   5.034 -1.2725  1.4842 -0.3714
 1015TIP3   OH224535   5.918   5.088  12.145 -0.0588 -0.0326  0.0292
 1015TIP3    H124536   5.864   5.043  12.210  1.5536 -1.3818  0.4925
 1015TIP3    H224537   5.923   5.027  12.071  0.4869  0.2622 -0.1843
 1016TIP3   OH224538   2.857   5.980  13.202  0.2118  0.3795  0.2103
 1016TIP3    H124539   2.905   6.050  13.159 -0.2281  0.8570  0.4809
 1016TIP3    H224540   2.895   5.974  13.289  1.6257 -1.1075 -0.4593
 1017TIP3   OH224541   3.226   5.377  16.218  0.0256  0.4856  0.2213
 1017TIP3    H124542   3.175   5.440  16.168  0.1868 -1.2509 -2.3478
 1017TIP3    H224543   3.185   5.293  16.199  1.7204 -0.5549  0.9334
 1018TIP3   OH224544   6.251   0.334  11.108  0.0582  0.2474  0.0969
 1018TIP3    H124545   6.316   0.345  11.040 -0.8493 -1.0932 -1.0510
 1018TIP3    H224546   6.167   0.344  11.063 -0.5517  1.0109  1.3514
 1019TIP3   OH224547   6.171   0.974   6.019  0.1505 -0.5191 -0.1401
 1019TIP3    H124548   6.219   0.905   6.063  0.8358 -0.8109 -1.3000
 1019TIP3    H224549   6.167   1.045   6.082  0.7688 -1.0558  0.5157
 1020TIP3   OH224550   5.999   6.057  16.778  0.0394  0.3182  0.5448
 1020TIP3    H124551   5.950   5.983  16.815  0.7132 -0.4635 -0.0908
 1020TIP3    H224552   6.090   6.031  16.784  0.1801  0.0213 -1.9005
 1021TIP3   OH224553   0.136   3.223  17.269  0.0980 -0.2804  0.2766
 1021TIP3    H124554   0.129   3.147  17.327  0.2224  1.2924  2.4976
 1021TIP3    H224555   0.109   3.297  17.324 -1.0584  1.1774 -2.1002
 1022TIP3   OH224556   6.005   4.251  12.700  0.1902  0.3151  0.1885
 1022TIP3    H124557   6.069   4.278  12.634  0.6628  0.2717  0.6248
 1022TIP3    H224558   6.028   4.301  12.778 -0.8309  0.9244  0.1110
 1023TIP3   OH224559   3.252   4.086  15.076 -0.3077 -0.4470 -0.8854
 1023TIP3    H124560   3.296   4.008  15.110  1.0737  0.3316 -0.8095
 1023TIP3    H224561   3.170   4.090  15.125  0.8524 -0.3056  1.1820
 1024TIP3   OH224562   1.661   5.559  10.345 -0.5851  0.1808  0.4816
 1024TIP3    H124563   1.702   5.477  10.374 -0.8977  1.3329  5.0135
 1024TIP3    H224564   1.732   5.623  10.346 -0.7860  0.4378 -0.7618
 1025TIP3   OH224565   4.362   0.227   1.332  0.2827  0.4253 -0.1321
 1025TIP3    H124566   4.454   0.206   1.321 -0.0201  0.0396 -2.1971
 1025TIP3    H224567   4.315   0.161   1.281 -1.1912  0.2920  1.2801
 1026TIP3   OH224568   2.832   5.391   2.254  0.5960 -0.6764 -0.0803
 1026TIP3    H124569   2.899   5.388   2.185  0.7743  1.5692 -0.0901
 1026TIP3    H224570   2.798   5.481   2.250 -1.9972 -1.5574  0.3561
 1027TIP3   OH224571   0.913   6.130  14.095  0.4669 -0.3306 -0.6253
 1027TIP3    H124572   1.001   6.110  14.126 -0.0642 -0.4388  0.9023
 1027TIP3    H224573   0.855   6.093  14.162 -0.6969  0.9443 -0.8914
 1028TIP3   OH224574   0.719   0.150  16.785 -0.2108 -0.2056 -0.1729
 1028TIP3    H124575   0.784   0.218  16.767 -0.9739  0.6755  0.3522
 1028TIP3    H224576   0.720   0.141  16.881 -0.5023 -0.5433 -0.2027
 1029TIP3   OH224577   4.657   6.469  15.868 -0.4288 -0.4409  0.3386
 1029TIP3    H124578   4.620   6.472  15.780 -2.6475  0.8526  1.2343
 1029TIP3    H224579   4.716   6.544  15.872 -1.2648  0.2404  0.2943
 1030TIP3   OH224580   1.800   4.079  17.188 -0.1087  0.4987  0.3063
 1030TIP3    H124581   1.839   4.029  17.260  1.0697 -1.0550 -1.3358
 1030TIP3    H224582   1.868   4.140  17.161 -0.4075  0.8002  0.2208
 1031TIP3   OH224583   0.657   3.868   0.187 -1.1754  0.1259 -0.7329
 1031TIP3    H124584   0.659   3.789   0.241  0.5532  0.8472  0.3579
 1031TIP3    H224585   0.739   3.913   0.207 -1.2356  1.2767 -2.7449
 1032TIP3   OH224586   3.656   3.545  13.338  0.1610  0.4911  0.0691
 1032TIP3    H124587   3.646   3.458  13.377  0.6700 -0.8323 -2.5036
 1032TIP3    H224588   3.705   3.595  13.404  2.6656 -2.1470  0.4567
 1033TIP3   OH224589   3.594   2.893   0.978  0.3117  0.3029  0.0836
 1033TIP3    H124590   3.586   2.983   1.012  0.9891 -0.2149  1.7319
 1033TIP3    H224591   3.642   2.846   1.047  0.6429 -1.1431 -1.0926
 1034TIP3   OH224592   1.181   2.277  14.576  0.0069 -0.6413  0.8342
 1034TIP3    H124593   1.109   2.289  14.515  0.5639 -0.1279  0.2603
 1034TIP3    H224594   1.153   2.320  14.656 -1.0442 -1.9703  1.2170
 1035TIP3   OH224595   0.589   4.138   0.512 -0.2848 -0.3909 -0.4170
 1035TIP3    H124596   0.576   4.182   0.597 -1.0215  0.4663 -0.9570
 1035TIP3    H224597   0.569   4.205   0.447  3.3798 -0.0400 -1.3752
 1036TIP3   OH224598   5.074   5.920  13.977  0.3365  0.4791  0.1751
 1036TIP3    H124599   5.091   6.003  14.023 -1.7803 -0.1781  2.3845
 1036TIP3    H224600   5.004   5.941  13.916  1.9345  0.9488 -1.5719
 1037TIP3   OH224601   2.675   6.461   2.766 -0.5291 -0.7025 -0.1352
 1037TIP3    H124602   2.634   6.456   2.680 -1.2419 -2.1026  0.2566
 1037TIP3    H224603   2.611   6.509   2.820  0.5501  1.4768 -0.6972
 1038TIP3   OH224604   0.349   3.081  15.462  0.4400  0.1003 -0.0571
 1038TIP3    H124605   0.264   3.049  15.492  0.3414  0.1097 -0.3246
 1038TIP3    H224606   0.335   3.107  15.371  1.0940 -1.3326 -0.5908
 1039TIP3   OH224607   2.348   3.425  14.674 -0.2016  0.6184 -0.0595
 1039TIP3    H124608   2.366   3.463  14.760  0.5415 -1.0341  0.5703
 1039TIP3    H224609   2.259   3.391  14.680 -0.5322  1.4271 -0.3123
 1040TIP3   OH224610   0.367   2.826   0.643 -0.2695  0.2981  0.2426
 1040TIP3    H124611   0.428   2.898   0.626 -0.7677  0.4275 -1.1956
 1040TIP3    H224612   0.347   2.832   0.736  1.4877  0.5754  0.6348
 1041TIP3   OH224613   4.797   4.989   0.352 -0.9576 -0.2351  0.0712
 1041TIP3    H124614   4.881   4.968   0.393 -0.8898 -0.8098 -0.3540
 1041TIP3    H224615   4.807   4.961   0.261 -0.3348  2.9256 -0.9892
 1042TIP3   OH224616   6.473   5.741  14.663 -0.5981  0.2797 -0.1885
 1042TIP3    H124617   6.418   5.796  14.607  0.4339  1.9769  0.3952
 1042TIP3    H224618   6.558   5.741  14.620 -0.3822 -0.2525  0.2350
 1043TIP3   OH224619   0.127   1.383  13.920 -0.0119  0.7073 -0.1283
 1043TIP3    H124620   0.078   1.415  13.844 -0.8589  0.4984  0.3186
 1043TIP3    H224621   0.161   1.298  13.892  1.2592  1.4515 -0.9131
 1044TIP3   OH224622   1.000   5.417  16.403 -0.1628  0.2434  0.1132
 1044TIP3    H124623   1.086   5.418  16.446  0.4673  2.0373 -1.0298
 1044TIP3    H224624   0.965   5.330  16.420  2.7793 -1.3077 -1.0841
 1045TIP3   OH224625   0.797   0.410  12.013  0.0260  0.1275  0.4725
 1045TIP3    H124626   0.763   0.385  11.927  1.6918 -1.1134  0.1303
 1045TIP3    H224627   0.806   0.506  12.008 -0.2534  0.1122 -0.5872
 1046TIP3   OH224628   1.014   1.490   6.053 -0.6542  0.1369  0.1226
 1046TIP3    H124629   0.960   1.411   6.051 -0.3936 -0.0578  0.6814
 1046TIP3    H224630   1.104   1.458   6.062 -0.6109  0.5063  1.1747
 1047TIP3   OH224631   5.510   5.480  11.392 -0.6461 -0.2446 -0.0385
 1047TIP3    H124632   5.417   5.498  11.382 -0.4972  0.6643  0.0925
 1047TIP3    H224633   5.551   5.522  11.316 -0.2237  0.5159  0.5919
 1048TIP3   OH224634   4.646   4.613  11.681  0.6682  0.1564 -0.4637
 1048TIP3    H124635   4.588   4.688  11.689 -0.0515 -0.4905  0.7375
 1048TIP3    H224636   4.732   4.646  11.706  0.4742  0.7098 -0.5161
 1049TIP3   OH224637   5.267   2.531  16.131 -0.2144  0.2999  0.7328
 1049TIP3    H124638   5.317   2.550  16.051  1.9525  0.9139  2.1514
 1049TIP3    H224639   5.231   2.444  16.116 -0.2819  0.5858 -1.0842
 1050TIP3   OH224640   5.138   5.479  15.245  0.6063  0.2281 -0.0534
 1050TIP3    H124641   5.060   5.441  15.207 -0.2103  0.5173  1.2587
 1050TIP3    H224642   5.185   5.518  15.172 -0.2478 -0.3393 -0.9193
 1051TIP3   OH224643   0.092   6.536   4.032  0.7318  0.0883  0.0314
 1051TIP3    H124644   0.006   6.577   4.030  0.4225 -0.4870  0.8080
 1051TIP3    H224645   0.075   6.444   4.012  1.0497 -0.1925  0.9820
 1052TIP3   OH224646   5.106   3.175  11.377 -0.0223  0.0197  0.3490
 1052TIP3    H124647   5.138   3.257  11.415  0.2887  0.1643 -0.2149
 1052TIP3    H224648   5.048   3.203  11.306 -1.1710 -0.2405  1.1398
 1053TIP3   OH224649   4.390   1.664  12.032 -0.0883 -0.3250  0.3619
 1053TIP3    H124650   4.364   1.628  12.117 -0.1849 -2.1433 -0.3922
 1053TIP3    H224651   4.327   1.627  11.970  1.1224 -0.6038 -0.7528
 1054TIP3   OH224652   4.288   0.866  13.331 -0.5330 -0.0946  0.2376
 1054TIP3    H124653   4.242   0.796  13.285 -0.0401 -0.6750  0.6240
 1054TIP3    H224654   4.380   0.841  13.328 -0.5060 -0.3233  1.8030
 1055TIP3   OH224655   3.317   5.786   2.621  0.0219 -0.0603 -0.3315
 1055TIP3    H124656   3.280   5.699   2.633  1.3334 -0.9239 -2.0441
 1055TIP3    H224657   3.365   5.803   2.702 -3.1529  0.6923  1.5241
 1056TIP3   OH224658   2.833   2.471  13.445  0.9922 -0.3315  0.2501
 1056TIP3    H124659   2.870   2.482  13.533  2.0287 -0.1754 -0.2010
 1056TIP3    H224660   2.779   2.392  13.452 -1.1360  1.1153  1.7440
 1057TIP3   OH224661   1.575   6.126   1.097  0.1049 -0.3157 -0.0909
 1057TIP3    H124662   1.489   6.168   1.096  0.9844  1.5702 -0.6388
 1057TIP3    H224663   1.616   6.155   1.015  1.3922 -0.9130  0.3262
 1058TIP3   OH224664   0.384   2.408  16.849 -0.0886  0.3174 -0.0039
 1058TIP3    H124665   0.387   2.319  16.812  0.7913  0.3326  0.0038
 1058TIP3    H224666   0.336   2.460  16.785 -1.8093 -0.4339  0.6033
 1059TIP3   OH224667   2.995   1.318   0.459 -0.6549 -0.2620 -0.0170
 1059TIP3    H124668   2.972   1.366   0.538 -0.4971 -0.4606  0.1518
 1059TIP3    H224669   2.941   1.357   0.390 -0.2084  0.4494  0.0298
 1060TIP3   OH224670   0.380   3.623   1.818  0.2585 -0.0610 -0.4971
 1060TIP3    H124671   0.394   3.630   1.724 -2.0921 -5.3467 -1.5962
 1060TIP3    H224672   0.435   3.550   1.845 -3.0641 -2.2980  0.8984
 1061TIP3   OH224673   5.589   5.095  11.905  0.3592  0.0762 -0.1874
 1061TIP3    H124674   5.562   5.162  11.968  2.8533 -1.1992  2.4641
 1061TIP3    H224675   5.680   5.117  11.884  1.1861 -2.2427  0.5965
 1062TIP3   OH224676   4.586   2.232  12.826 -0.2130 -0.4688  0.2103
 1062TIP3    H124677   4.552   2.247  12.915  1.1254 -1.5829  0.9559
 1062TIP3    H224678   4.619   2.317  12.799 -0.6151 -0.1146  0.8018
 1063TIP3   OH224679   3.591   4.994   1.868 -0.0064  0.1964  0.4215
 1063TIP3    H124680   3.591   4.970   1.961  1.2913  1.5500  0.8099
 1063TIP3    H224681   3.553   4.919   1.824 -0.2208 -0.6702  2.0079
 1064TIP3   OH224682   3.469   6.089  15.934 -0.6213 -0.1807 -0.3290
 1064TIP3    H124683   3.424   6.089  15.850  0.0007  2.6534 -0.7594
 1064TIP3    H224684   3.485   5.996  15.953 -0.9747 -0.9150 -3.1966
 1065TIP3   OH224685   4.791   4.976  13.824 -0.3111 -0.5367  0.0250
 1065TIP3    H124686   4.885   4.961  13.829 -0.5267 -1.5969  1.1646
 1065TIP3    H224687   4.762   4.986  13.915 -1.5152 -1.6701 -0.1984
 1066TIP3   OH224688   5.360   1.554  17.216  0.2019 -0.1162  0.3797
 1066TIP3    H124689   5.347   1.642  17.251 -1.3749 -0.5977  1.0851
 1066TIP3    H224690   5.310   1.553  17.134 -0.9433 -0.7527  1.0653
 1067TIP3   OH224691   5.480   3.669   2.865 -0.2487 -0.0949  0.4123
 1067TIP3    H124692   5.426   3.624   2.800 -0.8800 -0.4875  1.1878
 1067TIP3    H224693   5.434   3.751   2.880  0.0078  0.0846  0.2178
 1068TIP3   OH224694   4.253   1.821  16.685 -0.5015  0.6287  0.6926
 1068TIP3    H124695   4.173   1.778  16.717  0.2623  0.5525  2.6090
 1068TIP3    H224696   4.321   1.795  16.747  0.6203  2.2591  0.2152
 1069TIP3   OH224697   2.405   5.502   5.434 -0.2793 -0.0366  0.1190
 1069TIP3    H124698   2.310   5.511   5.435 -0.4904 -1.6892 -0.9270
 1069TIP3    H224699   2.420   5.412   5.462  0.9649  0.0986 -0.0865
 1070TIP3   OH224700   6.564   1.368  13.375 -0.9321 -0.3143 -0.4226
 1070TIP3    H124701   6.570   1.461  13.394  0.4698 -0.0537 -1.8605
 1070TIP3    H224702   6.518   1.330  13.450  0.9780  1.1116  1.5921
 1071TIP3   OH224703   0.449   3.125   1.866 -0.0877 -0.6817  0.4345
 1071TIP3    H124704   0.510   3.099   1.936  0.3828  0.7081  0.5730
 1071TIP3    H224705   0.376   3.063   1.874  1.3603 -2.5505  0.1300
 1072TIP3   OH224706   2.604   4.077  11.422 -0.2308  0.1461  0.4811
 1072TIP3    H124707   2.531   4.109  11.369  0.2206  1.7421  0.7553
 1072TIP3    H224708   2.598   4.128  11.503 -0.1089 -1.2921  1.4140
 1073TIP3   OH224709   4.572   1.761   6.028 -0.4819  0.3958  0.0214
 1073TIP3    H124710   4.562   1.856   6.037  0.6173  0.4576  0.7929
 1073TIP3    H224711   4.659   1.743   6.062 -0.0314 -0.7032 -1.6171
 1074TIP3   OH224712   2.129   5.226   5.591  0.1318  0.1334  0.3109
 1074TIP3    H124713   2.190   5.300   5.594 -0.6994  0.8207  0.6991
 1074TIP3    H224714   2.047   5.264   5.559 -0.2902 -0.6276  0.4779
 1075TIP3   OH224715   5.047   6.764  16.176  0.0514 -0.0268 -0.2080
 1075TIP3    H124716   5.018   6.845  16.218  1.2477  0.7016 -0.7314
 1075TIP3    H224717   5.107   6.724  16.238  0.4942  0.1814 -0.4925
 1076TIP3   OH224718   5.484   5.338  15.281 -0.0617  0.0873  0.4761
 1076TIP3    H124719   5.576   5.358  15.268  0.5283 -2.0358  0.9200
 1076TIP3    H224720   5.484   5.262  15.340 -1.9416 -1.8014 -1.7342
 1077TIP3   OH224721   6.709   1.986  14.351 -0.5984 -0.3831  0.2010
 1077TIP3    H124722   6.751   1.910  14.309 -0.7975 -1.6716  2.2221
 1077TIP3    H224723   6.773   2.017  14.415 -1.2555 -0.0227  0.6999
 1078TIP3   OH224724   3.131   2.520  15.491 -0.0783  0.2131  0.0321
 1078TIP3    H124725   3.052   2.473  15.467 -0.0198  0.4949 -0.7231
 1078TIP3    H224726   3.112   2.558  15.577 -1.7575  2.5133 -1.2550
 1079TIP3   OH224727   5.681   0.745   2.803  0.3121 -0.4308 -0.0459
 1079TIP3    H124728   5.691   0.693   2.882  1.1942  0.9887  0.8219
 1079TIP3    H224729   5.688   0.836   2.832 -0.9285  0.1923 -1.5387
 1080TIP3   OH224730   4.926   5.500  16.040 -0.3889 -0.4852 -0.0506
 1080TIP3    H124731   4.943   5.511  15.947  0.0670  0.4526  0.1240
 1080TIP3    H224732   5.004   5.456  16.074  0.0591  0.4060  0.1071
 1081TIP3   OH224733   2.342   2.199  16.435 -0.2725 -0.4618 -0.2444
 1081TIP3    H124734   2.392   2.127  16.397  1.1624  0.6295 -0.5066
 1081TIP3    H224735   2.366   2.198  16.528 -0.4416 -0.4688 -0.2007
 1082TIP3   OH224736   5.035   5.608   4.052 -0.2335  0.0445  0.3496
 1082TIP3    H124737   5.018   5.697   4.082  0.4439  1.9419 -4.0917
 1082TIP3    H224738   4.970   5.593   3.983  2.5014 -0.9545 -2.2045
 1083TIP3   OH224739   4.850   5.394   0.924 -0.3769 -0.0043 -0.2161
 1083TIP3    H124740   4.771   5.369   0.875 -0.2005  0.4628 -0.7506
 1083TIP3    H224741   4.868   5.319   0.980 -1.0485 -0.2257 -0.2841
 1084TIP3   OH224742   1.816   5.486  12.608 -0.2041  0.4878  0.1223
 1084TIP3    H124743   1.822   5.467  12.702 -2.2264  1.4177  0.4942
 1084TIP3    H224744   1.824   5.400  12.566  1.6653  0.1509  1.0349
 1085TIP3   OH224745   4.941   4.088   4.641  0.1641 -0.0406 -0.3493
 1085TIP3    H124746   4.874   4.020   4.631  0.6263 -0.2782 -2.2918
 1085TIP3    H224747   4.916   4.154   4.576  1.0248  0.5287 -0.1054
 1086TIP3   OH224748   4.590   2.592   2.702 -0.5307 -0.5471 -0.4906
 1086TIP3    H124749   4.539   2.562   2.777  0.7332 -0.3976  0.4462
 1086TIP3    H224750   4.654   2.652   2.738  3.0462 -3.7481 -0.9197
 1087TIP3   OH224751   3.207   5.757   1.297  0.0761  0.3312  0.5972
 1087TIP3    H124752   3.186   5.729   1.386  0.5120 -1.6579  0.1354
 1087TIP3    H224753   3.289   5.804   1.306  1.1159 -1.4586  1.0905
 1088TIP3   OH224754   0.965   6.324  16.925  0.1366 -0.7320  0.1001
 1088TIP3    H124755   0.909   6.399  16.941  1.4375  0.1205  0.7940
 1088TIP3    H224756   1.041   6.360  16.879  0.1118 -1.8760 -0.9073
 1089TIP3   OH224757   5.064   1.451  15.583  0.6641 -0.0175 -0.3338
 1089TIP3    H124758   5.060   1.476  15.490  0.8002 -0.3130 -0.4193
 1089TIP3    H224759   4.994   1.387  15.593 -0.3387  1.1089  0.1108
 1090TIP3   OH224760   5.208   1.717   1.574  0.6210 -0.3931  0.1828
 1090TIP3    H124761   5.243   1.742   1.659  0.6473  1.4869 -0.3334
 1090TIP3    H224762   5.123   1.760   1.568 -0.7964 -2.9391  0.4218
 1091TIP3   OH224763   3.437   0.081  17.201  0.1007  0.4376  0.4224
 1091TIP3    H124764   3.413   0.154  17.258  1.9215  0.0894  1.7042
 1091TIP3    H224765   3.532   0.075  17.208  0.1123 -1.3034 -0.6223
 1092TIP3   OH224766   0.738   2.259  15.625 -0.2211  0.0213  0.4770
 1092TIP3    H124767   0.718   2.204  15.549 -0.6316 -0.9129  1.2415
 1092TIP3    H224768   0.822   2.300  15.603  0.4843 -1.5093  0.1919
 1093TIP3   OH224769   2.036   6.511   1.597  0.7034 -0.2968 -0.3278
 1093TIP3    H124770   2.033   6.514   1.692 -0.4837 -2.3726 -0.2555
 1093TIP3    H224771   2.116   6.464   1.576  2.3312  2.3433 -0.5097
 1094TIP3   OH224772   4.689   5.777   5.241  0.6553 -0.1539  0.5669
 1094TIP3    H124773   4.735   5.697   5.269 -0.9389 -0.7963  1.4925
 1094TIP3    H224774   4.648   5.753   5.157  1.8298  0.3663 -0.1773
 1095TIP3   OH224775   4.117   2.987  15.653  0.0917 -0.4321 -0.1271
 1095TIP3    H124776   4.197   3.015  15.698  0.1083 -0.9652  0.1811
 1095TIP3    H224777   4.135   2.898  15.624 -0.7202 -0.9140  0.7800
 1096TIP3   OH224778   2.804   0.541   3.958  0.6123 -0.2816  0.3850
 1096TIP3    H124779   2.891   0.507   3.981  1.0775 -0.8655 -1.9320
 1096TIP3    H224780   2.791   0.512   3.868 -2.1637 -0.4940  0.7796
 1097TIP3   OH224781   1.640   6.504   3.408  0.0926 -0.4810  0.3040
 1097TIP3    H124782   1.597   6.582   3.443 -0.2519 -0.4516 -0.1831
 1097TIP3    H224783   1.632   6.512   3.313  0.4023 -0.9149  0.2372
 1098TIP3   OH224784   5.033   3.173   2.726 -0.1000 -0.3880 -0.3114
 1098TIP3    H124785   5.056   3.210   2.812 -0.1839 -1.2506  0.1020
 1098TIP3    H224786   5.110   3.189   2.672 -0.0030  0.0777 -0.0385
 1099TIP3   OH224787   1.569   1.137   0.908  0.0742  0.4884 -0.4338
 1099TIP3    H124788   1.509   1.065   0.888  1.5420 -0.4466 -1.6885
 1099TIP3    H224789   1.518   1.216   0.894 -1.8522 -0.2467  1.7821
 1100TIP3   OH224790   4.303   6.028  11.714  0.1720 -0.0261 -0.6382
 1100TIP3    H124791   4.238   6.048  11.782  0.2580 -3.6362  0.7351
 1100TIP3    H224792   4.282   6.088  11.643 -1.9805  1.7910  1.3389
 1101TIP3   OH224793   1.244   1.267  11.084  0.0166  0.2702  0.4365
 1101TIP3    H124794   1.252   1.360  11.061  1.5824  0.5992  2.0646
 1101TIP3    H224795   1.295   1.258  11.165  1.0554 -2.3104 -0.4103
 1102TIP3   OH224796   2.882   4.989   9.756  0.2801  0.2645 -0.0917
 1102TIP3    H124797   2.806   4.946   9.796  0.2657  1.0880  0.7871
 1102TIP3    H224798   2.868   4.980   9.662  0.1350 -1.3952  0.0630
 1103TIP3   OH224799   2.216   6.635  14.814  0.7052 -0.3849  0.1759
 1103TIP3    H124800   2.238   6.727  14.829  1.1906 -0.3831 -0.5413
 1103TIP3    H224801   2.144   6.638  14.751 -1.2532 -0.4030  2.2745
 1104TIP3   OH224802   5.977   2.251   0.407  0.4077 -0.4662 -0.3335
 1104TIP3    H124803   5.939   2.257   0.495  0.0892  5.0655 -0.4790
 1104TIP3    H224804   6.070   2.232   0.423  0.1318 -0.7242  1.1306
 1105TIP3   OH224805   3.509   4.979  14.631 -0.3287 -0.6370  0.3369
 1105TIP3    H124806   3.424   4.949  14.597 -1.0072  1.0404  0.4647
 1105TIP3    H224807   3.487   5.029  14.709  0.5887  1.3218 -0.5937
 1106TIP3   OH224808   2.503   0.020  12.216  0.3125 -0.4939 -0.2386
 1106TIP3    H124809   2.505  -0.072  12.188 -1.3733 -0.8643  0.7056
 1106TIP3    H224810   2.501   0.015  12.312  1.2039  0.5892 -0.1434
 1107TIP3   OH224811   5.256   6.370   4.630 -0.1425  0.0653  0.3375
 1107TIP3    H124812   5.331   6.398   4.577 -0.0680  0.8852  0.8530
 1107TIP3    H224813   5.183   6.422   4.597  0.0551  1.1359  1.4936
 1108TIP3   OH224814   5.139   5.946   2.700  0.2804 -0.3180  0.3646
 1108TIP3    H124815   5.070   5.957   2.766 -1.4038  0.4903 -1.4230
 1108TIP3    H224816   5.205   6.011   2.724  0.3451 -0.9282  1.9771
 1109TIP3   OH224817   0.545   6.816   0.196  0.4496 -0.1954 -0.0829
 1109TIP3    H124818   0.476   6.790   0.258 -0.2407  1.6617  0.0062
 1109TIP3    H224819   0.607   6.864   0.250  1.9630 -1.9927 -0.1345
 1110TIP3   OH224820   0.215   4.828   4.582 -0.1978 -0.2448 -0.4244
 1110TIP3    H124821   0.175   4.910   4.553  0.5207  0.4546  0.5012
 1110TIP3    H224822   0.205   4.769   4.507  0.2940  1.0446 -1.5435
 1111TIP3   OH224823   4.834   1.387  12.508 -0.4317  0.1848  0.6214
 1111TIP3    H124824   4.773   1.389  12.435  0.4218  0.0728 -0.1084
 1111TIP3    H224825   4.845   1.479  12.533 -0.6531  0.2291  0.5579
 1112TIP3   OH224826   0.345   2.069   1.679 -0.5976  0.2569 -0.0475
 1112TIP3    H124827   0.322   1.989   1.632  0.2138 -0.3538  0.5636
 1112TIP3    H224828   0.296   2.062   1.762  0.7847 -0.4618  0.7391
 1113TIP3   OH224829   4.690   6.667   5.071  0.2005  0.0109 -0.4794
 1113TIP3    H124830   4.690   6.576   5.040  1.4188  0.1050 -0.8456
 1113TIP3    H224831   4.783   6.691   5.070  0.0466  0.7560  1.1477
 1114TIP3   OH224832   4.885   5.258   4.979 -0.0243  0.0600 -0.6853
 1114TIP3    H124833   4.922   5.217   4.901  1.4484  1.1707 -0.6198
 1114TIP3    H224834   4.954   5.251   5.045 -1.8725 -2.5336  1.2095
 1115TIP3   OH224835   0.442   5.515   1.620  0.0962  0.1003 -0.4898
 1115TIP3    H124836   0.347   5.526   1.617  0.0521  0.2009  0.7967
 1115TIP3    H224837   0.477   5.588   1.569 -0.5073  0.3477 -0.5547
 1116TIP3   OH224838   3.539   4.256  13.791 -1.1011 -0.2107  0.2359
 1116TIP3    H124839   3.519   4.167  13.763 -0.8303 -0.2006 -0.0043
 1116TIP3    H224840   3.465   4.282  13.845  0.1370 -1.6484  2.7917
 1117TIP3   OH224841   4.903   6.675   4.056  0.0901 -0.3437  0.8380
 1117TIP3    H124842   4.843   6.715   3.992  0.3441 -0.6600  0.4014
 1117TIP3    H224843   4.986   6.666   4.009 -0.4369 -3.1366  0.2828
 1118TIP3   OH224844   2.522   5.584  13.420 -0.2796 -1.0647 -0.4536
 1118TIP3    H124845   2.546   5.675  13.438  0.1625 -1.1183 -0.7551
 1118TIP3    H224846   2.427   5.583  13.423 -0.3997 -0.1274 -2.6307
 1119TIP3   OH224847   0.647   3.794   5.778  0.4936  0.1679  0.2309
 1119TIP3    H124848   0.654   3.876   5.827  1.3199 -0.7384  1.6745
 1119TIP3    H224849   0.643   3.726   5.845  2.5031 -1.1927 -0.9411
 1120TIP3   OH224850   4.467   6.691   0.628 -0.0818 -0.0712 -0.0910
 1120TIP3    H124851   4.406   6.746   0.580 -0.2800 -1.7561 -1.9433
 1120TIP3    H224852   4.413   6.642   0.690 -0.2985 -0.0483 -0.2624
 1121TIP3   OH224853   2.352   0.191   4.450 -0.0490 -0.1022 -0.2784
 1121TIP3    H124854   2.280   0.130   4.463 -0.8936 -0.1918 -4.2584
 1121TIP3    H224855   2.318   0.257   4.389  2.2653  1.7492  0.2691
 1122TIP3   OH224856   2.312   4.741   3.543 -0.0879  0.2584 -0.1770
 1122TIP3    H124857   2.247   4.809   3.526 -1.5969 -0.8540  0.8679
 1122TIP3    H224858   2.313   4.733   3.638  0.2171 -1.0238 -0.2756
 1123TIP3   OH224859   3.974   5.870   6.053  0.5082  0.3057 -0.3553
 1123TIP3    H124860   4.063   5.896   6.031  0.9653 -0.1171  0.8868
 1123TIP3    H224861   3.920   5.946   6.032  1.1583  0.5688 -1.1075
 1124TIP3   OH224862   5.738   1.255  10.573  0.0816  0.3387 -0.1206
 1124TIP3    H124863   5.806   1.317  10.599 -1.4137  1.4449  1.4032
 1124TIP3    H224864   5.677   1.255  10.647 -1.4632 -0.7503 -1.3399
 1125TIP3   OH224865   4.863   6.352  14.215  0.2386 -0.6690 -0.3669
 1125TIP3    H124866   4.828   6.301  14.142  1.9686 -0.4511 -1.4158
 1125TIP3    H224867   4.844   6.300  14.293 -0.2146 -1.6962 -1.1442
 1126TIP3   OH224868   1.644   1.468  15.672 -0.4604 -0.2130  0.2186
 1126TIP3    H124869   1.622   1.453  15.580  0.1601 -0.8690  0.1634
 1126TIP3    H224870   1.597   1.400  15.719  1.5016 -1.7857  0.0768
 1127TIP3   OH224871   4.957   2.687   5.561  0.5171 -0.4016  0.0702
 1127TIP3    H124872   4.999   2.607   5.592 -0.3268 -0.1593  2.0169
 1127TIP3    H224873   5.022   2.756   5.575  1.0927 -0.6575 -1.2199
 1128TIP3   OH224874   1.907   4.965  14.280 -0.2105  0.1066 -0.3814
 1128TIP3    H124875   1.969   4.895  14.259  0.3940 -1.1619  4.3970
 1128TIP3    H224876   1.821   4.924  14.276  0.0813 -0.8023  1.5930
 1129TIP3   OH224877   2.367   3.624   0.280  0.3998  0.1692  0.3119
 1129TIP3    H124878   2.359   3.703   0.334  0.9690 -0.4905  1.4018
 1129TIP3    H224879   2.407   3.559   0.338 -0.6490 -1.1289 -0.3678
 1130TIP3   OH224880   5.796   2.302  11.109 -0.6247 -0.0132  0.3033
 1130TIP3    H124881   5.783   2.219  11.064  0.0131  0.6718 -1.2032
 1130TIP3    H224882   5.883   2.294  11.149 -0.5999 -0.0963  0.2311
 1131TIP3   OH224883   3.726   3.368   4.365 -0.0940  0.1319 -0.1982
 1131TIP3    H124884   3.761   3.364   4.454 -0.3986  1.3690 -0.0041
 1131TIP3    H224885   3.800   3.395   4.310  0.5023 -2.1273 -0.6054
 1132TIP3   OH224886   3.141   5.032   5.586  0.0978 -0.2701 -0.0028
 1132TIP3    H124887   3.051   5.003   5.602  0.0923 -0.2808 -0.0537
 1132TIP3    H224888   3.132   5.121   5.551  0.1001 -0.3250 -0.1434
 1133TIP3   OH224889   1.343   3.888  17.057 -0.1341 -0.3681  0.6146
 1133TIP3    H124890   1.318   3.973  17.093  0.4125  0.5363 -1.0183
 1133TIP3    H224891   1.436   3.879  17.078 -0.4360 -1.0923  1.7279
 1134TIP3   OH224892   4.438   2.771  13.818 -0.3477 -0.3372 -0.0791
 1134TIP3    H124893   4.420   2.808  13.904  0.1826  0.2154 -0.2008
 1134TIP3    H224894   4.373   2.811  13.761 -1.0531 -1.1176  0.1520
 1135TIP3   OH224895   1.080   2.614  14.049  0.1102  0.4295 -0.1410
 1135TIP3    H124896   1.047   2.618  14.139 -0.3066  0.1913 -0.2779
 1135TIP3    H224897   1.003   2.632  13.994  0.0794 -0.6688 -0.4819
 1136TIP3   OH224898   0.782   4.371  15.958  0.3607  0.3667  0.1828
 1136TIP3    H124899   0.694   4.393  15.929 -0.0654  2.3242  2.5768
 1136TIP3    H224900   0.826   4.455  15.969  1.6096 -0.4118  1.6218
 1137TIP3   OH224901   5.626   5.651  12.756  0.5241 -0.4253  0.1811
 1137TIP3    H124902   5.587   5.739  12.758 -0.4621 -0.7950  3.2636
 1137TIP3    H224903   5.718   5.665  12.776  0.4853 -0.0368  0.0987
 1138TIP3   OH224904   6.554   3.740  11.429 -0.2362 -0.2724  0.9016
 1138TIP3    H124905   6.573   3.716  11.520 -1.8194 -0.8821  1.1070
 1138TIP3    H224906   6.573   3.834  11.424 -0.8485 -0.0722  2.0742
 1139TIP3   OH224907   2.777   4.932   1.444  0.0482 -0.4866  0.3932
 1139TIP3    H124908   2.803   4.894   1.527  3.3757  1.5714  0.4941
 1139TIP3    H224909   2.851   4.988   1.419 -1.6076  0.4706 -3.0199
 1140TIP3   OH224910   4.544   0.408  13.902  0.3243 -0.2200  0.0408
 1140TIP3    H124911   4.469   0.464  13.885  2.1821  2.9637  1.4658
 1140TIP3    H224912   4.563   0.421  13.995  1.2807 -2.7847  0.2852
 1141TIP3   OH224913   6.130   0.985  12.283 -0.0030 -0.3471 -0.5511
 1141TIP3    H124914   6.183   0.912  12.315  0.4121  0.0285 -0.3704
 1141TIP3    H224915   6.090   0.953  12.202 -1.4579 -1.4950  0.5568
 1142TIP3   OH224916   6.478   3.726  17.143 -0.4256  0.3544  0.2062
 1142TIP3    H124917   6.422   3.748  17.217 -1.0607  1.9898 -0.7069
 1142TIP3    H224918   6.444   3.643  17.111 -0.4866 -0.0949  1.3901
 1143TIP3   OH224919   5.323   4.559  16.498 -0.4915  0.2526  0.6027
 1143TIP3    H124920   5.237   4.602  16.496 -0.4495  0.3277 -0.2750
 1143TIP3    H224921   5.375   4.612  16.558 -0.9722  0.3776  0.9190
 1144TIP3   OH224922   6.802   0.066  17.196  0.6181 -0.0704 -0.1134
 1144TIP3    H124923   6.735   0.115  17.243  2.1390  2.7208 -0.6207
 1144TIP3    H224924   6.753   0.013  17.133 -1.2099 -0.6731  1.6927
 1145TIP3   OH224925   2.798   6.554  12.253 -0.2653 -0.0896 -0.1051
 1145TIP3    H124926   2.858   6.628  12.259 -0.2220 -0.0903 -0.4947
 1145TIP3    H224927   2.746   6.572  12.174  0.5345 -1.0503 -0.8776
 1146TIP3   OH224928   5.524   3.935  14.504 -0.6288  0.6613  0.1446
 1146TIP3    H124929   5.525   3.867  14.572 -0.7520  0.3864 -0.1273
 1146TIP3    H224930   5.514   4.017  14.553  0.0496  0.5342  0.5119
 1147TIP3   OH224931   0.352   2.551   2.441  0.2686 -0.1345 -0.1062
 1147TIP3    H124932   0.284   2.604   2.398  0.2202 -0.5244 -0.5166
 1147TIP3    H224933   0.371   2.598   2.522 -2.0878 -1.1744  1.1565
 1148TIP3   OH224934   3.836   1.816  14.759  0.0349  0.3039  0.2638
 1148TIP3    H124935   3.888   1.766  14.695  0.7501 -0.0943  1.1408
 1148TIP3    H224936   3.870   1.789  14.844  0.2556  2.0719  0.7806
 1149TIP3   OH224937   3.531   3.696   1.592 -0.0372 -0.0090  0.5349
 1149TIP3    H124938   3.601   3.640   1.626  0.9271  1.1462  0.5271
 1149TIP3    H224939   3.472   3.709   1.666 -0.5965 -1.4484  0.3916
 1150TIP3   OH224940   5.169   1.947   2.325 -0.1419  0.0479 -0.1763
 1150TIP3    H124941   5.172   1.873   2.387  0.3102  0.4816  0.3384
 1150TIP3    H224942   5.227   1.920   2.254 -1.6588 -1.0047 -1.0746
 1151TIP3   OH224943   6.712   4.592  14.545  0.1514 -0.2648 -0.3149
 1151TIP3    H124944   6.733   4.530  14.476  0.6051 -0.0104 -0.4137
 1151TIP3    H224945   6.777   4.662  14.535  0.1362 -0.1578  0.2812
 1152TIP3   OH224946   1.225   0.203  17.022 -0.4368  0.2484  0.4370
 1152TIP3    H124947   1.201   0.264  17.092 -0.7100  0.3910  0.2198
 1152TIP3    H224948   1.309   0.167  17.049  0.0122  1.1599  0.2911
 1153TIP3   OH224949   5.702   2.880   5.779 -0.0784 -0.9396  0.2238
 1153TIP3    H124950   5.782   2.866   5.829  0.1638 -0.7689 -0.1131
 1153TIP3    H224951   5.640   2.918   5.842  0.6467  0.5366  0.0822
 1154TIP3   OH224952   4.325   0.663  16.626 -0.4642  0.3245  0.3703
 1154TIP3    H124953   4.410   0.634  16.661 -1.2086 -1.4037  0.8738
 1154TIP3    H224954   4.324   0.758  16.640  0.9399  0.2249  1.3476
 1155TIP3   OH224955   2.436   5.872   5.018  0.2638 -0.1544  0.0106
 1155TIP3    H124956   2.420   5.893   4.926  1.1041 -0.8815 -0.3180
 1155TIP3    H224957   2.452   5.957   5.059 -0.5180  0.2157 -0.4159
 1156TIP3   OH224958   6.749   3.018   5.241  0.0901  0.1906  0.4592
 1156TIP3    H124959   6.786   2.981   5.161 -0.0218 -0.7643  0.8448
 1156TIP3    H224960   6.780   3.109   5.242 -0.2171  0.3358 -0.8649
 1157TIP3   OH224961   6.565   5.688   0.821 -0.1334  0.2908  0.0670
 1157TIP3    H124962   6.535   5.737   0.898  0.0289  0.2052  0.1863
 1157TIP3    H224963   6.545   5.744   0.747  0.5082  0.7675  0.2384
 1158TIP3   OH224964   3.070   5.554  16.038  0.0639  0.5156  0.1619
 1158TIP3    H124965   3.044   5.524  15.951  2.9927 -2.2409  0.0477
 1158TIP3    H224966   3.104   5.643  16.023  0.8341 -0.0282 -1.6429
 1159TIP3   OH224967   6.155   4.068   0.599 -0.3384 -0.3859 -0.4807
 1159TIP3    H124968   6.136   3.975   0.609 -0.0983 -0.5092 -1.0854
 1159TIP3    H224969   6.246   4.071   0.568 -0.7364 -0.0206 -1.6592
 1160TIP3   OH224970   6.260   6.522  15.521  0.2944  0.5588 -0.0351
 1160TIP3    H124971   6.178   6.508  15.473  1.2655 -0.8359 -1.4161
 1160TIP3    H224972   6.251   6.609  15.560 -1.6023  0.6673 -0.5999
 1161TIP3   OH224973   1.929   5.819  14.326 -0.2591  0.2364 -0.0538
 1161TIP3    H124974   2.016   5.838  14.360  0.0845  0.8456 -1.2166
 1161TIP3    H224975   1.940   5.738  14.275 -0.0930  0.9363 -1.1660
 1162TIP3   OH224976   1.728   4.360   4.146 -0.1325  0.2167  0.0791
 1162TIP3    H124977   1.689   4.296   4.087 -0.4803 -0.1060  0.6509
 1162TIP3    H224978   1.809   4.387   4.102 -0.1528 -0.3582 -0.3267
 1163TIP3   OH224979   0.593   4.347  16.930 -0.0550  0.3228 -0.2809
 1163TIP3    H124980   0.511   4.301  16.949  1.0200 -1.9552 -0.8208
 1163TIP3    H224981   0.574   4.398  16.852 -0.5617 -1.4469 -1.3750
 1164TIP3   OH224982   3.337   4.333   5.559 -0.5983 -0.1953  0.2591
 1164TIP3    H124983   3.388   4.279   5.619 -0.6470  2.9404  3.4522
 1164TIP3    H224984   3.402   4.376   5.504 -0.1361  0.3521  1.2134
 1165TIP3   OH224985   4.494   6.244  11.760 -0.6004 -0.3183 -0.0705
 1165TIP3    H124986   4.416   6.188  11.760 -2.2432  1.8153  0.9951
 1165TIP3    H224987   4.461   6.331  11.735  1.4080  0.7056  0.5901
 1166TIP3   OH224988   2.094   1.612  15.036 -0.5351  0.0756  0.8259
 1166TIP3    H124989   2.179   1.638  14.999 -0.8547  2.3064  1.4792
 1166TIP3    H224990   2.059   1.548  14.975  1.3288 -0.3834  0.1956
 1167TIP3   OH224991   5.711   3.009   3.451  0.1305  0.4763 -0.2341
 1167TIP3    H124992   5.702   2.916   3.428 -1.0229  0.5333 -0.0429
 1167TIP3    H224993   5.623   3.044   3.445  0.8717  2.1300 -2.5517
 1168TIP3   OH224994   5.067   3.233   2.342  0.2835  0.5278 -0.1006
 1168TIP3    H124995   5.076   3.138   2.335  1.6208  0.4331  2.0210
 1168TIP3    H224996   5.110   3.268   2.264  0.4988 -0.5767 -0.4867
 1169TIP3   OH224997   0.130   6.241   6.109 -0.4847 -0.1863  0.1117
 1169TIP3    H124998   0.201   6.205   6.055 -0.2592  0.1106  0.2036
 1169TIP3    H224999   0.054   6.241   6.051 -0.1596  0.4692 -0.3403
 1170TIP3   OH225000   4.218   4.843   0.870  0.3957 -0.0554  0.1975
 1170TIP3    H125001   4.278   4.786   0.916 -0.6276 -0.5500  0.9483
 1170TIP3    H225002   4.272   4.917   0.841  1.2910 -0.3403  1.1118
 1171TIP3   OH225003   0.544   1.611  13.639  0.0849  0.1970 -0.4946
 1171TIP3    H125004   0.559   1.527  13.595 -0.8161 -0.6505  0.7215
 1171TIP3    H225005   0.506   1.586  13.724 -0.6750  1.8552 -0.3156
 1172TIP3   OH225006   3.902   0.548  16.600  0.0901  0.6747  0.4859
 1172TIP3    H125007   3.851   0.558  16.520  1.8307 -1.4265 -1.0031
 1172TIP3    H225008   3.942   0.634  16.614  0.6524  0.7961 -1.5769
 1173TIP3   OH225009   1.327   4.100  15.399 -0.6578 -0.3801  0.0948
 1173TIP3    H125010   1.363   4.185  15.376 -0.9756 -0.9035 -2.6511
 1173TIP3    H225011   1.232   4.114  15.401 -0.6690 -0.4926  0.5471
 1174TIP3   OH225012   2.462   5.060   0.549 -0.2513  0.0740  0.0935
 1174TIP3    H125013   2.517   5.021   0.481 -1.1449 -4.9415  1.7989
 1174TIP3    H225014   2.376   5.070   0.508 -0.3702 -1.3338 -0.0407
 1175TIP3   OH225015   5.797   4.082   0.708 -0.0793  0.2557  0.0524
 1175TIP3    H125016   5.807   4.177   0.718 -1.6850  0.4889 -0.4052
 1175TIP3    H225017   5.758   4.053   0.791  1.2747 -0.1769  0.5721
 1176TIP3   OH225018   3.692   4.017  13.409 -0.1749  0.1522  0.0432
 1176TIP3    H125019   3.657   4.085  13.466  1.0966  1.1506 -0.3299
 1176TIP3    H225020   3.724   4.064  13.332  1.8371 -0.7119  0.3048
 1177TIP3   OH225021   0.937   1.636   6.274  0.2713  0.1434  0.0608
 1177TIP3    H125022   0.964   1.599   6.190  0.7301 -0.8515  0.6349
 1177TIP3    H225023   1.009   1.616   6.334  0.1565  1.2441  0.5941
 1178TIP3   OH225024   4.552   5.915   4.711  0.1458 -0.0183  0.1979
 1178TIP3    H125025   4.511   5.829   4.707 -1.3600  0.6939 -0.1711
 1178TIP3    H225026   4.479   5.977   4.717  1.1905  1.2475  0.3876
 1179TIP3   OH225027   4.449   1.892   1.296 -0.1570  0.2936 -0.3218
 1179TIP3    H125028   4.508   1.819   1.316  0.8944  1.0072 -0.7026
 1179TIP3    H225029   4.460   1.907   1.202 -1.0076  0.3924 -0.4116
 1180TIP3   OH225030   5.585   0.087  13.807  0.6659  0.9569 -0.3553
 1180TIP3    H125031   5.598   0.175  13.774  0.4184  1.3241  0.5020
 1180TIP3    H225032   5.530   0.098  13.885  2.0155  0.2335  0.7557
 1181TIP3   OH225033   5.132   0.335   2.186  0.3229  0.9858 -0.4405
 1181TIP3    H125034   5.076   0.360   2.113 -0.2148 -0.8087 -0.7063
 1181TIP3    H225035   5.072   0.331   2.261 -0.1705 -1.7578 -0.8894
 1182TIP3   OH225036   5.190   5.524   5.008 -0.7116 -0.1701 -0.7820
 1182TIP3    H125037   5.138   5.476   4.944 -0.8779 -1.1056  0.0313
 1182TIP3    H225038   5.218   5.603   4.962 -1.9870 -0.1488 -1.5665
 1183TIP3   OH225039   5.394   5.527   1.947  0.2021 -0.1985  0.2405
 1183TIP3    H125040   5.489   5.529   1.962  0.2472 -0.5359  0.0143
 1183TIP3    H225041   5.372   5.434   1.950 -0.1194 -0.1216  0.2683
 1184TIP3   OH225042   4.388   3.061   4.301 -0.3979  0.1110 -0.4842
 1184TIP3    H125043   4.296   3.045   4.278  0.1378 -0.4081 -2.4494
 1184TIP3    H225044   4.425   2.974   4.314  0.3345  0.1310 -2.0871
 1185TIP3   OH225045   2.301   4.847  14.124 -0.2488 -0.2559  0.1561
 1185TIP3    H125046   2.308   4.938  14.096 -0.5358 -0.3048 -0.0764
 1185TIP3    H225047   2.349   4.797  14.058 -0.8768 -0.3639 -0.2294
 1186TIP3   OH225048   6.319   6.748  15.635 -0.4463 -0.7435  0.3559
 1186TIP3    H125049   6.346   6.755  15.726 -0.8334  0.3391  0.3957
 1186TIP3    H225050   6.352   6.827  15.593  1.1441 -1.9535 -0.8385
 1187TIP3   OH225051   0.834   1.842   5.878 -0.3698 -0.2074 -0.1800
 1187TIP3    H125052   0.891   1.918   5.872  0.2540 -0.6733 -0.1772
 1187TIP3    H225053   0.780   1.858   5.956 -1.6987  1.2100 -1.3281
 1188TIP3   OH225054   4.162   3.047   0.033  0.4742 -0.3463  0.1629
 1188TIP3    H125055   4.187   3.030  -0.058  0.3830  0.4558 -0.0171
 1188TIP3    H225056   4.135   3.139   0.034 -1.0536 -0.7574  0.6544
 1189TIP3   OH225057   0.589   3.416  13.707 -0.1357 -0.0325 -0.2636
 1189TIP3    H125058   0.651   3.467  13.655  1.9966 -1.9298  0.2551
 1189TIP3    H225059   0.577   3.467  13.787  3.6195 -1.1130  1.1926
 1190TIP3   OH225060   6.666   0.068   2.570 -0.3683  0.4756 -0.3503
 1190TIP3    H125061   6.605   0.079   2.497 -0.1449 -0.8425 -0.7601
 1190TIP3    H225062   6.746   0.111   2.541 -0.2362 -0.1534 -0.9529
 1191TIP3   OH225063   4.416   3.474   3.172  0.0421  0.2019 -0.3970
 1191TIP3    H125064   4.490   3.417   3.194  1.1539  2.6496  3.4524
 1191TIP3    H225065   4.338   3.420   3.186  1.0279 -0.6037  2.9362
 1192TIP3   OH225066   4.629   2.830  14.929 -0.4357 -0.0420  0.0061
 1192TIP3    H125067   4.606   2.791  14.844  0.0439 -2.3460  0.8686
 1192TIP3    H225068   4.555   2.809  14.986  0.1619 -0.3431  0.6882
 1193TIP3   OH225069   6.794   0.965  12.553  0.3217  0.3517  0.0076
 1193TIP3    H125070   6.778   1.041  12.609 -0.6237  0.3800 -0.2791
 1193TIP3    H225071   6.854   0.996  12.486  0.7289  0.5653  0.4601
 1194TIP3   OH225072   4.443   0.509  13.153 -0.2072  0.0998  0.2537
 1194TIP3    H125073   4.522   0.549  13.189 -1.0850  1.0790  1.1820
 1194TIP3    H225074   4.403   0.464  13.228  0.3149 -1.8259 -0.5810
 1195TIP3   OH225075   5.702   6.223  11.259  0.0059 -0.0257 -0.0064
 1195TIP3    H125076   5.617   6.258  11.232  0.0981  0.3462  0.1727
 1195TIP3    H225077   5.753   6.300  11.284  1.0630 -0.0487 -1.8933
 1196TIP3   OH225078   3.801   5.329   1.632 -0.1100  0.0330  0.4250
 1196TIP3    H125079   3.825   5.387   1.704  0.4037 -0.1766  0.4277
 1196TIP3    H225080   3.818   5.241   1.666 -0.7337 -0.1129  0.3659
 1197TIP3   OH225081   4.668   4.454   1.741 -0.2150  0.1349  0.2301
 1197TIP3    H125082   4.700   4.482   1.827  0.8540  0.1993 -0.1684
 1197TIP3    H225083   4.734   4.487   1.680 -0.2330 -1.1003 -0.4795
 1198TIP3   OH225084   0.399   0.430   0.513 -0.3677  0.5831  0.1725
 1198TIP3    H125085   0.452   0.489   0.567  0.5505  0.0198 -0.0817
 1198TIP3    H225086   0.319   0.479   0.495 -1.0656  0.5133  2.6713
 1199TIP3   OH225087   0.973   0.862  13.733 -0.3141 -0.7469  0.3433
 1199TIP3    H125088   0.879   0.878  13.745 -0.3883 -1.8946  1.4726
 1199TIP3    H225089   1.008   0.858  13.822  1.3346  2.3688 -0.0250
 1200TIP3   OH225090   2.203   0.130   0.581  0.8954 -0.2215 -0.3633
 1200TIP3    H125091   2.133   0.146   0.517  1.1005 -0.4975 -0.6630
 1200TIP3    H225092   2.231   0.218   0.607  0.1747 -0.1032  0.0597
 1201TIP3   OH225093   2.204   5.723  16.503 -0.4905 -0.3898  0.1913
 1201TIP3    H125094   2.198   5.630  16.480  0.7572 -0.6570  0.9131
 1201TIP3    H225095   2.235   5.724  16.593 -1.3262  0.7274  0.4850
 1202TIP3   OH225096   3.524   1.403  12.118  0.5707 -0.3310  0.0756
 1202TIP3    H125097   3.556   1.325  12.073  0.8357  0.6348 -1.5119
 1202TIP3    H225098   3.431   1.407  12.096  0.2767 -0.8418  1.1728
 1203TIP3   OH225099   0.638   3.244   0.825  0.4688  0.4962  0.2177
 1203TIP3    H125100   0.673   3.333   0.820  1.2557  0.1901  0.0226
 1203TIP3    H225101   0.716   3.188   0.834  0.0747 -0.2608 -0.8701
 1204TIP3   OH225102   0.661   0.042  15.231  0.3161  0.0194  0.2152
 1204TIP3    H125103   0.597  -0.029  15.223  0.6251 -0.1068 -1.3731
 1204TIP3    H225104   0.608   0.122  15.225  0.2046 -0.0871 -0.3146
 1205TIP3   OH225105   3.929   3.312  11.815  0.6359 -0.3635 -0.0418
 1205TIP3    H125106   3.974   3.392  11.790  1.5320 -0.3460  1.4894
 1205TIP3    H225107   3.915   3.265  11.733  0.3472  1.2196 -0.9188
 1206TIP3   OH225108   4.513   2.163  12.414 -0.3858  0.2912 -0.2449
 1206TIP3    H125109   4.590   2.120  12.452 -0.2997  0.2085 -0.5085
 1206TIP3    H225110   4.545   2.249  12.386 -0.8384  1.0456  1.4012
 1207TIP3   OH225111   4.317   0.952  16.643 -0.6045 -0.2456 -0.4558
 1207TIP3    H125112   4.251   1.011  16.608  0.8786  1.3727 -0.6391
 1207TIP3    H225113   4.400   0.987  16.612  0.4443 -1.4324  0.8700
 1208TIP3   OH225114   0.269   3.137  17.053  0.4033  0.3814 -0.3264
 1208TIP3    H125115   0.252   3.152  17.146 -1.8498  1.2711 -0.8127
 1208TIP3    H225116   0.308   3.050  17.049 -0.4221 -0.0987  1.3675
 1209TIP3   OH225117   1.117   5.064  12.490 -0.2528 -0.1903 -0.3474
 1209TIP3    H125118   1.131   5.158  12.480 -2.2963  0.0373 -1.6983
 1209TIP3    H225119   1.043   5.058  12.551 -0.0193 -0.9321 -0.1276
 1210TIP3   OH225120   2.020   5.547  10.599  0.3631 -0.7004  0.4317
 1210TIP3    H125121   1.953   5.525  10.535 -0.4984  0.0332  1.0480
 1210TIP3    H225122   2.098   5.566  10.548 -0.4597  0.4354 -0.4462
 1211TIP3   OH225123   0.580   3.691  16.505 -0.0304 -0.0864  0.2711
 1211TIP3    H125124   0.640   3.618  16.522 -0.2148 -0.4777 -0.7046
 1211TIP3    H225125   0.495   3.659  16.536 -0.4205 -0.9038 -1.5092
 1212TIP3   OH225126   6.615   1.210   1.631 -0.4452 -0.1007  0.3333
 1212TIP3    H125127   6.623   1.192   1.724 -1.3495 -2.3764  0.0230
 1212TIP3    H225128   6.704   1.197   1.597 -0.6980 -2.3740  0.4320
 1213TIP3   OH225129   5.789   6.014  15.818  0.0474 -0.0367 -0.6810
 1213TIP3    H125130   5.707   5.972  15.793 -0.2489  0.9949 -1.5017
 1213TIP3    H225131   5.856   5.949  15.798 -0.4895 -0.5655 -0.8028
 1214TIP3   OH225132   6.410   3.237  15.214 -0.4628  0.0706 -0.3993
 1214TIP3    H125133   6.450   3.263  15.131 -0.1816  1.0104  0.0097
 1214TIP3    H225134   6.433   3.308  15.274 -0.1763 -0.8666  0.6313
 1215TIP3   OH225135   2.200   1.612   2.595  0.1543  0.0636  0.5940
 1215TIP3    H125136   2.276   1.659   2.562 -0.3081  1.8178  1.9208
 1215TIP3    H225137   2.151   1.586   2.516  1.2746  0.3208 -0.2058
 1216TIP3   OH225138   3.073   4.609   3.887 -0.4725  0.1899  0.1086
 1216TIP3    H125139   3.041   4.523   3.914 -2.5874  0.2761 -1.8743
 1216TIP3    H225140   2.997   4.667   3.897 -0.3744  0.9082 -2.5674
 1217TIP3   OH225141   4.154   5.338   1.462  0.5684 -0.3539 -0.0263
 1217TIP3    H125142   4.155   5.355   1.556 -0.8783 -2.2434  0.4006
 1217TIP3    H225143   4.161   5.243   1.455 -2.5951 -0.5987 -1.6127
 1218TIP3   OH225144   6.069   2.210  16.510 -0.1540 -0.3901  0.0647
 1218TIP3    H125145   6.014   2.231  16.435 -0.1496  0.1100  0.2006
 1218TIP3    H225146   6.124   2.287  16.521  0.0701 -0.5947  0.3830
 1219TIP3   OH225147   6.246   0.928  11.188 -0.4143  0.4920 -0.5753
 1219TIP3    H125148   6.295   1.005  11.157 -1.2031  2.6940  2.9962
 1219TIP3    H225149   6.313   0.865  11.212  0.3900  1.0740 -1.2295
 1220TIP3   OH225150   0.276   3.316  11.846 -0.0122 -0.2933 -0.1468
 1220TIP3    H125151   0.333   3.293  11.919  0.3306 -0.8638 -0.5901
 1220TIP3    H225152   0.188   3.313  11.883  0.3120  2.9018  1.1667
 1221TIP3   OH225153   4.670   4.707  15.470  0.6670 -0.1792 -0.1622
 1221TIP3    H125154   4.628   4.743  15.392  0.1273 -0.0508  0.1834
 1221TIP3    H225155   4.626   4.750  15.543  1.2170 -0.2454  0.2164
 1222TIP3   OH225156   4.845   6.182   1.980 -0.1394 -0.3060 -0.3087
 1222TIP3    H125157   4.871   6.136   2.060 -1.8480 -0.2634  0.3108
 1222TIP3    H225158   4.859   6.119   1.910  0.0864 -0.8222  0.1978
 1223TIP3   OH225159   6.190   0.187   1.330 -0.0555  0.1441 -0.0007
 1223TIP3    H125160   6.263   0.242   1.358  0.4860 -0.9459  0.7810
 1223TIP3    H225161   6.230   0.118   1.277 -1.0409  2.1779 -3.7720
 1224TIP3   OH225162   5.716   0.158  17.110  0.2539  0.4337 -0.2290
 1224TIP3    H125163   5.659   0.119  17.044  0.4198 -2.2620  1.0721
 1224TIP3    H225164   5.662   0.225  17.152 -0.8015  0.2317 -1.2237
 1225TIP3   OH225165   1.234   6.743  15.937 -0.0790 -0.0306  0.3318
 1225TIP3    H125166   1.181   6.710  16.009  0.4982  0.7549  1.1368
 1225TIP3    H225167   1.311   6.685  15.936 -1.3920 -1.9057 -1.5703
 1226TIP3   OH225168   4.551   5.432   0.871 -0.2531  0.1906 -0.3255
 1226TIP3    H125169   4.557   5.473   0.957 -0.8741 -1.2632  0.4410
 1226TIP3    H225170   4.463   5.455   0.839  0.0090  0.7990 -0.6115
 1227TIP3   OH225171   0.921   1.339  12.382 -0.3757  0.1914 -0.2164
 1227TIP3    H125172   0.848   1.278  12.375  0.4382 -1.2362  2.2451
 1227TIP3    H225173   0.913   1.376  12.470  2.7616 -1.4088  0.9190
 1228TIP3   OH225174   3.031   2.372   4.101 -0.0667  0.6346  0.0188
 1228TIP3    H125175   3.059   2.352   4.011 -0.5680 -0.0915  0.0250
 1228TIP3    H225176   3.109   2.354   4.154 -0.5316 -1.5000  0.0490
 1229TIP3   OH225177   2.712   4.612   3.639 -0.1550 -0.1941 -0.4047
 1229TIP3    H125178   2.679   4.683   3.585 -0.5049  0.1752  0.2858
 1229TIP3    H225179   2.697   4.533   3.587  1.0344  0.3082 -1.5443
 1230TIP3   OH225180   4.642   0.195  17.031 -0.0479 -0.4568 -0.3982
 1230TIP3    H125181   4.555   0.163  17.010  0.6995 -2.7750 -0.1968
 1230TIP3    H225182   4.648   0.190  17.126 -0.3957  1.7828 -0.1932
 1231TIP3   OH225183   0.887   1.134  10.900  0.6988  0.5691 -0.1235
 1231TIP3    H125184   0.895   1.071  10.828  1.2690  1.2834 -0.6996
 1231TIP3    H225185   0.936   1.210  10.870  1.7003  0.5536  1.3889
 1232TIP3   OH225186   1.935   1.991  16.893  0.2446 -0.0991  0.1579
 1232TIP3    H125187   1.871   1.961  16.828 -0.0419  0.9194 -0.0576
 1232TIP3    H225188   1.987   2.057  16.846 -0.9984  1.8327  1.3793
 1233TIP3   OH225189   4.796   6.315   6.777  0.7483 -0.3415  0.3007
 1233TIP3    H125190   4.856   6.282   6.710  0.9666  0.0309  0.3122
 1233TIP3    H225191   4.745   6.382   6.733  0.3674 -0.6252  0.3040
 1234TIP3   OH225192   3.442   2.634  10.650 -0.3097  0.1055 -0.3520
 1234TIP3    H125193   3.402   2.605  10.732 -1.2911  0.5364 -0.6667
 1234TIP3    H225194   3.456   2.728  10.661  0.5502 -0.0249 -0.2806
 1235TIP3   OH225195   0.668   2.903  16.576 -0.2219 -0.6019 -0.2268
 1235TIP3    H125196   0.575   2.905  16.599 -0.3222 -0.5238 -0.6302
 1235TIP3    H225197   0.687   2.992  16.546 -0.5068 -1.0788 -1.9903
 1236TIP3   OH225198   2.992   0.410  11.212 -0.3970  0.2006 -0.1261
 1236TIP3    H125199   2.957   0.322  11.224  1.5468 -0.3892  1.7221
 1236TIP3    H225200   3.052   0.403  11.138  0.1493 -0.1707  0.3477
 1237TIP3   OH225201   1.327   4.153   2.783  0.3463 -0.7224  0.0079
 1237TIP3    H125202   1.329   4.127   2.875  1.5985  0.1269  0.2524
 1237TIP3    H225203   1.311   4.248   2.786 -1.4556 -0.9628 -0.7431
 1238TIP3   OH225204   1.414   2.617   2.892 -0.6106  0.1401 -0.3976
 1238TIP3    H125205   1.472   2.662   2.830 -0.1559  1.7224  1.0858
 1238TIP3    H225206   1.467   2.548   2.930 -0.8540 -0.7579 -1.6421
 1239TIP3   OH225207   2.545   6.023  15.838 -0.2972  0.1778 -0.3943
 1239TIP3    H125208   2.453   6.048  15.836 -0.3645 -0.0980 -0.9516
 1239TIP3    H225209   2.582   6.072  15.912 -0.3252  2.3383 -1.7022
 1240TIP3   OH225210   6.278   2.700  10.575 -0.2785 -0.5921 -0.5431
 1240TIP3    H125211   6.297   2.756  10.650  0.6450 -0.6572 -0.7128
 1240TIP3    H225212   6.358   2.648  10.563 -0.7817 -1.2852 -0.9585
 1241TIP3   OH225213   1.277   2.310   5.209 -0.0973 -0.1831  0.1019
 1241TIP3    H125214   1.199   2.263   5.240  0.4675 -0.9865  0.3153
 1241TIP3    H225215   1.332   2.319   5.287 -0.3089  1.0935  0.1300
 1242TIP3   OH225216   3.299   2.309   1.609  0.1557  0.3882  0.0535
 1242TIP3    H125217   3.264   2.388   1.651  1.8850  1.8951 -1.1909
 1242TIP3    H225218   3.253   2.305   1.525  1.0747  0.9172 -0.4916
 1243TIP3   OH225219   1.612   0.307   5.329  0.0074  0.0609 -0.7053
 1243TIP3    H125220   1.635   0.392   5.366  0.2026 -0.0412 -0.5916
 1243TIP3    H225221   1.692   0.255   5.336 -0.8241 -1.0264  1.7304
 1244TIP3   OH225222   5.522   1.794  15.685  0.1877  0.2658 -0.9480
 1244TIP3    H125223   5.488   1.860  15.624 -0.1619 -0.0610 -1.1105
 1244TIP3    H225224   5.444   1.752  15.720  0.2553  2.0652  1.5781
 1245TIP3   OH225225   0.827   3.035  14.167 -0.6798  0.1404  0.2572
 1245TIP3    H125226   0.912   3.000  14.139 -0.0239  0.5391  1.6442
 1245TIP3    H225227   0.841   3.129  14.174 -1.5448  0.3307 -0.4886
 1246TIP3   OH225228   5.488   6.452   4.553 -0.6100  0.1548  0.4377
 1246TIP3    H125229   5.544   6.458   4.630 -1.2477 -0.7016  0.9883
 1246TIP3    H225230   5.486   6.541   4.518 -1.0132  0.7576  1.9170
 1247TIP3   OH225231   4.839   5.162   1.094 -0.2961  0.1697 -0.3057
 1247TIP3    H125232   4.905   5.094   1.106 -0.1652  0.3911  0.2788
 1247TIP3    H225233   4.759   5.125   1.133  0.2982  1.1598  2.0453
 1248TIP3   OH225234   3.469   3.440   4.254 -0.4001 -0.3677 -0.5299
 1248TIP3    H125235   3.436   3.495   4.325 -3.4079 -1.5210 -0.8820
 1248TIP3    H225236   3.557   3.417   4.280 -1.4998 -1.0864  3.0855
 1249TIP3   OH225237   5.145   0.679  15.721  0.0543 -0.0470 -0.0735
 1249TIP3    H125238   5.049   0.689  15.716  0.0226 -0.7224 -1.4704
 1249TIP3    H225239   5.159   0.615  15.790 -0.2212  2.8255  2.9049
 1250TIP3   OH225240   0.706   6.219  12.633  0.3572 -0.1180  0.2617
 1250TIP3    H125241   0.750   6.303  12.617  0.0007  0.2329  1.0608
 1250TIP3    H225242   0.661   6.200  12.550 -0.0111  0.7685  0.2428
 1251TIP3   OH225243   6.791   4.208   1.076 -0.0335  0.6253 -0.1279
 1251TIP3    H125244   6.783   4.114   1.058  0.6967  0.5518 -0.1277
 1251TIP3    H225245   6.867   4.235   1.025 -0.8526  1.4417 -0.9492
 1252TIP3   OH225246   5.051   1.884   4.333  0.7807  0.2699 -0.2818
 1252TIP3    H125247   5.048   1.951   4.401 -0.0746 -0.6444  0.6251
 1252TIP3    H225248   5.102   1.812   4.373  0.7289 -0.0637 -0.8085
 1253TIP3   OH225249   0.757   3.484  11.063  0.4586 -0.0446 -0.2798
 1253TIP3    H125250   0.734   3.517  11.150  1.1249 -0.4828  0.0754
 1253TIP3    H225251   0.694   3.413  11.047  1.1542 -0.8452  0.4283
 1254TIP3   OH225252   6.393   1.565  11.642 -0.1252 -0.2873  0.0547
 1254TIP3    H125253   6.430   1.651  11.663  1.2620 -0.4355 -1.5313
 1254TIP3    H225254   6.446   1.503  11.693  0.7787 -0.3751 -0.9508
 1255TIP3   OH225255   4.596   2.237   5.810 -0.2098 -0.2426  0.0195
 1255TIP3    H125256   4.543   2.158   5.796  1.0298 -1.0184 -0.4382
 1255TIP3    H225257   4.554   2.304   5.755 -0.7144 -0.8326 -0.3319
 1256TIP3   OH225258   5.188   3.784   3.448  0.3991  0.5629 -0.5406
 1256TIP3    H125259   5.159   3.694   3.468 -0.1819  1.3101  2.5859
 1256TIP3    H225260   5.141   3.807   3.368 -2.3030 -0.7149  0.5367
 1257TIP3   OH225261   4.934   0.285   1.989  0.1628 -0.2423  0.4903
 1257TIP3    H125262   4.882   0.296   1.910  1.5022  1.8873 -0.1729
 1257TIP3    H225263   4.977   0.201   1.978  0.3530  0.0385 -1.0714
 1258TIP3   OH225264   3.730   0.112   3.835 -0.2887 -0.6474 -0.6110
 1258TIP3    H125265   3.727   0.200   3.797 -0.5328 -0.8191 -0.9996
 1258TIP3    H225266   3.664   0.114   3.904 -0.8398 -0.7504 -1.1257
 1259TIP3   OH225267   5.046   5.683  10.855 -0.0559  0.3458 -0.0308
 1259TIP3    H125268   5.141   5.683  10.863  0.1098  0.3912 -1.5978
 1259TIP3    H225269   5.016   5.619  10.920  1.0786 -0.0631  0.1151
 1260TIP3   OH225270   0.136   4.981   5.683  0.3453 -0.2726 -0.0922
 1260TIP3    H125271   0.113   4.993   5.592  0.1734 -2.3943 -0.3774
 1260TIP3    H225272   0.071   5.031   5.732 -0.3306 -0.1618 -1.0876
 1261TIP3   OH225273   3.482   0.106  10.458 -0.3536 -0.3627  0.0300
 1261TIP3    H125274   3.562   0.090  10.509 -0.8013 -2.0439  0.2631
 1261TIP3    H225275   3.499   0.189  10.412  2.1804 -1.4093 -1.1480
 1262TIP3   OH225276   6.644   2.588   2.545  0.1792  0.8187 -0.2298
 1262TIP3    H125277   6.669   2.508   2.498 -0.2567  0.6430 -0.1600
 1262TIP3    H225278   6.617   2.558   2.631 -1.3342  0.8801 -0.6532
 1263TIP3   OH225279   6.303   5.279   5.753  0.1948  0.1953 -0.0111
 1263TIP3    H125280   6.315   5.256   5.660 -0.4345 -0.9037  0.1652
 1263TIP3    H225281   6.392   5.296   5.784  0.5747 -0.8256 -0.4739
 1264TIP3   OH225282   5.728   1.997  11.288  0.3087 -0.0043  0.2277
 1264TIP3    H125283   5.764   2.014  11.201  0.3186  1.2404  0.4527
 1264TIP3    H225284   5.805   1.990  11.344  0.2743  1.3840  0.4894
 1265TIP3   OH225285   0.861   2.304  14.871 -0.8263  0.2322 -0.1803
 1265TIP3    H125286   0.889   2.221  14.911  0.8172  1.1172  0.6119
 1265TIP3    H225287   0.811   2.348  14.939  1.1858  1.3318  0.6686
 1266TIP3   OH225288   4.808   0.743  11.489 -0.1295  0.6079  0.1447
 1266TIP3    H125289   4.746   0.751  11.417 -0.1766  0.1019  0.1236
 1266TIP3    H225290   4.894   0.747  11.448 -0.1497 -1.1118 -0.1302
 1267TIP3   OH225291   1.800   1.113  10.775  0.1209 -0.0864 -0.3234
 1267TIP3    H125292   1.708   1.140  10.775  1.1277  3.9342 -0.8530
 1267TIP3    H225293   1.821   1.096  10.867 -1.3648 -2.3384 -0.3230
 1268TIP3   OH225294   2.375   2.673   4.462  0.2029  0.3145  0.2056
 1268TIP3    H125295   2.363   2.765   4.442  1.9858  1.2739  3.0069
 1268TIP3    H225296   2.466   2.665   4.490 -0.5037 -1.7939  2.2826
 1269TIP3   OH225297   6.227   5.575  10.223 -0.4669  0.0445  0.0671
 1269TIP3    H125298   6.140   5.615  10.218 -0.5557 -0.2912 -1.8224
 1269TIP3    H225299   6.275   5.631  10.283 -2.4363 -0.7007  2.5116
 1270TIP3   OH225300   4.993   2.640   4.265  0.1142 -0.6441  0.4041
 1270TIP3    H125301   5.030   2.712   4.316 -0.4301  0.7866 -1.1467
 1270TIP3    H225302   4.964   2.576   4.331 -0.4232  1.0597  1.8814
 1271TIP3   OH225303   1.032   6.487   4.291  0.1682 -0.0090 -0.0317
 1271TIP3    H125304   1.013   6.394   4.284 -0.0820  0.1379 -1.9227
 1271TIP3    H225305   1.004   6.523   4.206  2.6836  1.3407 -0.3688
 1272TIP3   OH225306   2.888   6.226   4.805  0.6434  0.3820  0.2190
 1272TIP3    H125307   2.805   6.209   4.760  1.4613 -2.3324 -0.4049
 1272TIP3    H225308   2.863   6.242   4.896 -0.5422 -1.4927  0.2741
 1273TIP3   OH225309   6.244   3.617  15.365  0.0359 -0.4405 -0.7308
 1273TIP3    H125310   6.175   3.574  15.415  0.1033 -0.1920 -0.4262
 1273TIP3    H225311   6.320   3.619  15.423 -0.1185  0.5597 -0.5398
 1274TIP3   OH225312   4.178   5.070  13.283 -0.3603 -0.3523 -0.5260
 1274TIP3    H125313   4.200   5.077  13.376 -3.3842 -1.4760  0.3784
 1274TIP3    H225314   4.165   4.976  13.269 -1.7350 -0.0259 -1.5920
 1275TIP3   OH225315   0.420   2.066   2.637 -0.6806 -0.2357  0.6380
 1275TIP3    H125316   0.366   2.044   2.713 -1.0730 -0.3759  0.3212
 1275TIP3    H225317   0.372   2.136   2.593 -1.5349 -1.5947 -0.6508
 1276TIP3   OH225318   0.844   1.895  14.297  0.1411 -0.4898  0.0713
 1276TIP3    H125319   0.879   1.856  14.377  1.3079 -0.1766 -0.2780
 1276TIP3    H225320   0.755   1.860  14.291  0.3620 -1.2571  1.0002
 1277TIP3   OH225321   3.397   0.510   1.746  0.0437 -0.0298  0.0315
 1277TIP3    H125322   3.379   0.417   1.763 -0.6733  0.3646  1.6665
 1277TIP3    H225323   3.358   0.527   1.660 -0.5711 -1.0486  0.0873
 1278TIP3   OH225324   2.420   4.736   0.746 -0.4458  0.7638 -0.2734
 1278TIP3    H125325   2.412   4.735   0.841  3.4740 -0.1052  0.2406
 1278TIP3    H225326   2.414   4.828   0.722 -0.4876  1.0940  0.9457
 1279TIP3   OH225327   0.589   2.714  11.154 -0.1442  0.2689 -0.4075
 1279TIP3    H125328   0.496   2.703  11.174 -0.2145 -0.5951 -1.1445
 1279TIP3    H225329   0.591   2.739  11.062  0.3505  0.2542 -0.4035
 1280TIP3   OH225330   5.699   6.133  14.291 -0.2265 -0.2368 -0.5083
 1280TIP3    H125331   5.630   6.105  14.230 -0.7944  0.8926 -0.4084
 1280TIP3    H225332   5.707   6.060  14.353  0.8230 -1.6950 -2.2713
 1281TIP3   OH225333   1.897   2.272   5.154  0.1628  0.0422 -0.3898
 1281TIP3    H125334   1.843   2.296   5.078  0.0448 -2.0741 -1.0387
 1281TIP3    H225335   1.847   2.302   5.230 -1.3351 -0.7197 -1.0335
 1282TIP3   OH225336   0.417   5.221  10.554  0.2634 -0.0147  0.4303
 1282TIP3    H125337   0.354   5.179  10.497  1.4512 -1.7002  0.2882
 1282TIP3    H225338   0.496   5.231  10.500  0.2236  1.8584  0.6537
 1283TIP3   OH225339   5.954   2.095   4.155  1.3025  0.5988 -0.2667
 1283TIP3    H125340   5.883   2.085   4.092  2.1845  2.7012 -1.7241
 1283TIP3    H225341   5.943   2.023   4.216 -0.0123 -1.1728 -2.4532
 1284TIP3   OH225342   0.188   5.170  10.420 -0.3083  0.2762 -0.6343
 1284TIP3    H125343   0.228   5.220  10.348  0.1424 -0.4991 -0.9353
 1284TIP3    H225344   0.179   5.081  10.385  0.6838 -0.3096  0.5389
 1285TIP3   OH225345   2.897   1.636   2.786  0.1639 -0.3605 -0.3643
 1285TIP3    H125346   2.950   1.693   2.730  0.2476  1.0531  1.0740
 1285TIP3    H225347   2.945   1.635   2.869 -3.5785  3.8896  2.2952
 1286TIP3   OH225348   6.213   5.538  14.405  0.7908 -0.6019 -0.2071
 1286TIP3    H125349   6.200   5.446  14.424  2.7464 -0.9462 -0.3215
 1286TIP3    H225350   6.236   5.578  14.489 -0.3993 -0.1046 -0.0858
 1287TIP3   OH225351   1.166   0.829   5.875 -0.7119  1.0269  0.3103
 1287TIP3    H125352   1.188   0.865   5.960  1.1975  1.5571 -0.3424
 1287TIP3    H225353   1.175   0.902   5.814  0.3245  0.1567 -0.6467
 1288TIP3   OH225354   5.476   4.857  13.352  0.6226  0.6214  0.0015
 1288TIP3    H125355   5.531   4.779  13.345 -0.1125  0.0639  0.3322
 1288TIP3    H225356   5.504   4.899  13.433  0.1278 -0.0198  0.5209
 1289TIP3   OH225357   0.983   6.140  12.543  0.3366 -0.0684 -0.0292
 1289TIP3    H125358   0.986   6.095  12.458  0.1907  1.2490 -0.7594
 1289TIP3    H225359   0.893   6.129  12.573 -0.3154  1.4945 -1.2363
 1290TIP3   OH225360   5.670   2.867   3.981  0.0643  0.7897 -0.3126
 1290TIP3    H125361   5.716   2.929   4.038 -1.6900  2.3780 -0.4999
 1290TIP3    H225362   5.683   2.902   3.893  0.1205  0.1577 -0.5539
 1291TIP3   OH225363   2.295   2.276  11.303 -0.5729  0.0230  0.2838
 1291TIP3    H125364   2.226   2.312  11.247  0.4086  0.7739 -0.4690
 1291TIP3    H225365   2.254   2.199  11.343 -1.4014 -0.3853 -1.2553
 1292TIP3   OH225366   4.464   2.785  11.175  0.7103  0.0239  0.0090
 1292TIP3    H125367   4.448   2.730  11.252 -1.4567 -0.1099 -0.4697
 1292TIP3    H225368   4.435   2.872  11.202 -0.4496 -0.1052 -0.7432
 1293TIP3   OH225369   1.892   1.706   5.273 -0.6733  0.2786 -0.0306
 1293TIP3    H125370   1.860   1.695   5.362 -1.3323  0.3429 -0.2511
 1293TIP3    H225371   1.844   1.639   5.223 -0.0772  0.0295 -0.2831
 1294TIP3   OH225372   3.754   5.960  13.757  0.5282  0.0469  0.6788
 1294TIP3    H125373   3.677   5.966  13.700 -0.5087  2.1045  2.1508
 1294TIP3    H225374   3.829   5.968  13.698 -0.4561  0.3801 -0.5508
 1295TIP3   OH225375   4.224   5.491  16.182 -0.3898  0.8525 -0.1684
 1295TIP3    H125376   4.303   5.476  16.234 -2.7507  2.4302  4.4470
 1295TIP3    H225377   4.256   5.532  16.102  3.5469 -0.4869  0.4699
 1296TIP3   OH225378   5.144   2.072  12.790 -0.1702 -0.5476  1.2395
 1296TIP3    H125379   5.103   2.098  12.707  2.0884 -0.7280 -0.0031
 1296TIP3    H225380   5.175   2.154  12.829 -1.4647 -0.4326  2.0822
 1297TIP3   OH225381   1.002   4.447  12.088 -0.2839  0.2275  0.6238
 1297TIP3    H125382   0.943   4.464  12.014  1.3686  1.4482 -0.4900
 1297TIP3    H225383   1.007   4.530  12.134 -0.1504 -0.1306  1.2665
 1298TIP3   OH225384   0.998   6.292  16.040  0.0620 -0.3344  0.5831
 1298TIP3    H125385   0.992   6.238  16.119 -0.2563  0.8105  1.3683
 1298TIP3    H225386   0.921   6.349  16.044  1.8418  2.2202  1.3830
 1299TIP3   OH225387   0.231   5.075   5.165 -0.1322  0.3326 -0.5463
 1299TIP3    H125388   0.143   5.040   5.180 -0.4146  0.3158 -2.0531
 1299TIP3    H225389   0.241   5.143   5.232 -1.8806  1.3238 -1.2126
 1300TIP3   OH225390   2.805   5.816  12.336 -0.4126  0.8042  0.6125
 1300TIP3    H125391   2.827   5.799  12.244  0.6111  0.5949  0.8832
 1300TIP3    H225392   2.848   5.746  12.385  0.5818  1.9156  1.4055
 1301TIP3   OH225393   1.285   4.058   1.592 -0.1585 -0.1623 -0.2219
 1301TIP3    H125394   1.366   4.006   1.597  0.2458  0.3406 -1.1842
 1301TIP3    H225395   1.239   4.039   1.674  1.3941  0.2774  0.8100
 1302TIP3   OH225396   3.320   0.063  16.953 -0.4640  0.1075  0.4905
 1302TIP3    H125397   3.357   0.062  17.041  2.4806  2.8456 -0.5066
 1302TIP3    H225398   3.336   0.152  16.921  0.0555 -1.1745 -3.3551
 1303TIP3   OH225399   4.658   2.646  13.427  0.2503 -0.0719 -0.0874
 1303TIP3    H125400   4.698   2.677  13.509  0.3526 -0.6814  0.0952
 1303TIP3    H225401   4.651   2.725  13.373  0.1253  0.3516  0.5295
 1304TIP3   OH225402   5.435   3.407   5.952 -0.2687 -0.1479  0.5744
 1304TIP3    H125403   5.507   3.423   6.013  0.6216 -0.0488 -0.4622
 1304TIP3    H225404   5.376   3.481   5.963  1.6475  1.7641 -1.1382
 1305TIP3   OH225405   4.536   4.705  13.985  0.4479  0.0882  0.3321
 1305TIP3    H125406   4.496   4.623  14.014  0.4082  0.1290  0.3924
 1305TIP3    H225407   4.618   4.710  14.034  0.2577  0.2854  0.6322
 1306TIP3   OH225408   3.405   4.317   1.510 -0.1837  0.8330  0.6099
 1306TIP3    H125409   3.428   4.247   1.572 -0.5558 -1.5018 -1.7372
 1306TIP3    H225410   3.428   4.282   1.424  0.1324  3.8697 -0.6798
 1307TIP3   OH225411   2.565   3.982  16.480  0.4196  0.5427  0.4916
 1307TIP3    H125412   2.572   3.909  16.541 -3.1922  0.2940  0.8041
 1307TIP3    H225413   2.498   3.955  16.417  1.5443  2.1907 -1.5717
 1308TIP3   OH225414   0.210   1.005   6.654  0.1815 -0.0175 -0.2160
 1308TIP3    H125415   0.177   0.939   6.593 -0.6685 -0.1891  0.4151
 1308TIP3    H225416   0.187   1.088   6.615  0.9045 -0.0904 -0.8199
 1309TIP3   OH225417   5.796   4.971  14.587  0.4098 -0.1537 -0.0234
 1309TIP3    H125418   5.838   4.887  14.602  2.5073  0.6916 -0.7422
 1309TIP3    H225419   5.800   4.983  14.492 -1.5588 -0.0317 -0.1322
 1310TIP3   OH225420   5.463   5.043  11.653 -0.3391  0.3104  0.8215
 1310TIP3    H125421   5.505   5.063  11.737 -2.5285 -0.0435  2.0727
 1310TIP3    H225422   5.433   5.128  11.621 -1.6182  0.1727  1.6152
 1311TIP3   OH225423   3.241   3.337  14.697  0.2961 -0.5068  0.1066
 1311TIP3    H125424   3.185   3.395  14.644 -0.9105 -1.4680  0.2784
 1311TIP3    H225425   3.327   3.343  14.657  0.0295  0.8681 -0.2982
 1312TIP3   OH225426   6.105   0.564  11.891 -0.1787  0.0738 -0.1450
 1312TIP3    H125427   6.180   0.506  11.892  1.6885  2.3250  1.4822
 1312TIP3    H225428   6.072   0.563  11.981  1.3952  3.1688  0.5996
 1313TIP3   OH225429   5.298   2.715   3.841 -0.1121 -0.2732 -0.1127
 1313TIP3    H125430   5.368   2.773   3.809  0.1416  0.2674  1.3119
 1313TIP3    H225431   5.344   2.634   3.864  0.3465  0.5473  2.1100
 1314TIP3   OH225432   4.878   6.265   1.071 -0.6002  0.0037 -0.1695
 1314TIP3    H125433   4.859   6.201   1.002 -0.4902 -0.7208  0.4672
 1314TIP3    H225434   4.941   6.325   1.031 -0.6943 -0.2838 -0.7684
 1315TIP3   OH225435   6.283   2.605  15.258 -0.7097  0.2342 -0.1510
 1315TIP3    H125436   6.220   2.546  15.214  0.0895  0.0930 -1.1464
 1315TIP3    H225437   6.244   2.692  15.250 -0.4549  0.2506 -1.4265
 1316TIP3   OH225438   0.513   0.655   1.508 -0.3098  0.1476 -0.7904
 1316TIP3    H125439   0.558   0.701   1.438 -0.9766 -1.1022 -2.1147
 1316TIP3    H225440   0.564   0.575   1.520 -0.7240 -0.0782 -0.5144
 1317TIP3   OH225441   4.627   2.237   1.265 -0.3212 -0.4545 -0.1202
 1317TIP3    H125442   4.642   2.331   1.259  1.1484 -0.7364 -1.8155
 1317TIP3    H225443   4.537   2.225   1.234 -0.6487  0.4164  0.4669
 1318TIP3   OH225444   6.051   1.272  12.453 -0.4032 -0.0390 -0.0342
 1318TIP3    H125445   5.957   1.274  12.435 -0.3415 -0.7153 -0.4523
 1318TIP3    H225446   6.056   1.269  12.549 -0.7844  0.7498  0.0207
 1319TIP3   OH225447   2.514   1.244   4.258  0.1032 -0.5516 -0.0261
 1319TIP3    H125448   2.550   1.308   4.319  3.3593 -0.4075 -1.8670
 1319TIP3    H225449   2.493   1.294   4.180 -1.8128 -1.1103  0.0565
 1320TIP3   OH225450   5.747   5.330   2.458  0.2090  0.1100  0.0238
 1320TIP3    H125451   5.665   5.302   2.499  0.8889 -1.8865  0.1244
 1320TIP3    H225452   5.801   5.359   2.531 -0.3471  1.3400 -0.0320
 1321TIP3   OH225453   3.636   5.246  15.572  0.2092  0.4323 -0.1776
 1321TIP3    H125454   3.677   5.159  15.566 -1.3916 -0.5055  1.3714
 1321TIP3    H225455   3.606   5.251  15.662 -0.6318  2.2048 -0.5260
 1322TIP3   OH225456   4.572   5.542   2.881 -0.1672 -0.3159 -0.0421
 1322TIP3    H125457   4.548   5.634   2.896  1.1282  0.1590 -0.7225
 1322TIP3    H225458   4.573   5.532   2.786  1.2853 -0.5557 -0.0351
 1323TIP3   OH225459   6.212   6.335   2.196  0.4008 -0.4370 -0.2616
 1323TIP3    H125460   6.230   6.266   2.133 -0.1114 -0.0302 -0.8742
 1323TIP3    H225461   6.213   6.292   2.281 -0.9647 -1.4270 -0.7140
 1324TIP3   OH225462   3.900   4.941   3.269 -0.0951 -0.1863 -0.5187
 1324TIP3    H125463   3.911   4.985   3.353 -0.2265 -1.0629 -0.0379
 1324TIP3    H225464   3.986   4.904   3.249  0.3594  1.3296 -1.5399
 1325TIP3   OH225465   1.932   4.306  15.047 -0.2247  0.2988 -0.2722
 1325TIP3    H125466   1.872   4.280  14.977 -0.4032 -1.7369  0.5803
 1325TIP3    H225467   1.875   4.320  15.123  0.2163  0.0304  0.1120
 1326TIP3   OH225468   5.073   6.219   0.770 -0.3285  0.6675  0.1687
 1326TIP3    H125469   5.120   6.182   0.696  1.7099  2.1657  0.6135
 1326TIP3    H225470   4.994   6.166   0.778  0.8834 -1.4685 -1.1363
 1327TIP3   OH225471   5.438   0.966   5.030 -0.1000  0.4483 -0.6660
 1327TIP3    H125472   5.528   0.949   5.059 -0.4110 -0.6499 -0.2930
 1327TIP3    H225473   5.446   1.038   4.968  1.1305 -0.0443 -1.1140
 1328TIP3   OH225474   1.687   4.587   3.323 -0.0949  0.0085  0.6449
 1328TIP3    H125475   1.641   4.628   3.396 -1.3517 -1.5210  0.7549
 1328TIP3    H225476   1.733   4.512   3.363 -0.4449 -0.5880 -0.0470
 1329TIP3   OH225477   3.573   1.058   4.886  0.1742 -0.1885  0.0621
 1329TIP3    H125478   3.664   1.033   4.871  0.3560  0.4009  0.1800
 1329TIP3    H225479   3.566   1.066   4.981 -0.0589 -0.4434  0.0690
 1330TIP3   OH225480   1.856   1.276   3.267 -0.3335 -0.1919  0.0539
 1330TIP3    H125481   1.808   1.333   3.208 -1.0540 -1.4457 -0.6088
 1330TIP3    H225482   1.912   1.224   3.209  0.6946  0.1806  0.6877
 1331TIP3   OH225483   3.705   2.126  11.327  0.0008  0.9654 -0.4686
 1331TIP3    H125484   3.774   2.070  11.291 -0.1621  0.9517 -0.7668
 1331TIP3    H225485   3.626   2.072  11.325  0.4376  0.1075  2.1826
 1332TIP3   OH225486   0.975   2.996   3.353  0.4221 -0.0944 -0.1707
 1332TIP3    H125487   1.069   3.015   3.347  0.4442 -0.6904 -3.4380
 1332TIP3    H225488   0.935   3.055   3.289 -1.7662  1.4879  2.4588
 1333TIP3   OH225489   3.774   4.902  14.161 -0.0988  0.3113 -0.3049
 1333TIP3    H125490   3.839   4.858  14.216  1.9042  0.9579 -2.0490
 1333TIP3    H225491   3.723   4.830  14.122  0.6095 -0.2887 -0.1536
 1334TIP3   OH225492   5.257   5.301  10.096  0.1112 -0.4239  0.7162
 1334TIP3    H125493   5.194   5.364  10.129  1.7755  0.6569  2.0319
 1334TIP3    H225494   5.259   5.231  10.161 -0.0310 -0.6810  0.4505
 1335TIP3   OH225495   2.966   1.323   2.947  0.1931  0.0841  0.0659
 1335TIP3    H125496   3.019   1.399   2.972 -1.3510  0.6825  1.6569
 1335TIP3    H225497   3.030   1.259   2.916  1.9990  0.4002  2.8250
 1336TIP3   OH225498   2.343   0.642  16.948 -0.5560 -0.3902 -0.2407
 1336TIP3    H125499   2.304   0.688  17.022 -0.4038 -2.7672  1.4787
 1336TIP3    H225500   2.338   0.549  16.973  0.7199 -1.1951 -2.6430
 1337TIP3   OH225501   3.957   1.655   0.641  0.6434 -0.1016  0.2553
 1337TIP3    H125502   3.935   1.591   0.708  2.0749 -0.2246  0.6399
 1337TIP3    H225503   3.889   1.645   0.575  1.1904 -2.5299 -0.0360
 1338TIP3   OH225504   6.721   0.305   6.160  0.1396 -0.4322 -0.4268
 1338TIP3    H125505   6.718   0.293   6.255  0.0031 -1.3620 -0.5337
 1338TIP3    H225506   6.798   0.359   6.145  0.2455 -0.4023  0.2090
 1339TIP3   OH225507   2.788   1.429  10.621 -0.0429 -0.1852 -0.4624
 1339TIP3    H125508   2.790   1.421  10.526  0.9776  0.7545 -0.5408
 1339TIP3    H225509   2.715   1.488  10.639 -0.5118 -0.7099 -0.6259
 1340TIP3   OH225510   4.820   2.707   2.873  0.6108  0.2235 -0.5791
 1340TIP3    H125511   4.766   2.706   2.952 -0.3552 -2.5699 -1.1330
 1340TIP3    H225512   4.872   2.786   2.880 -0.6829  0.9628  1.9912
 1341TIP3   OH225513   0.085   4.231  16.794 -0.1260  0.2782 -0.3490
 1341TIP3    H125514   0.099   4.139  16.774 -0.4996  0.0351  0.4634
 1341TIP3    H225515  -0.007   4.247  16.773 -0.2966  0.2356  0.3580
 1342TIP3   OH225516   2.805   0.212   2.734 -0.5020 -0.1523 -0.4148
 1342TIP3    H125517   2.874   0.162   2.690 -0.9142 -1.6886  0.5837
 1342TIP3    H225518   2.724   0.178   2.697 -0.8001 -0.4478  0.4675
 1343TIP3   OH225519   4.633   6.805   2.034 -0.2472  0.4009  0.6061
 1343TIP3    H125520   4.659   6.886   2.078  2.1047  0.5705 -0.8682
 1343TIP3    H225521   4.598   6.833   1.949 -0.0969 -0.0836  0.3755
 1344TIP3   OH225522   1.083   3.615  12.624 -0.4546 -0.4289 -0.4491
 1344TIP3    H125523   1.120   3.575  12.546 -1.0811 -1.4191 -0.2575
 1344TIP3    H225524   1.088   3.710  12.607  2.3009 -0.4660 -0.3297
 1345TIP3   OH225525   1.757   2.174  11.347  0.7536  0.4650  0.4701
 1345TIP3    H125526   1.682   2.208  11.298 -0.5771  0.2273  2.2540
 1345TIP3    H225527   1.728   2.089  11.379  2.5042 -0.5043 -0.3631
 1346TIP3   OH225528   5.924   1.624   0.183  0.0524  0.3710  0.0179
 1346TIP3    H125529   5.977   1.610   0.105  0.8710  0.6755  0.5129
 1346TIP3    H225530   5.835   1.602   0.155  0.2218  1.1233 -1.1846
 1347TIP3   OH225531   0.152   4.068   2.345  0.4453 -0.0290  0.3933
 1347TIP3    H125532   0.199   4.087   2.427 -0.9836 -0.4611  1.3597
 1347TIP3    H225533   0.203   3.998   2.305  0.2613 -1.0337  1.8065
 1348TIP3   OH225534   1.853   5.657   1.307 -0.3459 -0.2580  0.2071
 1348TIP3    H125535   1.769   5.621   1.278 -0.0164 -1.4864  0.7084
 1348TIP3    H225536   1.909   5.652   1.230 -0.9924  1.5844 -0.4575
 1349TIP3   OH225537   4.095   1.627   2.941  0.7331 -0.1861 -0.0474
 1349TIP3    H125538   4.140   1.711   2.942 -0.2233  0.3446  0.3657
 1349TIP3    H225539   4.111   1.590   3.028  0.7870 -0.2243 -0.0735
 1350TIP3   OH225540   0.139   6.053  13.680  0.4926 -0.5629  0.0561
 1350TIP3    H125541   0.133   6.042  13.585  1.8389  2.8828 -0.6038
 1350TIP3    H225542   0.221   6.101  13.693 -0.6512  0.8930  2.7159
 1351TIP3   OH225543   6.143   6.689   5.139  0.1306 -0.4245  0.1573
 1351TIP3    H125544   6.204   6.644   5.196  1.0022 -0.0345 -0.4552
 1351TIP3    H225545   6.153   6.646   5.054 -0.1819 -0.1060 -0.0440
 1352TIP3   OH225546   1.453   5.932   1.270  0.5601 -0.1847  0.1160
 1352TIP3    H125547   1.517   5.998   1.243  1.7828 -1.4976 -0.3551
 1352TIP3    H225548   1.458   5.865   1.202 -1.2896 -0.3617  0.1268
 1353TIP3   OH225549   3.278   1.952   6.550 -0.3337  0.2423 -0.5879
 1353TIP3    H125550   3.249   2.029   6.501 -1.7425  0.8364  1.0748
 1353TIP3    H225551   3.345   1.986   6.609 -1.2665  0.3195  0.4558
 1354TIP3   OH225552   6.073   0.377   3.304 -0.1379  0.3176  0.2336
 1354TIP3    H125553   6.144   0.357   3.365 -1.6377 -0.0523  1.9421
 1354TIP3    H225554   6.085   0.314   3.232  1.0465  0.0360  0.6617
 1355TIP3   OH225555   6.448   6.475   2.558  0.0239 -0.2501 -0.0540
 1355TIP3    H125556   6.355   6.494   2.569 -0.1780 -0.5046 -1.1336
 1355TIP3    H225557   6.469   6.416   2.629 -0.0358  1.6536  1.6480
 1356TIP3   OH225558   0.876   2.418  13.048 -0.2367  0.5026  0.3874
 1356TIP3    H125559   0.913   2.504  13.068  1.1633  0.0941 -0.2618
 1356TIP3    H225560   0.904   2.362  13.121 -1.1454  0.5910  0.8098
 1357TIP3   OH225561   1.682   5.808  14.175 -0.2800 -0.0807  0.4272
 1357TIP3    H125562   1.690   5.901  14.154  0.5380  0.0614  1.3376
 1357TIP3    H225563   1.661   5.806  14.268  0.8593 -0.8180  0.6929
 1358TIP3   OH225564   0.395   4.421  11.799 -0.1893 -0.3096 -0.2611
 1358TIP3    H125565   0.411   4.381  11.885 -2.8131 -1.3424 -0.1656
 1358TIP3    H225566   0.346   4.501  11.819  0.9959  0.5633 -0.7325
 1359TIP3   OH225567   6.341   0.970  13.118  0.1512 -0.4890  0.5913
 1359TIP3    H125568   6.265   0.929  13.075  0.6702 -0.5532 -0.2824
 1359TIP3    H225569   6.416   0.940  13.067  0.6237  0.8725  0.4342
 1360TIP3   OH225570   2.828   3.854  12.202 -0.3240 -0.3211  0.0901
 1360TIP3    H125571   2.905   3.857  12.145  0.7014  0.7034  1.4564
 1360TIP3    H225572   2.862   3.879  12.288 -2.1277 -0.2145  0.7942
 1361TIP3   OH225573   0.419   0.280  11.005 -0.1967  0.2519 -0.0673
 1361TIP3    H125574   0.440   0.219  10.934  1.0539  0.0462  0.4558
 1361TIP3    H225575   0.403   0.363  10.961  0.0473  0.0054 -0.6358
 1362TIP3   OH225576   1.318   5.387   0.911 -0.0059  0.0987 -0.4470
 1362TIP3    H125577   1.394   5.390   0.969 -0.2162 -1.2546 -0.0553
 1362TIP3    H225578   1.312   5.295   0.886 -2.4861 -0.1707  0.8536
 1363TIP3   OH225579   1.255   1.495  10.658  0.2334 -0.1235  0.2054
 1363TIP3    H125580   1.214   1.580  10.675 -0.3690 -0.2285 -0.6925
 1363TIP3    H225581   1.325   1.514  10.596 -1.7898 -0.6502 -2.4171
 1364TIP3   OH225582   1.619   4.961  16.377  0.9644 -0.1372 -0.3697
 1364TIP3    H125583   1.658   4.878  16.352  0.1337 -0.7769  0.3997
 1364TIP3    H225584   1.525   4.943  16.385  0.9160  0.5852  0.9332
 1365TIP3   OH225585   5.255   1.712   1.862 -0.4309 -0.0681  0.1880
 1365TIP3    H125586   5.189   1.643   1.862 -1.7316  1.1221 -0.3342
 1365TIP3    H225587   5.339   1.666   1.866 -1.2184 -1.7017 -1.1694
 1366TIP3   OH225588   3.210   5.532   2.682  0.1880 -0.2443 -0.5255
 1366TIP3    H125589   3.231   5.497   2.769 -0.0335 -0.0217 -0.3811
 1366TIP3    H225590   3.117   5.554   2.687  0.1790 -0.2146 -0.8143
 1367TIP3   OH225591   1.770   1.457  12.279 -0.0075 -0.2455 -0.3676
 1367TIP3    H125592   1.750   1.364  12.273 -0.3897 -0.2079  0.2385
 1367TIP3    H225593   1.768   1.477  12.373  0.5716  0.2658 -0.4549
 1368TIP3   OH225594   0.989   5.291   1.893 -0.5274 -0.5097 -0.4952
 1368TIP3    H125595   1.000   5.297   1.988 -1.1377  0.4225 -0.4760
 1368TIP3    H225596   1.051   5.354   1.858 -1.7450  0.6714 -0.6098
 1369TIP3   OH225597   6.147   2.161   6.051  0.4630  0.4793 -0.7556
 1369TIP3    H125598   6.191   2.247   6.047  1.2599  0.0415 -2.2332
 1369TIP3    H225599   6.063   2.179   6.093  2.1700  1.2732  2.6912
 1370TIP3   OH225600   2.444   1.283  16.289 -0.1123 -0.7357  0.1050
 1370TIP3    H125601   2.384   1.219  16.326 -0.0272 -1.5279 -1.0518
 1370TIP3    H225602   2.525   1.233  16.275  0.3239 -0.0730  0.2492
 1371TIP3   OH225603   6.463   3.500   6.164  0.7638  0.3418  0.0681
 1371TIP3    H125604   6.416   3.456   6.235  0.5369 -0.8316 -0.7672
 1371TIP3    H225605   6.552   3.511   6.197  1.2097 -2.0619 -0.1828
 1372TIP3   OH225606   0.104   4.526   1.200 -0.3688  0.6157 -0.2870
 1372TIP3    H125607   0.068   4.576   1.127 -0.8986  1.3184  0.4392
 1372TIP3    H225608   0.110   4.437   1.167  0.3872  1.1027 -1.5324
 1373TIP3   OH225609   0.474   4.973  16.118 -0.2184  0.2892 -0.2412
 1373TIP3    H125610   0.559   4.948  16.082  1.2972  0.9816  2.5588
 1373TIP3    H225611   0.417   4.897  16.102  0.8042 -0.0870 -2.3975
 1374TIP3   OH225612   3.481   2.505  15.165 -0.1346  0.3927  0.2060
 1374TIP3    H125613   3.571   2.498  15.195 -0.8647 -1.2106  2.2766
 1374TIP3    H225614   3.444   2.577  15.215 -0.6311 -0.5802  1.3092
 1375TIP3   OH225615   6.446   6.823  12.795  0.4675 -0.1739 -0.2082
 1375TIP3    H125616   6.486   6.823  12.708  0.4507  0.6954 -0.2299
 1375TIP3    H225617   6.408   6.736  12.805 -2.8777  0.8039 -2.6128
 1376TIP3   OH225618   1.287   5.449  11.112  0.6290 -0.6030  0.4236
 1376TIP3    H125619   1.289   5.442  11.017  1.1442 -3.0495  0.5564
 1376TIP3    H225620   1.365   5.401  11.141 -0.5042 -1.4848  2.1283
 1377TIP3   OH225621   6.177   5.961   3.405 -0.6777  0.4071 -0.4186
 1377TIP3    H125622   6.169   5.914   3.487 -0.4771  1.3318  0.1440
 1377TIP3    H225623   6.089   5.994   3.387 -0.4126  1.5487  0.2649
 1378TIP3   OH225624   1.562   2.495   0.165  0.2373  0.3482  0.0157
 1378TIP3    H125625   1.529   2.432   0.100  1.0363  0.4092 -0.4632
 1378TIP3    H225626   1.632   2.449   0.210  1.0033  0.9654 -0.5156
 1379TIP3   OH225627   1.511   5.559   2.911  0.0177  0.2709 -0.2034
 1379TIP3    H125628   1.437   5.571   2.969 -2.2238 -0.6417 -2.6780
 1379TIP3    H225629   1.542   5.470   2.928  0.7899  0.7555  1.0357
 1380TIP3   OH225630   4.446   5.254   3.657 -0.2928 -0.1324  0.9296
 1380TIP3    H125631   4.476   5.310   3.586 -3.1758  1.4623  0.8418
 1380TIP3    H225632   4.471   5.301   3.737 -2.0904  1.0367  0.8580
 1381TIP3   OH225633   4.223   5.765  11.499 -0.3844  0.4960 -0.0588
 1381TIP3    H125634   4.206   5.826  11.427  0.9475 -0.8541 -1.6098
 1381TIP3    H225635   4.312   5.786  11.527  0.5659 -1.4088 -1.4228
 1382TIP3   OH225636   5.213   4.640   2.100  0.1803  0.9886  0.3175
 1382TIP3    H125637   5.248   4.716   2.055 -0.0944  1.2061  0.4671
 1382TIP3    H225638   5.274   4.623   2.171  1.1257  0.0839 -0.6651
 1383TIP3   OH225639   3.727   1.233   5.355  0.3671  0.2283  0.7155
 1383TIP3    H125640   3.709   1.243   5.448  0.6382  1.5598  0.6382
 1383TIP3    H225641   3.793   1.300   5.335 -0.0426  0.2865 -0.5317
 1384TIP3   OH225642   5.665   1.625  14.030  0.0529  0.2152 -0.3180
 1384TIP3    H125643   5.580   1.667  14.039  0.1121  0.2695 -0.0023
 1384TIP3    H225644   5.726   1.683  14.075  0.1780 -0.0776 -0.1062
 1385TIP3   OH225645   1.802   2.152   5.624 -0.1111 -1.0572 -0.5455
 1385TIP3    H125646   1.766   2.080   5.573  0.5809 -1.4101 -0.5441
 1385TIP3    H225647   1.754   2.150   5.707 -0.9924 -0.6994 -1.0388
 1386TIP3   OH225648   5.515   4.181   2.913  0.3416 -0.0964  0.4166
 1386TIP3    H125649   5.436   4.137   2.881 -0.0768  0.3202  0.8681
 1386TIP3    H225650   5.487   4.227   2.992  0.2323  2.7699 -1.1856
 1387TIP3   OH225651   3.513   4.007  16.289 -0.1074 -0.2719  0.0552
 1387TIP3    H125652   3.589   3.963  16.252  0.1491  0.3626 -0.1912
 1387TIP3    H225653   3.550   4.083  16.335 -0.5207 -0.4256  0.6508
 1388TIP3   OH225654   3.315   0.632   5.618 -0.0199  0.9561  0.3125
 1388TIP3    H125655   3.279   0.543   5.624 -0.3398  0.9572 -1.2564
 1388TIP3    H225656   3.341   0.641   5.527  3.5081  1.1560  1.1776
 1389TIP3   OH225657   0.336   6.477   0.135 -0.0144 -0.2883  0.2978
 1389TIP3    H125658   0.294   6.399   0.098  0.1668  0.1919 -0.9783
 1389TIP3    H225659   0.281   6.550   0.104 -0.4962  0.0751  1.9247
 1390TIP3   OH225660   4.468   4.481   1.132  0.7412  0.6019  0.0403
 1390TIP3    H125661   4.445   4.388   1.136  0.8600  0.5569 -0.2359
 1390TIP3    H225662   4.547   4.483   1.077  0.9130  0.8350  0.2940
 1391TIP3   OH225663   0.030   6.591   2.302  0.0308  0.1712 -0.4351
 1391TIP3    H125664   0.005   6.683   2.306 -1.7215 -0.2538 -0.7102
 1391TIP3    H225665   0.042   6.573   2.209  0.4856  0.1426 -0.3735
 1392TIP3   OH225666   4.449   3.808  13.272 -0.3767  0.1906  0.0195
 1392TIP3    H125667   4.450   3.720  13.235 -1.5974  0.1321  0.0909
 1392TIP3    H225668   4.483   3.798  13.360  1.8371  0.2087 -0.7732
 1393TIP3   OH225669   1.807   1.718  14.700  0.1370 -0.3389 -0.4209
 1393TIP3    H125670   1.765   1.746  14.619  0.2249 -2.5944 -1.3400
 1393TIP3    H225671   1.735   1.694  14.757  0.0544  1.7657  0.4414
 1394TIP3   OH225672   4.575   1.073   0.518  0.5253 -0.1802  0.3639
 1394TIP3    H125673   4.510   1.059   0.587  0.0223  0.2492 -0.0198
 1394TIP3    H225674   4.621   0.989   0.512 -1.8237 -1.4638 -1.2706
 1395TIP3   OH225675   3.787   6.419  11.158  0.0049 -0.4466 -0.0110
 1395TIP3    H125676   3.829   6.489  11.108  1.4080 -0.0094  1.6819
 1395TIP3    H225677   3.830   6.422  11.243 -2.7911 -0.6505  1.5222
 1396TIP3   OH225678   2.896   2.824  15.284  0.1431  0.4393 -0.1433
 1396TIP3    H125679   2.817   2.877  15.293 -1.1706 -1.3075 -0.7019
 1396TIP3    H225680   2.880   2.748  15.341  1.5142  0.1374 -0.1167
 1397TIP3   OH225681   2.265   2.796  13.847 -0.7185 -0.2083 -0.0009
 1397TIP3    H125682   2.189   2.843  13.814 -0.9672 -1.7335 -1.8077
 1397TIP3    H225683   2.333   2.811  13.781 -0.4983 -1.4679 -0.0966
 1398TIP3   OH225684   5.087   4.330  14.664 -0.1071 -0.0879 -0.1274
 1398TIP3    H125685   5.117   4.336  14.754 -1.2126  0.6821  0.2099
 1398TIP3    H225686   5.028   4.254  14.664 -1.8699  1.2231  0.3617
 1399TIP3   OH225687   2.146   1.058  16.245 -0.0605 -0.6374 -0.2697
 1399TIP3    H125688   2.221   0.998  16.241  0.5989  0.1359  0.3197
 1399TIP3    H225689   2.153   1.101  16.330  1.8213  3.1989 -2.0988
 1400TIP3   OH225690   0.440   3.814  10.511 -0.1379  0.1560  0.3072
 1400TIP3    H125691   0.458   3.908  10.509  1.3455  0.0272  2.8414
 1400TIP3    H225692   0.356   3.804  10.468 -0.5795  2.7176  0.4405
 1401TIP3   OH225693   5.950   3.836  14.767  0.3131 -0.1166 -0.0570
 1401TIP3    H125694   5.923   3.766  14.826  0.1421  0.1130  0.1384
 1401TIP3    H225695   6.041   3.855  14.792  1.4106 -2.2520 -2.0124
 1402TIP3   OH225696   4.235   2.136  13.174  0.0894 -0.1325 -0.4928
 1402TIP3    H125697   4.146   2.112  13.150 -0.6171  1.2335  0.6510
 1402TIP3    H225698   4.290   2.072  13.129 -1.2565  0.8536 -3.8215
 1403TIP3   OH225699   5.650   3.544  15.125  0.0702 -0.3338  0.4462
 1403TIP3    H125700   5.583   3.488  15.086  0.3990 -0.5557  0.1939
 1403TIP3    H225701   5.732   3.496  15.111  0.3224  0.0950  0.4473
 1404TIP3   OH225702   5.744   3.676   3.098  0.6803 -0.0737 -0.0972
 1404TIP3    H125703   5.781   3.699   3.183  0.3151 -0.2943  0.1209
 1404TIP3    H225704   5.666   3.731   3.090 -0.1787 -1.1683  0.4105
 1405TIP3   OH225705   0.950   1.313   4.218 -0.1395  0.0054  0.3818
 1405TIP3    H125706   0.980   1.345   4.303  1.9440  0.0880 -0.3388
 1405TIP3    H225707   0.858   1.290   4.233 -0.5146  2.2197  2.0270
 1406TIP3   OH225708   0.530   3.575   0.602 -0.4092 -0.7206 -0.4261
 1406TIP3    H125709   0.565   3.486   0.597  0.4711 -0.3732 -0.8920
 1406TIP3    H225710   0.461   3.577   0.536 -0.3021 -1.0115 -0.5518
 1407TIP3   OH225711   3.726   0.218   4.143  0.0489  0.4105  0.5705
 1407TIP3    H125712   3.688   0.131   4.134  0.6174  0.2612 -0.6654
 1407TIP3    H225713   3.771   0.217   4.228  1.8369 -1.2388 -0.3140
 1408TIP3   OH225714   0.325   0.801  11.989 -0.1064  0.2326  0.2709
 1408TIP3    H125715   0.271   0.727  12.017 -1.2443  0.4113 -1.3027
 1408TIP3    H225716   0.294   0.875  12.041 -0.2357 -0.0101  0.5437
 1409TIP3   OH225717   2.068   5.850  16.296  0.1890 -0.0506  0.1355
 1409TIP3    H125718   2.120   5.817  16.222 -0.5667 -0.9216 -0.0195
 1409TIP3    H225719   2.109   5.812  16.373  0.7548  0.5654  0.1531
 1410TIP3   OH225720   6.081   3.167  16.851  0.2971  0.0831 -0.1192
 1410TIP3    H125721   6.156   3.148  16.908  0.9468  0.1398 -0.9446
 1410TIP3    H225722   6.120   3.192  16.768 -0.6499 -0.1777 -0.6491
 1411TIP3   OH225723   2.624   1.917   4.347 -0.8223 -0.3254 -0.2709
 1411TIP3    H125724   2.534   1.891   4.329 -0.6402 -1.2366  0.0633
 1411TIP3    H225725   2.652   1.964   4.268 -1.0222 -1.5957 -1.1239
 1412TIP3   OH225726   2.444   1.160  14.247 -0.1725  0.0533  0.0235
 1412TIP3    H125727   2.448   1.073  14.207  1.7310 -0.5372  1.3574
 1412TIP3    H225728   2.371   1.154  14.309 -0.8680 -0.1575 -0.7962
 1413TIP3   OH225729   3.221   3.940   4.761  0.5066 -0.2933  0.4160
 1413TIP3    H125730   3.142   3.940   4.707 -0.0944 -2.7088  1.1365
 1413TIP3    H225731   3.261   4.025   4.745 -1.7898  0.7002 -0.6163
 1414TIP3   OH225732   4.859   0.134  13.625 -0.2694 -0.8132 -0.0892
 1414TIP3    H125733   4.926   0.151  13.559 -1.2835 -1.3305 -1.2925
 1414TIP3    H225734   4.847   0.218  13.669  1.6936 -0.8907  0.7004
 1415TIP3   OH225735   3.728   2.418  11.319 -0.3842  0.4972  0.6537
 1415TIP3    H125736   3.737   2.326  11.293 -1.1557  0.4228  0.6358
 1415TIP3    H225737   3.745   2.467  11.238  0.3593  0.3941  0.7357
 1416TIP3   OH225738   5.932   6.233   1.166 -0.4200  0.3949 -0.5615
 1416TIP3    H125739   6.006   6.247   1.107 -0.1927  0.7572 -0.1970
 1416TIP3    H225740   5.950   6.149   1.208  0.9436  1.5096  1.1833
 1417TIP3   OH225741   2.382   4.082  15.390 -0.0051 -0.0541 -0.2638
 1417TIP3    H125742   2.450   4.136  15.350  1.4406 -1.5712  0.0539
 1417TIP3    H225743   2.341   4.139  15.455  1.1080  0.8372 -0.3214
 1418TIP3   OH225744   2.701   5.069  12.430  0.0616 -0.4848  0.0985
 1418TIP3    H125745   2.669   5.037  12.345 -0.0692 -1.2459  0.4275
 1418TIP3    H225746   2.627   5.117  12.467 -0.3417 -1.2938  0.3650
 1419TIP3   OH225747   5.045   1.495   4.011  0.1283 -0.4124  0.0468
 1419TIP3    H125748   4.985   1.513   4.083 -0.6196 -0.7770 -0.4655
 1419TIP3    H225749   4.992   1.447   3.947  0.5262  0.6090 -1.1111
 1420TIP3   OH225750   5.049   2.128   0.612 -0.2100  0.0209  0.4132
 1420TIP3    H125751   5.018   2.063   0.676  0.7224  0.2727  1.1431
 1420TIP3    H225752   5.072   2.076   0.535 -1.3664 -0.2856  0.2421
 1421TIP3   OH225753   6.190   3.433   2.212 -0.0974 -0.0360 -0.5539
 1421TIP3    H125754   6.116   3.419   2.271  0.1893  1.2355  0.1475
 1421TIP3    H225755   6.188   3.359   2.152 -1.4904 -0.4061 -0.0746
 1422TIP3   OH225756   4.631   1.950  14.399 -0.3081  0.1898  0.1690
 1422TIP3    H125757   4.600   2.001  14.324  0.2843 -0.1108 -0.2946
 1422TIP3    H225758   4.623   1.859  14.371 -0.1135  0.0750  0.4846
 1423TIP3   OH225759   6.360   1.267   5.210 -0.3398 -0.2631 -0.2952
 1423TIP3    H125760   6.313   1.311   5.140  0.7965 -1.3557 -1.7991
 1423TIP3    H225761   6.418   1.335   5.246  0.2014 -0.0757 -1.4819
 1424TIP3   OH225762   4.838   3.501  13.177 -0.0804  0.1593 -0.9358
 1424TIP3    H125763   4.931   3.490  13.196 -0.5792 -0.7144  1.2343
 1424TIP3    H225764   4.825   3.454  13.094  1.3702  0.1473 -1.1744
 1425TIP3   OH225765   3.149   5.779   2.085 -0.0138 -0.6263 -0.2805
 1425TIP3    H125766   3.214   5.716   2.118 -1.7391 -3.4040 -1.7583
 1425TIP3    H225767   3.090   5.793   2.159  0.0352 -1.3119 -0.1006
 1426TIP3   OH225768   3.796   3.797  17.055 -0.1485 -0.1102  0.3051
 1426TIP3    H125769   3.774   3.706  17.035  0.6852 -0.1475 -0.5167
 1426TIP3    H225770   3.891   3.796  17.069 -0.1718  0.5924  0.5299
 1427TIP3   OH225771   2.684   5.786   2.577  0.0693  0.0595  0.5617
 1427TIP3    H125772   2.685   5.699   2.617  2.2014 -0.6224 -0.7827
 1427TIP3    H225773   2.592   5.802   2.556 -0.3559 -1.9074  0.7659
 1428TIP3   OH225774   1.831   2.773   1.897 -0.4997  0.5075 -0.0263
 1428TIP3    H125775   1.834   2.852   1.950 -1.0211  1.1125 -0.8614
 1428TIP3    H225776   1.761   2.789   1.834 -1.6214 -1.2383  0.7146
 1429TIP3   OH225777   2.518   1.709  13.476  0.2689 -0.2134  0.6643
 1429TIP3    H125778   2.519   1.705  13.380 -0.3740  2.4756  0.4566
 1429TIP3    H225779   2.509   1.618  13.504 -1.0523 -0.9501 -1.8590
 1430TIP3   OH225780   2.559   0.096  15.715  0.6103  0.3727  0.3644
 1430TIP3    H125781   2.487   0.157  15.728 -0.0337 -0.0710 -0.9400
 1430TIP3    H225782   2.565   0.049  15.798 -1.6365 -0.6223  0.0574
 1431TIP3   OH225783   0.201   0.175   1.092  0.1907 -0.0788 -0.2183
 1431TIP3    H125784   0.249   0.093   1.078 -0.0755 -0.6502  1.9111
 1431TIP3    H225785   0.133   0.152   1.155 -0.6802  1.5198 -0.5449
 1432TIP3   OH225786   6.579   3.552  12.462 -0.0253  0.2588 -0.4701
 1432TIP3    H125787   6.509   3.584  12.405 -1.8114  1.5546  2.2055
 1432TIP3    H225788   6.636   3.628  12.476 -2.2629  1.5752  3.0117
 1433TIP3   OH225789   1.025   2.841   5.050 -0.2532 -0.2044  0.1967
 1433TIP3    H125790   1.013   2.757   5.094 -3.9641  1.0532  2.0061
 1433TIP3    H225791   0.964   2.900   5.094 -0.3654  2.6032 -3.2593
 1434TIP3   OH225792   5.489   6.579   3.105 -0.0565  0.2063  0.3550
 1434TIP3    H125793   5.464   6.520   3.175  0.5640 -0.3935  0.0879
 1434TIP3    H225794   5.519   6.521   3.034 -0.7814  0.7866 -0.4506
 1435TIP3   OH225795   5.991   3.818   2.334  0.4125 -0.2644 -0.0771
 1435TIP3    H125796   5.960   3.848   2.419 -2.2807  0.3832 -1.1681
 1435TIP3    H225797   6.072   3.772   2.353 -0.6649 -1.1666  2.9895
 1436TIP3   OH225798   4.067   6.610   2.355 -0.2709  0.5708 -0.2198
 1436TIP3    H125799   4.035   6.698   2.374 -0.2541  0.1090  2.2248
 1436TIP3    H225800   4.150   6.603   2.402  0.7887 -0.0951 -2.0569
 1437TIP3   OH225801   3.056   0.640   3.626  0.0007  0.0677  0.0349
 1437TIP3    H125802   3.130   0.667   3.680  0.4447  1.0265 -1.0122
 1437TIP3    H225803   2.994   0.712   3.634 -0.1328 -0.0023 -0.3543
 1438TIP3   OH225804   6.135   1.672  13.902  1.0649  0.1825 -0.1250
 1438TIP3    H125805   6.229   1.678  13.919  0.8098  0.4396  1.3937
 1438TIP3    H225806   6.103   1.611  13.969  0.0363  0.7171 -0.1098
 1439TIP3   OH225807   4.619   4.831  16.481  0.1875 -0.1206 -0.1425
 1439TIP3    H125808   4.609   4.863  16.392 -1.6552  1.5408  0.5760
 1439TIP3    H225809   4.592   4.739  16.477 -1.9422  0.4731 -0.9842
 1440TIP3   OH225810   1.386   2.720  11.139 -0.5082 -0.5094  0.3431
 1440TIP3    H125811   1.434   2.789  11.093 -0.2185 -0.7852  0.2347
 1440TIP3    H225812   1.428   2.715  11.224  0.4698 -1.6036 -0.1843
 1441TIP3   OH225813   5.635   0.317   3.330 -0.0553  0.0402 -0.0794
 1441TIP3    H125814   5.655   0.349   3.242  0.4284  0.3090  0.1265
 1441TIP3    H225815   5.661   0.224   3.328 -1.8017 -0.4835 -0.7891
 1442TIP3   OH225816   1.083   2.402   5.865 -0.5602  0.4847 -0.0255
 1442TIP3    H125817   1.129   2.346   5.928 -1.6018  0.3897  0.6833
 1442TIP3    H225818   0.996   2.363   5.858 -0.1916 -0.0543 -2.2726
 1443TIP3   OH225819   6.703   2.839   4.944  0.1960  0.7282  0.7585
 1443TIP3    H125820   6.633   2.792   4.989  0.2641  0.1880  0.3166
 1443TIP3    H225821   6.659   2.906   4.893 -0.2466 -0.9942 -1.2738
 1444TIP3   OH225822   2.227   1.766   3.274  0.2601 -0.3024 -0.3346
 1444TIP3    H125823   2.167   1.730   3.208 -0.8449 -1.8769  1.4005
 1444TIP3    H225824   2.304   1.709   3.270  0.7021  0.3194 -1.0098
 1445TIP3   OH225825   3.507   5.446  14.238  0.4968  0.0951  0.4127
 1445TIP3    H125826   3.480   5.385  14.307  0.6325 -0.5049 -0.0538
 1445TIP3    H225827   3.584   5.490  14.275 -0.4107  0.9882  1.2902
 1446TIP3   OH225828   0.288   0.420  14.827  0.0170 -0.2840  0.3023
 1446TIP3    H125829   0.344   0.487  14.866  0.0415 -0.3730  0.4212
 1446TIP3    H225830   0.199   0.445  14.853 -0.5194  2.1649 -3.1480
 1447TIP3   OH225831   4.059   0.904   5.251  0.0039  0.2776  0.0407
 1447TIP3    H125832   4.005   0.949   5.316  0.3543  1.1256 -0.2497
 1447TIP3    H225833   4.141   0.954   5.248 -0.4175  0.9327 -1.8395
 1448TIP3   OH225834   2.925   5.395  10.380  0.1542  0.6037  0.3378
 1448TIP3    H125835   2.851   5.398  10.319 -0.4192 -0.8267  0.9061
 1448TIP3    H225836   2.901   5.456  10.450 -1.2061 -0.8670  1.2261
 1449TIP3   OH225837   3.896   0.431  17.149 -0.9295 -0.8282  0.3907
 1449TIP3    H125838   3.840   0.499  17.187 -0.3314 -0.2729  0.2895
 1449TIP3    H225839   3.873   0.430  17.056 -1.2628 -1.0841  0.4741
 1450TIP3   OH225840   5.332   0.829   1.235  0.4173 -0.9978 -0.0220
 1450TIP3    H125841   5.402   0.764   1.238 -0.2206 -1.8373 -1.6830
 1450TIP3    H225842   5.253   0.779   1.214 -0.4189  0.0983  0.3871
 1451TIP3   OH225843   2.307   1.272   3.030 -0.4202 -0.5897  0.2953
 1451TIP3    H125844   2.274   1.306   2.947 -1.3738  0.3646  1.0384
 1451TIP3    H225845   2.358   1.344   3.067 -0.0772 -0.9732  0.5800
 1452TIP3   OH225846   0.342   5.206  16.010  0.3366 -1.0362  0.0806
 1452TIP3    H125847   0.370   5.115  16.008  0.9191 -0.8484 -0.6470
 1452TIP3    H225848   0.410   5.252  16.059  0.1155 -0.9581  0.3224
 1453TIP3   OH225849   6.695   1.052   3.835  0.4535 -0.0245  0.0436
 1453TIP3    H125850   6.663   1.113   3.902  3.0370  0.2210  1.1615
 1453TIP3    H225851   6.621   0.993   3.819 -0.8222  1.0120  1.7903
 1454TIP3   OH225852   0.512   6.511   5.298 -0.3280  0.2194 -0.3665
 1454TIP3    H125853   0.417   6.497   5.307 -0.6075  1.2951 -1.3430
 1454TIP3    H225854   0.524   6.530   5.205  1.1199 -1.6839 -0.6060
 1455TIP3   OH225855   2.213   1.106  11.236 -0.3770 -0.3627  0.0026
 1455TIP3    H125856   2.233   1.028  11.183  0.0823 -0.8254  0.8439
 1455TIP3    H225857   2.270   1.099  11.312  0.1287  1.1346 -0.2108
 1456TIP3   OH225858   5.181   0.600   0.648 -0.7940 -0.3330 -0.1959
 1456TIP3    H125859   5.177   0.506   0.632 -1.9872 -0.4288  0.5071
 1456TIP3    H225860   5.256   0.611   0.707  0.2852 -0.6323 -1.4809
 1457TIP3   OH225861   0.209   4.606  10.892 -0.0408 -0.0444 -0.7908
 1457TIP3    H125862   0.206   4.701  10.899  1.5789 -0.0474  0.5866
 1457TIP3    H225863   0.280   4.589  10.830  0.8436 -0.3355  0.2595
 1458TIP3   OH225864   3.275   0.824  13.550 -0.6464  0.1257 -0.2608
 1458TIP3    H125865   3.188   0.786  13.567 -0.8497  0.8561  0.4028
 1458TIP3    H225866   3.336   0.753  13.568 -0.9657  0.3117  1.7858
 1459TIP3   OH225867   0.983   5.268   0.413 -0.0623 -0.5100  0.0927
 1459TIP3    H125868   0.929   5.235   0.342  0.6759 -1.1029 -0.2135
 1459TIP3    H225869   0.996   5.193   0.471 -0.5544 -0.0648  0.7957
 1460TIP3   OH225870   4.588   4.892  10.024 -0.4650 -0.1242  0.6082
 1460TIP3    H125871   4.493   4.888  10.032 -0.7316 -0.0211 -1.7312
 1460TIP3    H225872   4.614   4.802  10.005 -0.3704  0.1686 -0.7665
 1461TIP3   OH225873   4.671   3.192  11.853 -0.3654  0.3678  0.6420
 1461TIP3    H125874   4.580   3.193  11.825 -0.4542  0.2826  0.9264
 1461TIP3    H225875   4.709   3.116  11.810  0.0096  1.3756 -0.8681
 1462TIP3   OH225876   4.835   0.827   2.550  0.0945  0.0061  0.2296
 1462TIP3    H125877   4.831   0.916   2.514  0.2554 -0.5836 -1.3341
 1462TIP3    H225878   4.916   0.825   2.600 -0.1482  0.8762  0.6781
 1463TIP3   OH225879   0.559   5.176  13.904  0.1319  0.3337 -0.1706
 1463TIP3    H125880   0.623   5.163  13.974 -1.1447  0.4737  1.0687
 1463TIP3    H225881   0.481   5.130  13.935 -0.6304  0.8717 -1.2542
 1464TIP3   OH225882   4.052   5.060   6.340 -0.5137  0.2963  0.1575
 1464TIP3    H125883   4.118   5.114   6.297 -1.9176  1.1926 -0.9449
 1464TIP3    H225884   4.018   5.115   6.411  0.0638 -0.2522  0.8758
 1465TIP3   OH225885   5.815   1.091  13.449  0.5945  0.1455  0.0679
 1465TIP3    H125886   5.776   1.034  13.515 -0.5698  1.3903  0.5125
 1465TIP3    H225887   5.850   1.164  13.499  0.8047  0.4973 -0.5899
 1466TIP3   OH225888   2.892   5.057  15.409 -0.5466  0.3333 -0.0826
 1466TIP3    H125889   2.926   5.069  15.497 -0.5108 -1.6198  0.2161
 1466TIP3    H225890   2.954   5.104  15.353 -0.4993  1.4895  0.9012
 1467TIP3   OH225891   1.197   6.316  14.436  0.0272  0.3918  0.4835
 1467TIP3    H125892   1.236   6.397  14.402  0.9443 -0.2617 -0.0498
 1467TIP3    H225893   1.110   6.313  14.396  0.6006  0.2978 -0.8069
 1468TIP3   OH225894   4.492   4.890  13.802  0.0248 -1.2879 -0.2151
 1468TIP3    H125895   4.521   4.818  13.858  1.6151 -0.6650 -0.1954
 1468TIP3    H225896   4.461   4.957  13.863 -0.1905 -1.4164 -0.1805
 1469TIP3   OH225897   4.663   5.652  11.254  0.1811 -0.3552  0.0554
 1469TIP3    H125898   4.675   5.739  11.215  0.2701 -0.0282  0.8073
 1469TIP3    H225899   4.749   5.630  11.291  0.0101 -0.5330  0.3476
 1470TIP3   OH225900   2.503   0.148   4.668 -0.0065 -0.3696 -0.0874
 1470TIP3    H125901   2.439   0.173   4.601  1.7632 -0.2996 -1.8442
 1470TIP3    H225902   2.521   0.055   4.650 -0.4855 -0.7137  1.1573
 1471TIP3   OH225903   2.209   1.232  11.637  0.3022  0.1577 -0.2736
 1471TIP3    H125904   2.280   1.290  11.665 -0.7563  0.7382  1.3495
 1471TIP3    H225905   2.253   1.151  11.612  1.8002  1.4415 -2.2303
 1472TIP3   OH225906   4.071   2.584  12.592 -0.3319 -0.0072 -0.4007
 1472TIP3    H125907   4.084   2.510  12.533 -2.5383 -0.5940 -0.2488
 1472TIP3    H225908   4.021   2.548  12.665 -3.2327  1.9434 -1.2492
 1473TIP3   OH225909   6.421   4.661   2.729  0.4482 -0.1545 -0.4169
 1473TIP3    H125910   6.462   4.737   2.686 -1.6785  1.8001  0.7923
 1473TIP3    H225911   6.427   4.681   2.823 -1.0440 -0.9801 -0.1157
 1474TIP3   OH225912   2.965   5.513   0.102  0.4458  0.4208 -0.4215
 1474TIP3    H125913   2.871   5.516   0.117  0.5696 -1.7731  1.2003
 1474TIP3    H225914   2.977   5.444   0.037  1.0099 -0.4203  0.5470
 1475TIP3   OH225915   1.037   3.104   0.159 -0.4986  0.7856  0.3788
 1475TIP3    H125916   1.113   3.046   0.160 -1.3114 -0.3810 -1.2032
 1475TIP3    H225917   0.992   3.083   0.077 -3.1393  0.6096  1.7644
 1476TIP3   OH225918   1.577   2.985  13.202 -0.3202 -0.3291  0.5804
 1476TIP3    H125919   1.636   2.948  13.267 -0.3610  0.1477  0.8880
 1476TIP3    H225920   1.579   2.922  13.129 -0.7990 -1.2126  1.3099
 1477TIP3   OH225921   1.504   2.560  15.647  0.3965  0.1770 -0.4455
 1477TIP3    H125922   1.476   2.631  15.704 -1.1587 -1.1821  0.5660
 1477TIP3    H225923   1.583   2.594  15.604 -0.2038  2.4275  0.0963
 1478TIP3   OH225924   6.378   2.697  12.621 -0.0442 -0.0904 -0.5596
 1478TIP3    H125925   6.398   2.731  12.708  0.5749 -0.8803 -0.3795
 1478TIP3    H225926   6.295   2.650  12.632  1.7656 -3.3403  0.5311
 1479TIP3   OH225927   0.954   0.220  14.049 -0.0143 -0.3829 -0.8330
 1479TIP3    H125928   0.961   0.301  13.998  0.3167 -1.0562 -1.8950
 1479TIP3    H225929   0.865   0.189  14.032 -1.1010  1.0522  1.6526
 1480TIP3   OH225930   2.000   0.189   1.727  0.4244 -0.4171  0.0640
 1480TIP3    H125931   1.969   0.225   1.643  1.6466 -0.7711 -0.5662
 1480TIP3    H225932   1.998   0.094   1.714 -0.7597 -0.5392  0.9701
 1481TIP3   OH225933   4.389   3.751   2.335 -0.5876 -0.8738  0.2742
 1481TIP3    H125934   4.428   3.770   2.420  0.1040 -0.0379 -0.2052
 1481TIP3    H225935   4.351   3.834   2.307  1.4659 -0.4009 -1.3610
 1482TIP3   OH225936   4.849   1.719   4.050 -0.2946 -0.3689 -0.1039
 1482TIP3    H125937   4.919   1.785   4.047  0.2943 -1.0015 -0.6009
 1482TIP3    H225938   4.806   1.725   3.965 -1.5274  0.7090  0.5540
 1483TIP3   OH225939   2.163   6.763  15.269  0.0900  0.1954 -0.2508
 1483TIP3    H125940   2.131   6.700  15.204  2.5274  1.4185 -2.8350
 1483TIP3    H225941   2.256   6.742  15.279  0.3438  1.7020  0.8345
 1484TIP3   OH225942   2.270   6.400   2.973  0.1933 -0.1924 -0.5093
 1484TIP3    H125943   2.352   6.376   3.016  1.3968  0.0904 -2.4993
 1484TIP3    H225944   2.292   6.403   2.880 -1.9901  0.3233 -1.0687
 1485TIP3   OH225945   5.043   1.929  11.283 -0.5360 -0.1331  0.0266
 1485TIP3    H125946   5.078   1.993  11.222 -0.7712 -0.6386 -0.6555
 1485TIP3    H225947   5.087   1.947  11.366 -1.2718  1.5002  0.1054
 1486TIP3   OH225948   4.131   0.764   2.886  0.1093 -0.0356  0.1343
 1486TIP3    H125949   4.197   0.694   2.891 -1.0808 -1.3009 -0.9598
 1486TIP3    H225950   4.131   0.803   2.973  2.1540 -0.1107  0.2212
 1487TIP3   OH225951   2.793   2.350   5.464 -0.0809 -0.7068  0.2253
 1487TIP3    H125952   2.792   2.351   5.560 -2.2358  0.7542  0.2626
 1487TIP3    H225953   2.843   2.428   5.440  1.0706 -1.4547  0.1119
 1488TIP3   OH225954   2.033   5.316   3.631 -0.4801 -0.1598  0.2082
 1488TIP3    H125955   2.051   5.294   3.539  0.8141  1.3185  0.0588
 1488TIP3    H225956   2.037   5.233   3.677 -0.2314 -0.8115 -0.9534
 1489TIP3   OH225957   5.952   2.494   1.428  0.1320 -0.0232  0.0612
 1489TIP3    H125958   5.964   2.401   1.450 -0.2192 -0.3066 -0.9028
 1489TIP3    H225959   5.887   2.525   1.491  0.4536 -0.3565  0.5672
 1490TIP3   OH225960   4.083   6.022  17.221  0.0555 -0.0171 -0.5001
 1490TIP3    H125961   4.137   5.947  17.197 -0.4068 -0.7948  0.7924
 1490TIP3    H225962   3.994   5.987  17.228 -0.7829  1.3096 -2.9844
 1491TIP3   OH225963   2.252   6.695  13.025  0.3128  0.0785 -0.4595
 1491TIP3    H125964   2.347   6.692  13.032  0.4523  0.7349 -1.7013
 1491TIP3    H225965   2.230   6.631  12.957 -0.2694 -0.9899  0.6959
 1492TIP3   OH225966   2.265   5.837   5.672 -0.1980 -0.2250  0.0897
 1492TIP3    H125967   2.358   5.854   5.689 -0.1893 -1.6286  1.7187
 1492TIP3    H225968   2.256   5.849   5.577  1.4007  0.9362  0.0316
 1493TIP3   OH225969   0.278   4.684  11.975 -0.0131  0.1614  0.4338
 1493TIP3    H125970   0.187   4.659  11.991 -0.6283  0.6654 -1.8968
 1493TIP3    H225971   0.272   4.760  11.917  1.8840 -0.2021 -0.3197
 1494TIP3   OH225972   2.952   0.030  12.656 -0.4565  0.1715  0.3488
 1494TIP3    H125973   2.897   0.092  12.608  0.2235  0.8676  0.4386
 1494TIP3    H225974   2.926   0.041  12.748 -1.7735 -1.1771  0.1732
 1495TIP3   OH225975   3.048   1.429  16.775  0.4173  0.1474 -0.4501
 1495TIP3    H125976   3.067   1.493  16.706 -1.6554 -0.1313 -1.3734
 1495TIP3    H225977   3.133   1.405  16.810  1.4278  1.4800 -1.8539
 1496TIP3   OH225978   5.453   5.201   2.135 -0.3155  0.0559  0.0174
 1496TIP3    H125979   5.523   5.142   2.165  0.0384 -0.2414 -1.2954
 1496TIP3    H225980   5.410   5.230   2.215  2.4475  1.6829  1.0423
 1497TIP3   OH225981   2.515   5.330   4.746 -0.2742  0.2825 -0.6587
 1497TIP3    H125982   2.455   5.366   4.681 -0.8406  1.0003  0.2410
 1497TIP3    H225983   2.576   5.401   4.765 -0.2791  0.1708 -0.2065
 1498TIP3   OH225984   2.415   0.071   1.380 -0.4908 -0.1610 -0.0151
 1498TIP3    H125985   2.355   0.009   1.422 -0.7524 -0.1854 -0.4183
 1498TIP3    H225986   2.501   0.046   1.412 -0.7962  0.6031  1.5006
 1499TIP3   OH225987   0.888   2.176  12.570  0.3783  0.1086  0.4534
 1499TIP3    H125988   0.817   2.230  12.606 -0.9101  0.3534 -2.2487
 1499TIP3    H225989   0.863   2.087  12.592 -1.0482  0.1580 -0.7844
 1500TIP3   OH225990   4.184   2.424   3.836 -0.4528  0.0722  0.0519
 1500TIP3    H125991   4.157   2.423   3.744 -0.1222  1.1495 -0.0676
 1500TIP3    H225992   4.175   2.333   3.865 -0.8672 -0.2150 -0.9529
 1501TIP3   OH225993   2.781   5.900  14.931  0.2352  0.5100  0.0501
 1501TIP3    H125994   2.743   5.947  15.005 -0.0179  0.4457 -0.0392
 1501TIP3    H225995   2.876   5.906  14.945  0.1822  0.0522  0.6614
 1502TIP3   OH225996   3.414   4.590   4.099 -0.1271  0.2900 -0.1832
 1502TIP3    H125997   3.459   4.612   4.181 -3.0960  2.0073  1.1110
 1502TIP3    H225998   3.443   4.657   4.037 -1.2190  1.7118  0.7902
 1503TIP3   OH225999   0.561   6.213  16.542 -0.2666  0.3334 -0.4301
 1503TIP3    H126000   0.534   6.303  16.527  0.8262  1.0884  1.7529
 1503TIP3    H226001   0.534   6.193  16.632 -0.0577 -1.3634 -0.6957
 1504TIP3   OH226002   3.524   1.477  11.120 -0.2990  0.2904  0.0128
 1504TIP3    H126003   3.588   1.496  11.051  1.1312  0.7565  1.4009
 1504TIP3    H226004   3.485   1.393  11.094  1.4299 -0.3973 -0.5283
 1505TIP3   OH226005   6.724   1.008   2.106 -0.2852 -0.1591 -0.3504
 1505TIP3    H126006   6.746   1.035   2.195 -0.9729  2.3235 -0.8723
 1505TIP3    H226007   6.665   0.933   2.118 -0.2028 -0.0005  1.2681
 1506TIP3   OH226008   4.927   3.556  16.036 -0.5517  0.5911 -0.0136
 1506TIP3    H126009   4.972   3.639  16.020  1.9035 -0.2491  1.8867
 1506TIP3    H226010   4.902   3.560  16.128  0.8804 -1.2678  0.5094
 1507TIP3   OH226011   1.742   1.117   6.682 -0.1027 -0.1010 -0.5904
 1507TIP3    H126012   1.743   1.026   6.714 -0.2473 -1.2198 -3.4879
 1507TIP3    H226013   1.656   1.126   6.641  0.5015  0.8495 -1.6712
 1508TIP3   OH226014   5.774   5.656   1.144  0.2278  0.3317  0.3793
 1508TIP3    H126015   5.685   5.676   1.115  0.2427  0.9123  0.7111
 1508TIP3    H226016   5.818   5.741   1.146  0.0045  0.4765  2.8049
 1509TIP3   OH226017   2.482   2.419   1.356  0.3186 -0.0286  0.0576
 1509TIP3    H126018   2.458   2.337   1.314 -0.1713  1.6242 -3.2191
 1509TIP3    H226019   2.574   2.432   1.331  0.8229 -0.2221  1.7397
 1510TIP3   OH226020   5.146   2.740  12.618 -0.2211  0.3541 -0.3046
 1510TIP3    H126021   5.190   2.660  12.588  0.7147  0.6955  0.1266
 1510TIP3    H226022   5.068   2.708  12.663  1.1199 -0.4787  1.5705
 1511TIP3   OH226023   1.652   3.061  11.498  0.1576  0.7826 -0.0264
 1511TIP3    H126024   1.739   3.059  11.538 -0.3848 -1.2838  1.1872
 1511TIP3    H226025   1.653   2.988  11.436 -1.5221 -1.0837  1.9917
 1512TIP3   OH226026   5.047   4.242  13.695 -0.7521  0.1974  0.2087
 1512TIP3    H126027   5.029   4.335  13.712 -0.3446  0.2150  0.5993
 1512TIP3    H226028   5.074   4.239  13.604  1.0887  0.7775  0.6842
 1513TIP3   OH226029   1.899   2.028   1.042 -0.0069 -0.5213  0.3428
 1513TIP3    H126030   1.901   2.101   0.980 -2.1035 -0.1006  0.6969
 1513TIP3    H226031   1.954   2.057   1.115  1.5049 -0.5312 -0.7478
 1514TIP3   OH226032   4.455   2.038   2.536 -0.2873  0.0305 -0.3428
 1514TIP3    H126033   4.407   2.075   2.610 -0.5400  1.2436 -1.0868
 1514TIP3    H226034   4.392   1.978   2.495  0.1572 -1.3462  0.9274
 1515TIP3   OH226035   6.688   1.076  15.186  0.3854  0.0165 -0.1412
 1515TIP3    H126036   6.775   1.041  15.166 -0.3049 -2.1841  0.4051
 1515TIP3    H226037   6.687   1.087  15.281  0.8429  2.4178 -0.3596
 1516TIP3   OH226038   1.877   5.264   5.469 -0.2228  0.7750  0.1970
 1516TIP3    H126039   1.825   5.329   5.423  1.2115  1.0142 -1.1909
 1516TIP3    H226040   1.872   5.186   5.414  0.4083  0.6342  0.3260
 1517TIP3   OH226041   6.559   5.911   2.088 -0.5210 -0.2364  0.1907
 1517TIP3    H126042   6.495   5.872   2.029  0.2423 -0.1332 -0.7231
 1517TIP3    H226043   6.509   5.977   2.137 -1.4841 -1.3213  0.7118
 1518TIP3   OH226044   1.483   0.317   0.976 -0.3125 -0.0031  0.3076
 1518TIP3    H126045   1.513   0.388   0.920 -0.0566  1.0866  1.7518
 1518TIP3    H226046   1.562   0.268   0.999 -0.1669  0.5801  1.0702
 1519TIP3   OH226047   5.169   4.750  11.147  0.7316  0.9872  0.0909
 1519TIP3    H126048   5.196   4.836  11.178 -0.7223  0.3151  3.7265
 1519TIP3    H226049   5.230   4.689  11.188  0.7210  0.1645 -1.0716
 1520TIP3   OH226050   6.300   6.417  15.801  0.8565 -0.3492 -0.1548
 1520TIP3    H126051   6.310   6.366  15.721  0.2192 -0.9274  0.1197
 1520TIP3    H226052   6.299   6.508  15.772  1.1428 -0.5363 -0.7475
 1521TIP3   OH226053   4.398   2.037  14.534  0.3135 -0.2620 -0.4749
 1521TIP3    H126054   4.483   2.035  14.490  0.7553 -1.1970  0.3768
 1521TIP3    H226055   4.362   2.123  14.512  1.6150  0.2829 -0.5884
 1522TIP3   OH226056   5.054   3.436  13.808  0.2125  0.7808  0.6091
 1522TIP3    H126057   5.005   3.511  13.842 -1.9337 -0.2456 -0.0873
 1522TIP3    H226058   5.026   3.428  13.717 -0.3077 -1.3935  0.9090
 1523TIP3   OH226059   6.376   6.377   1.493  0.0131  0.2856  0.5958
 1523TIP3    H126060   6.467   6.349   1.485 -0.9571 -2.8237 -0.6414
 1523TIP3    H226061   6.365   6.393   1.587  1.4324 -0.7791  0.9826
 1524TIP3   OH226062   6.292   5.386   0.091 -0.4944 -0.1202  0.9217
 1524TIP3    H126063   6.229   5.348   0.030  0.8869 -1.0898  0.0389
 1524TIP3    H226064   6.357   5.317   0.105  0.3793  0.8421  1.8075
 1525TIP3   OH226065   5.239   6.165   3.935  0.1714  0.1542  0.2476
 1525TIP3    H126066   5.263   6.195   4.023  1.5921 -0.2878  0.0464
 1525TIP3    H226067   5.170   6.224   3.907 -2.4537 -1.4659  2.7905
 1526TIP3   OH226068   2.966   2.973  10.987  0.1793 -0.2793  0.0324
 1526TIP3    H126069   2.982   3.024  11.067 -1.1197  1.7504 -0.9418
 1526TIP3    H226070   2.875   2.989  10.965  0.5066 -0.7563 -1.8939
 1527TIP3   OH226071   5.605   6.383   2.932 -0.2608 -0.5922 -0.0650
 1527TIP3    H126072   5.515   6.351   2.920 -0.6687  0.4854  0.0697
 1527TIP3    H226073   5.658   6.303   2.928 -1.1028 -1.1336 -1.2922
 1528TIP3   OH226074   6.607   3.720  14.513  0.0053  0.9164 -0.0762
 1528TIP3    H126075   6.599   3.624  14.512  0.2406  0.8840  0.5221
 1528TIP3    H226076   6.572   3.748  14.428  0.2396  0.2775 -0.3938
 1529TIP3   OH226077   3.072   2.769   1.185 -0.6358  0.3129 -0.1973
 1529TIP3    H126078   3.167   2.765   1.186 -0.6397 -0.5476 -1.4889
 1529TIP3    H226079   3.051   2.858   1.211  0.5213  0.5241  0.0409
 1530TIP3   OH226080   1.417   0.484  12.612  0.2080  0.4188 -0.8687
 1530TIP3    H126081   1.398   0.578  12.621  2.2294  0.9345 -1.3591
 1530TIP3    H226082   1.392   0.464  12.522 -3.1954 -0.3735  0.0937
 1531TIP3   OH226083   1.231   6.144  13.787  0.1960  0.6891  0.0216
 1531TIP3    H126084   1.173   6.213  13.821 -2.1612  0.0860 -2.3930
 1531TIP3    H226085   1.199   6.063  13.828  0.5031  0.5659  0.0212
 1532TIP3   OH226086   2.020   2.642  15.639 -0.2320 -1.0371  0.3850
 1532TIP3    H126087   1.968   2.609  15.566  0.8046  0.5512 -1.1577
 1532TIP3    H226088   1.963   2.705  15.683 -0.1008 -0.2630 -0.5149
 1533TIP3   OH226089   2.396   5.166  12.076  0.0874  0.4556  0.3590
 1533TIP3    H126090   2.420   5.076  12.099  0.1271  0.3372 -0.1277
 1533TIP3    H226091   2.463   5.220  12.119 -0.9009  0.3806  2.0620
 1534TIP3   OH226092   2.962   3.528   5.166  0.3344  0.4519 -0.3426
 1534TIP3    H126093   2.948   3.559   5.255 -2.3727  1.8495 -1.1392
 1534TIP3    H226094   2.963   3.433   5.173 -0.7032  0.5219  1.0959
 1535TIP3   OH226095   2.593   0.092  11.936  0.1990 -0.2849 -0.8113
 1535TIP3    H126096   2.533   0.078  12.009  2.3224 -1.7761  0.7813
 1535TIP3    H226097   2.562   0.172  11.894 -1.9949 -0.2014  0.7860
 1536TIP3   OH226098   5.378   5.277   3.329  0.1034  0.4641  0.2494
 1536TIP3    H126099   5.297   5.275   3.379  0.3028  0.0600  0.5586
 1536TIP3    H226100   5.427   5.351   3.365  0.6565 -0.3949  1.3076
 1537TIP3   OH226101   0.685   2.518   1.623  0.4539 -0.3406 -0.3906
 1537TIP3    H126102   0.697   2.462   1.547  0.2650 -2.6924  1.2032
 1537TIP3    H226103   0.600   2.493   1.659 -0.0799  1.6712 -0.1157
 1538TIP3   OH226104   1.922   6.300   6.078 -0.4050  0.5300 -0.2601
 1538TIP3    H126105   1.901   6.369   6.141  0.5196  0.3464  0.2585
 1538TIP3    H226106   2.006   6.326   6.040  0.5131 -0.8574  0.7568
 1539TIP3   OH226107   2.123   5.239  12.844 -0.0987 -0.3451 -0.4001
 1539TIP3    H126108   2.125   5.269  12.753  1.1115 -0.8592 -0.5705
 1539TIP3    H226109   2.102   5.146  12.838 -3.8326  0.3324  0.1208
 1540TIP3   OH226110   1.873   6.802   5.944  0.8609  0.2220 -0.0704
 1540TIP3    H126111   1.849   6.819   6.035 -1.8388  0.2227 -0.6909
 1540TIP3    H226112   1.905   6.712   5.944  1.7872  0.5221  0.9808
 1541TIP3   OH226113   2.003   1.291  11.120 -0.3121  0.2662 -0.0784
 1541TIP3    H126114   2.031   1.211  11.164 -2.1674 -0.1069  0.5243
 1541TIP3    H226115   2.083   1.328  11.082  0.7448 -1.2910  0.5647
 1542TIP3   OH226116   0.760   6.295  11.996  0.0983  0.1865  0.4522
 1542TIP3    H126117   0.671   6.266  12.015 -0.7904  3.0445  1.2252
 1542TIP3    H226118   0.753   6.344  11.914  1.6071 -2.0099 -1.0920
 1543TIP3   OH226119   5.033   4.895   4.705 -0.8896  0.4969 -0.4723
 1543TIP3    H126120   4.992   4.979   4.686 -1.2278  0.5030  0.2562
 1543TIP3    H226121   5.033   4.889   4.801 -0.3348 -0.0706 -0.4999
 1544TIP3   OH226122   0.969   6.632   3.040 -0.0450  0.4177  0.2853
 1544TIP3    H126123   1.008   6.711   3.003 -0.7013  1.1149  1.0450
 1544TIP3    H226124   1.027   6.609   3.113  0.7966 -0.4924 -0.6383
 1545TIP3   OH226125   1.159   0.374   0.636 -0.5628  0.4260 -0.4111
 1545TIP3    H126126   1.243   0.334   0.659 -1.2164 -0.2315  0.9586
 1545TIP3    H226127   1.147   0.354   0.543 -0.0543 -1.0589 -0.1772
 1546TIP3   OH226128   1.448   5.688  12.650 -0.0407 -0.0094  0.0274
 1546TIP3    H126129   1.494   5.695  12.733 -0.4649  0.3206  0.2349
 1546TIP3    H226130   1.510   5.643  12.592  0.5108  0.3672  0.3197
 1547TIP3   OH226131   0.659   6.677   6.688 -0.1597  0.2265  0.1243
 1547TIP3    H126132   0.580   6.633   6.718 -1.1966  0.6835 -1.7677
 1547TIP3    H226133   0.662   6.758   6.739 -0.7867  0.0983  0.3753
 1548TIP3   OH226134   3.884   6.284   3.714 -0.1415  0.5268  0.9282
 1548TIP3    H126135   3.890   6.188   3.718  1.3305  0.3380 -2.6937
 1548TIP3    H226136   3.838   6.302   3.632  2.2251  2.9096 -0.0060
 1549TIP3   OH226137   3.870   4.278  16.212 -0.0870 -0.1902  0.0654
 1549TIP3    H126138   3.905   4.218  16.277 -1.9223  0.3735  1.6681
 1549TIP3    H226139   3.931   4.352  16.213  0.8911 -0.9669 -0.2140
 1550TIP3   OH226140   0.539   1.758  12.400  0.2167 -0.2674 -0.3087
 1550TIP3    H126141   0.467   1.714  12.355  0.4536 -0.6507 -0.3114
 1550TIP3    H226142   0.593   1.795  12.330 -0.0706  0.1720 -0.3023
 1551TIP3   OH226143   2.815   5.846   1.764  0.7526 -0.0121 -0.2458
 1551TIP3    H126144   2.851   5.913   1.706  0.7604  0.3425  0.1592
 1551TIP3    H226145   2.838   5.876   1.852 -0.1719  0.0085  0.0013
 1552TIP3   OH226146   6.778   4.884  13.407  0.1563 -0.1872 -0.2638
 1552TIP3    H126147   6.714   4.952  13.429 -0.5714 -0.7956 -0.4172
 1552TIP3    H226148   6.770   4.874  13.312 -0.3016 -1.0095 -0.1471
 1553TIP3   OH226149   1.308   0.749  15.394 -0.2828 -0.1241  0.2552
 1553TIP3    H126150   1.213   0.751  15.389 -0.2331 -0.1545 -0.8029
 1553TIP3    H226151   1.335   0.687  15.326  0.3958 -2.0222  2.1328
 1554TIP3   OH226152   5.341   2.587  16.893 -0.2727 -0.5592  0.1954
 1554TIP3    H126153   5.401   2.629  16.832 -0.3206  1.6468  1.5716
 1554TIP3    H226154   5.256   2.592  16.850 -0.4229  1.5775  0.6202
 1555TIP3   OH226155   4.920   4.092  11.904 -0.1859 -0.1346  0.3125
 1555TIP3    H126156   4.937   4.000  11.887  2.4323  0.4846 -0.9920
 1555TIP3    H226157   4.887   4.127  11.822 -0.2056  0.2818  0.4917
 1556TIP3   OH226158   4.831   2.947   3.157 -0.0209  0.5312  0.3059
 1556TIP3    H126159   4.864   2.857   3.160  1.2871  0.8682 -1.9349
 1556TIP3    H226160   4.746   2.942   3.200  0.5349 -1.5080  1.3464
 1557TIP3   OH226161   4.735   2.624  14.061  0.1602  0.1460  0.3019
 1557TIP3    H126162   4.791   2.695  14.091  0.7767 -0.0551 -0.3418
 1557TIP3    H226163   4.794   2.566  14.012 -0.6756  0.1359 -0.7290
 1558TIP3   OH226164   3.084   0.104  14.490 -0.0432 -0.3480 -0.1382
 1558TIP3    H126165   3.066   0.197  14.484 -0.7676 -0.4741  0.0131
 1558TIP3    H226166   3.151   0.096  14.558  0.0822  0.0648 -0.2147
 1559TIP3   OH226167   3.736   5.978  10.595  0.0836 -0.0506  0.1620
 1559TIP3    H126168   3.705   6.062  10.628  0.0935 -0.5187  1.4074
 1559TIP3    H226169   3.818   5.999  10.551  0.8004  0.4249  1.6473
 1560TIP3   OH226170   3.281   3.976   1.324 -0.0351  0.5211  0.0422
 1560TIP3    H126171   3.287   3.943   1.234  1.3326 -1.5751  0.8367
 1560TIP3    H226172   3.242   4.064   1.315 -1.3982 -0.2489 -2.4287
 1561TIP3   OH226173   5.516   3.897   1.347  0.3761  0.7859  0.3341
 1561TIP3    H126174   5.446   3.844   1.386 -0.0557  0.2635 -1.0772
 1561TIP3    H226175   5.597   3.863   1.387  0.0254 -0.2977  0.1638
 1562TIP3   OH226176   6.488   4.949   4.936  0.2475 -0.0287  0.1573
 1562TIP3    H126177   6.473   4.954   4.842  0.2391 -1.2084  0.0777
 1562TIP3    H226178   6.512   4.858   4.952 -0.0533  0.0731  1.3401
 1563TIP3   OH226179   0.532   2.124   3.166 -0.3353  0.5595 -0.3569
 1563TIP3    H126180   0.465   2.187   3.136 -0.4375  0.6153 -0.0298
 1563TIP3    H226181   0.615   2.162   3.138 -0.2991  1.4693  0.8546
 1564TIP3   OH226182   5.105   0.892   2.596  0.7747 -0.2147 -0.5700
 1564TIP3    H126183   5.175   0.834   2.567  1.4306  0.4905 -0.4236
 1564TIP3    H226184   5.068   0.927   2.515 -0.5501 -1.8651 -0.7314
 1565TIP3   OH226185   6.296   2.122  13.217 -0.3016 -0.6980  0.0176
 1565TIP3    H126186   6.367   2.085  13.165  0.6632  0.8242  0.1916
 1565TIP3    H226187   6.338   2.152  13.298 -0.9682  0.9646 -0.2073
 1566TIP3   OH226188   5.323   2.266   5.247  0.1393 -0.0839 -0.2891
 1566TIP3    H126189   5.262   2.240   5.315  0.0942 -0.7567 -0.5802
 1566TIP3    H226190   5.408   2.273   5.291 -0.4338  2.9318  0.5968
 1567TIP3   OH226191   6.263   6.152  15.424  0.2863  0.3106  0.8744
 1567TIP3    H126192   6.219   6.109  15.351  1.0417  0.0792  0.5414
 1567TIP3    H226193   6.266   6.244  15.401  1.0071  0.1625  0.3466
 1568TIP3   OH226194   3.292   5.485   0.468 -0.7171  0.0273  0.3761
 1568TIP3    H126195   3.345   5.545   0.520  3.4620 -4.7597  2.5150
 1568TIP3    H226196   3.239   5.437   0.532 -0.6004 -1.4064 -0.5408
 1569TIP3   OH226197   1.559   3.850  13.223 -0.8564 -0.5839  0.4667
 1569TIP3    H126198   1.546   3.879  13.132 -0.6843  0.7718  0.8490
 1569TIP3    H226199   1.632   3.789  13.218 -0.8968 -0.5855 -0.3224
 1570TIP3   OH226200   1.411   4.178   0.959 -0.1757 -0.1003  0.6522
 1570TIP3    H126201   1.389   4.266   0.990 -2.0827 -0.7357  1.2341
 1570TIP3    H226202   1.406   4.184   0.864 -0.2646  0.4158  0.6852
 1571TIP3   OH226203   1.033   3.184  16.648 -0.0042 -0.5334  0.2114
 1571TIP3    H126204   0.992   3.140  16.573 -2.3994 -0.4368  1.3607
 1571TIP3    H226205   1.079   3.258  16.609 -1.9905  0.0891 -1.1362
 1572TIP3   OH226206   6.675   5.679   3.684 -0.3807 -0.1537 -0.3914
 1572TIP3    H126207   6.738   5.732   3.732 -2.0901  1.1595  0.5061
 1572TIP3    H226208   6.707   5.678   3.594  1.7013 -0.8192  0.3004
 1573TIP3   OH226209   1.563   5.371   1.074 -0.6330  0.2275  0.4869
 1573TIP3    H126210   1.564   5.432   1.148  0.9449 -1.0653  1.6083
 1573TIP3    H226211   1.531   5.288   1.112  1.3872 -0.7991  0.0731
 1574TIP3   OH226212   4.550   4.601   4.057 -0.5104 -0.3450  0.7461
 1574TIP3    H126213   4.617   4.586   3.990  0.8077  0.3079  1.8830
 1574TIP3    H226214   4.593   4.580   4.140 -1.9382 -0.5830  1.4483
 1575TIP3   OH226215   5.727   1.868   5.339 -0.2713  0.1310 -0.1288
 1575TIP3    H126216   5.813   1.837   5.310 -0.7240  0.0164 -1.4177
 1575TIP3    H226217   5.740   1.895   5.430  0.4351 -2.8394  0.7816
 1576TIP3   OH226218   4.396   6.717  12.864  0.0330 -0.1738  0.4284
 1576TIP3    H126219   4.387   6.629  12.899  0.6279 -1.2978 -2.0197
 1576TIP3    H226220   4.491   6.731  12.859 -0.0500  0.3826  0.3080
 1577TIP3   OH226221   0.729   1.194   1.429 -0.1874 -0.1602  0.1335
 1577TIP3    H126222   0.817   1.208   1.465 -0.8285 -0.8278  2.0919
 1577TIP3    H226223   0.712   1.101   1.446 -2.6024  0.6713  3.0886
 1578TIP3   OH226224   6.110   0.629   1.334  1.1545  0.1940 -0.2685
 1578TIP3    H126225   6.191   0.626   1.386 -0.1883 -3.7648  1.9845
 1578TIP3    H226226   6.133   0.587   1.251  1.4565 -1.0987  0.4381
 1579TIP3   OH226227   0.551   2.043  11.136  0.1209  0.9480 -0.4010
 1579TIP3    H126228   0.626   1.987  11.117  0.0389  0.4091  0.8013
 1579TIP3    H226229   0.585   2.132  11.125  1.1317  0.7272  0.7833
 1580TIP3   OH226230   0.704   3.507   2.737 -0.1040  0.4098  0.4075
 1580TIP3    H126231   0.669   3.552   2.813 -0.0394  1.5936 -0.2379
 1580TIP3    H226232   0.627   3.472   2.692 -0.0747 -1.2336  1.5466
 1581TIP3   OH226233   6.284   3.307  10.636  0.0638 -0.0735 -0.4058
 1581TIP3    H126234   6.197   3.268  10.633 -0.0693  0.1922 -0.0566
 1581TIP3    H226235   6.343   3.233  10.652  0.1280 -0.5501 -2.6002
 1582TIP3   OH226236   3.450   0.052  12.734 -0.4583  0.2259  0.4608
 1582TIP3    H126237   3.475   0.006  12.814 -0.4749 -0.1015  0.2815
 1582TIP3    H226238   3.360   0.022  12.716 -0.6044  0.6093  0.5413
 1583TIP3   OH226239   4.822   2.276  12.052  0.1364 -0.5029 -0.3943
 1583TIP3    H126240   4.744   2.230  12.084 -0.9190  0.9878 -0.7510
 1583TIP3    H226241   4.847   2.334  12.123  0.8656 -0.8620 -0.3418
 1584TIP3   OH226242   0.604   4.198   1.394 -0.0926 -0.2813  0.1780
 1584TIP3    H126243   0.653   4.161   1.320  0.2999 -1.5798  1.0558
 1584TIP3    H226244   0.565   4.278   1.359  0.1493 -0.8245 -1.4058
 1585TIP3   OH226245   5.391   3.432  15.046  0.0554  0.1368 -0.3494
 1585TIP3    H126246   5.352   3.506  14.999 -1.6075 -0.8582 -0.6133
 1585TIP3    H226247   5.320   3.399  15.102  1.1666 -0.4404  0.7770
 1586TIP3   OH226248   6.283   2.015   3.823  0.2076 -0.1412 -0.2127
 1586TIP3    H126249   6.235   2.084   3.868  0.6826 -0.3894  0.6967
 1586TIP3    H226250   6.373   2.047   3.817  0.2297 -0.2724 -0.6662
 1587TIP3   OH226251   3.070   1.810   0.424 -0.1595  0.0335 -0.0536
 1587TIP3    H126252   3.147   1.814   0.481  1.1382  1.8773 -1.7872
 1587TIP3    H226253   3.037   1.899   0.421 -2.1937 -0.6649  0.3528
 1588TIP3   OH226254   3.460   1.844  10.309 -0.0526  0.1411 -0.0848
 1588TIP3    H126255   3.453   1.875  10.399  0.3712 -1.0431  0.3777
 1588TIP3    H226256   3.448   1.922  10.255 -0.5789  0.8129  0.9900
 1589TIP3   OH226257   4.147   5.877   2.059 -0.0731  0.3735 -0.1107
 1589TIP3    H126258   4.180   5.923   2.136 -1.9566  1.1045  0.3327
 1589TIP3    H226259   4.089   5.809   2.095 -0.0067 -0.0771 -0.8469
 1590TIP3   OH226260   4.521   1.484   6.570 -0.1097 -0.0856 -0.0623
 1590TIP3    H126261   4.481   1.420   6.629  0.1147  0.2841  0.4975
 1590TIP3    H226262   4.608   1.498   6.605 -0.3950  1.0471  0.2370
 1591TIP3   OH226263   5.738   3.076   4.515 -0.0949  0.0035 -0.3194
 1591TIP3    H126264   5.808   3.067   4.580 -0.4571 -0.4127  0.0168
 1591TIP3    H226265   5.764   3.152   4.463 -0.0714  0.6815  0.6530
 1592TIP3   OH226266   3.296   1.193  14.385  0.0953  0.3097  0.4744
 1592TIP3    H126267   3.377   1.237  14.409  0.1162 -0.0980  1.1789
 1592TIP3    H226268   3.241   1.200  14.462 -0.0754 -0.4730  0.4388
 1593TIP3   OH226269   1.144   6.632   3.227  0.0835  0.0283 -0.5437
 1593TIP3    H126270   1.201   6.559   3.251  0.8807  0.1233 -2.0057
 1593TIP3    H226271   1.194   6.710   3.248 -0.9044  0.2219  1.3386
 1594TIP3   OH226272   4.046   0.312   2.462 -0.1957 -0.0848 -1.0840
 1594TIP3    H126273   4.034   0.371   2.536 -4.4100 -1.0180 -0.8044
 1594TIP3    H226274   4.047   0.370   2.386 -0.7834  0.5741 -0.6007
 1595TIP3   OH226275   5.868   0.799  17.257  0.0177 -0.6177  0.1366
 1595TIP3    H126276   5.799   0.741  17.226  0.8379 -0.0539 -3.0881
 1595TIP3    H226277   5.828   0.849  17.327 -2.4718 -1.1279 -0.8274
 1596TIP3   OH226278   0.789   3.995   2.235  0.5115  0.5537  0.1591
 1596TIP3    H126279   0.693   3.995   2.233  0.4028 -2.4144  0.6171
 1596TIP3    H226280   0.811   4.032   2.320 -0.4073 -1.3521  1.2880
 1597TIP3   OH226281   1.141   4.601   0.402  0.3282  0.3663 -0.7423
 1597TIP3    H126282   1.051   4.593   0.435 -0.0997  0.7966 -1.7614
 1597TIP3    H226283   1.195   4.597   0.481 -0.6755  1.7105  0.0613
 1598TIP3   OH226284   0.528   4.065   3.349 -0.5191 -0.1024 -0.3584
 1598TIP3    H126285   0.531   3.970   3.339 -0.5738 -0.1103 -0.3034
 1598TIP3    H226286   0.590   4.084   3.419 -2.5477 -0.3962  1.6563
 1599TIP3   OH226287   0.018   6.493  14.858 -0.0286  0.0308 -0.1428
 1599TIP3    H126288  -0.051   6.535  14.910 -0.7206 -0.1278 -0.9227
 1599TIP3    H226289  -0.027   6.423  14.810  0.8320 -0.6151 -0.0261
 1600TIP3   OH226290   3.893   3.057  11.224 -0.3774  0.1193  0.4292
 1600TIP3    H126291   3.889   2.964  11.204 -0.2707  0.4242 -1.1059
 1600TIP3    H226292   3.809   3.092  11.196  0.2494  0.7747 -0.7237
 1601TIP3   OH226293   0.893   0.337  16.460 -0.3887 -0.0082  0.2869
 1601TIP3    H126294   0.900   0.368  16.550  1.2013 -0.2019  0.2509
 1601TIP3    H226295   0.976   0.362  16.419 -1.0539  0.0166 -1.1132
 1602TIP3   OH226296   2.948   5.799   2.289  0.2361 -0.3231 -0.5915
 1602TIP3    H126297   2.885   5.752   2.234 -0.7282 -0.6231  0.7261
 1602TIP3    H226298   2.929   5.892   2.272 -1.1555 -0.3974  0.4040
 1603TIP3   OH226299   4.458   1.497   2.368  0.1303 -0.6511 -0.2015
 1603TIP3    H126300   4.368   1.502   2.398 -0.0592 -0.3336 -0.8116
 1603TIP3    H226301   4.491   1.414   2.404  0.4389  0.4423  2.2651
 1604TIP3   OH226302   3.384   3.496  11.886  0.9928  0.1695 -0.2869
 1604TIP3    H126303   3.324   3.434  11.927 -0.0014  0.7110 -0.9020
 1604TIP3    H226304   3.409   3.556  11.957  1.3383 -0.4570  0.1227
 1605TIP3   OH226305   2.702   6.293  13.223  0.5678 -0.0457  0.3111
 1605TIP3    H126306   2.606   6.292  13.228  0.5425 -1.3278 -0.0810
 1605TIP3    H226307   2.723   6.221  13.164  1.9097 -1.6376  2.5830
 1606TIP3   OH226308   2.754   6.506  13.834 -0.3002  0.4098  0.2981
 1606TIP3    H126309   2.663   6.476  13.829  0.1575 -1.0574  0.3065
 1606TIP3    H226310   2.755   6.571  13.904 -0.8358 -1.5311  2.1856
 1607TIP3   OH226311   5.813   2.864  11.028  0.3621 -0.1571 -0.2424
 1607TIP3    H126312   5.784   2.955  11.039  0.1711 -0.3127  0.6357
 1607TIP3    H226313   5.826   2.854  10.934 -1.6260  0.1895 -0.6056
 1608TIP3   OH226314   2.434   5.763  13.174  0.6194  0.1949  0.1651
 1608TIP3    H126315   2.486   5.775  13.095 -0.3878 -0.3555 -0.6059
 1608TIP3    H226316   2.498   5.742  13.242  1.4844  0.4798 -0.5439
 1609TIP3   OH226317   4.247   6.478  15.113  0.0028 -0.1039  0.0158
 1609TIP3    H126318   4.236   6.529  15.033 -0.9416 -2.4163 -1.4322
 1609TIP3    H226319   4.160   6.475  15.151  0.1573 -0.2299  0.3623
 1610TIP3   OH226320   3.217   5.860  13.109 -0.3195 -0.0892 -0.2450
 1610TIP3    H126321   3.287   5.835  13.170  0.1087 -2.4233 -1.5827
 1610TIP3    H226322   3.138   5.820  13.146 -1.2041  2.9287  1.5170
 1611TIP3   OH226323   0.503   0.760   3.099  0.5209 -0.4266  0.1504
 1611TIP3    H126324   0.563   0.832   3.081 -0.8885  0.6524 -0.4022
 1611TIP3    H226325   0.467   0.736   3.014 -0.1755 -0.7215  0.5134
 1612TIP3   OH226326   4.956   6.174  16.038  0.0674  0.3914 -0.0826
 1612TIP3    H126327   5.017   6.246  16.058 -0.1855  0.3014  1.0860
 1612TIP3    H226328   4.913   6.155  16.122 -0.1879 -0.8334 -0.4703
 1613TIP3   OH226329   1.960   3.993   2.107 -0.7441 -0.6509  0.2820
 1613TIP3    H126330   1.919   4.076   2.083 -0.8133 -0.8760 -0.3871
 1613TIP3    H226331   1.988   3.954   2.024  1.4641 -0.1860  0.7408
 1614TIP3   OH226332   4.293   1.989   3.008  0.4665 -0.1194  0.4839
 1614TIP3    H126333   4.228   2.015   2.942  0.8228 -0.0175  0.1723
 1614TIP3    H226334   4.241   1.977   3.088 -0.0664 -0.8695  0.0399
 1615TIP3   OH226335   3.694   3.343  10.748 -0.0741  0.6856  0.1602
 1615TIP3    H126336   3.691   3.370  10.656  0.8528  0.4597  0.0534
 1615TIP3    H226337   3.680   3.249  10.746 -0.1348  0.6930  0.2511
 1616TIP3   OH226338   4.826   3.039  13.478  0.1594 -0.2218 -0.3593
 1616TIP3    H126339   4.852   2.976  13.412  0.5487 -1.3470  0.8232
 1616TIP3    H226340   4.879   3.017  13.555  0.5660  1.7684 -0.0060
 1617TIP3   OH226341   2.480   2.080   0.610  0.3131  0.2321 -0.2014
 1617TIP3    H126342   2.563   2.087   0.563  0.6783  1.2944  0.5894
 1617TIP3    H226343   2.444   2.168   0.610 -0.5051 -0.0888  0.0580
 1618TIP3   OH226344   2.479   0.180   3.309  0.2520  0.0197 -0.0460
 1618TIP3    H126345   2.501   0.160   3.218  1.6654  0.3961  0.1843
 1618TIP3    H226346   2.557   0.153   3.358 -1.3150 -2.3325  1.3604
 1619TIP3   OH226347   6.478   1.164  14.006 -0.1606 -0.4071 -0.4707
 1619TIP3    H126348   6.570   1.147  14.026 -0.1341  0.0258 -0.2017
 1619TIP3    H226349   6.429   1.111  14.068 -0.0815  1.7379  1.5549
 1620TIP3   OH226350   2.866   5.017   4.272 -0.1363  0.1951 -0.4863
 1620TIP3    H126351   2.930   4.948   4.253 -1.1202 -0.8469 -0.1140
 1620TIP3    H226352   2.913   5.098   4.254  0.3547 -0.5817 -3.3050
 1621TIP3   OH226353   4.345   0.344  15.448  0.0646 -0.1416  0.2883
 1621TIP3    H126354   4.286   0.344  15.523  0.5670  0.8872  0.6999
 1621TIP3    H226355   4.292   0.380  15.376 -0.5852 -1.6340 -0.0228
 1622TIP3   OH226356   4.418   5.885   3.718 -0.2941 -0.7835 -0.2711
 1622TIP3    H126357   4.343   5.911   3.665 -0.3415 -1.4782 -0.5631
 1622TIP3    H226358   4.473   5.834   3.658  0.1150 -0.7757  0.0944
 1623TIP3   OH226359   0.019   3.290  13.794  0.1972  0.0914  0.1658
 1623TIP3    H126360   0.008   3.327  13.707  0.4500 -1.7890 -0.7312
 1623TIP3    H226361   0.082   3.219  13.782 -0.3137 -0.6843  1.7283
 1624TIP3   OH226362   1.608   2.892  16.018 -0.2860  0.2109  0.3413
 1624TIP3    H126363   1.634   2.984  16.015 -0.5701  0.2871  0.1882
 1624TIP3    H226364   1.620   2.867  16.110 -2.8170  1.1742  1.0272
 1625TIP3   OH226365   3.358   5.005  15.301 -0.8158 -0.6569 -0.3783
 1625TIP3    H126366   3.452   5.019  15.291 -0.8565 -1.0393 -1.4278
 1625TIP3    H226367   3.348   4.909  15.302 -0.9019 -0.7215  2.9322
 1626TIP3   OH226368   6.806   5.314   4.668 -0.2020  0.1624 -0.1181
 1626TIP3    H126369   6.809   5.239   4.728  0.0392  0.8061  0.6870
 1626TIP3    H226370   6.788   5.389   4.724  2.1853  1.1221 -0.4981
 1627TIP3   OH226371   5.468   5.072   4.317  0.1315 -0.4642 -0.0097
 1627TIP3    H126372   5.395   5.053   4.375  0.0951  1.1399  0.5083
 1627TIP3    H226373   5.543   5.030   4.360 -0.0240  0.0927  0.8253
 1628TIP3   OH226374   1.295   1.387   5.295 -0.3015 -0.3035  0.1852
 1628TIP3    H126375   1.329   1.311   5.341 -0.0478  0.3024  1.0240
 1628TIP3    H226376   1.200   1.383   5.309 -0.3054 -0.5459  0.0915
 1629TIP3   OH226377   1.188   6.424  15.099 -0.2581 -0.1087  0.3327
 1629TIP3    H126378   1.178   6.507  15.052  3.1834  0.5450  0.4643
 1629TIP3    H226379   1.277   6.395  15.077 -0.7986 -3.0092  1.5309
 1630TIP3   OH226380   0.928   0.129   5.236  0.3608 -0.0845 -0.8269
 1630TIP3    H126381   0.898   0.216   5.260 -0.1300 -0.3729 -0.3752
 1630TIP3    H226382   0.922   0.126   5.141 -0.4457  0.0809 -0.7837
 1631TIP3   OH226383   3.343   4.739  14.751  0.2277  0.0203  0.1345
 1631TIP3    H126384   3.272   4.792  14.789 -0.0486 -0.5855  0.4649
 1631TIP3    H226385   3.299   4.677  14.694  0.5001 -0.3300  0.3057
 1632TIP3   OH226386   0.891   4.981   3.909 -0.5256  0.0559  0.7634
 1632TIP3    H126387   0.872   4.966   3.817 -1.3039  0.5395  0.8329
 1632TIP3    H226388   0.947   4.908   3.935  0.2565  0.2768 -0.2505
 1633TIP3   OH226389   2.539   5.328  10.441 -0.0986  1.1662 -0.4406
 1633TIP3    H126390   2.457   5.315  10.488 -0.0018  0.4002 -0.4661
 1633TIP3    H226391   2.513   5.364  10.356 -0.2098  3.4317  0.5021
 1634TIP3   OH226392   2.432   5.361   3.940 -0.2482 -0.1397 -0.4171
 1634TIP3    H126393   2.397   5.352   4.029  1.7949  2.3900  0.7604
 1634TIP3    H226394   2.523   5.332   3.947 -0.3959 -1.1143 -2.0356
 1635TIP3   OH226395   5.331   2.364   0.062  0.4562  0.0884 -0.1795
 1635TIP3    H126396   5.261   2.299   0.050 -0.8220  1.6727 -1.9676
 1635TIP3    H226397   5.410   2.312   0.077 -0.7990 -1.8122  0.2426
 1636TIP3   OH226398   2.913   0.529  14.185 -0.3152  0.0259  0.5972
 1636TIP3    H126399   2.884   0.462  14.123  0.2296  1.9861 -1.9440
 1636TIP3    H226400   2.920   0.608  14.133  5.7603  0.6783  1.7428
 1637TIP3   OH226401   1.632   3.148   4.121 -0.2716  0.6688  0.2211
 1637TIP3    H126402   1.645   3.198   4.040  0.3791 -1.6830 -1.2221
 1637TIP3    H226403   1.600   3.062   4.092  1.8782 -0.9588  2.2449
 1638TIP3   OH226404   5.591   4.630  15.187 -0.3406  0.0718  0.4684
 1638TIP3    H126405   5.544   4.703  15.227  1.5922  0.0586  2.9684
 1638TIP3    H226406   5.583   4.559  15.251  0.8461 -0.7403 -0.2531
 1639TIP3   OH226407   3.651   0.644  15.726 -0.3526 -0.0911  0.3947
 1639TIP3    H126408   3.576   0.595  15.759 -1.7657  1.1385 -0.8336
 1639TIP3    H226409   3.659   0.619  15.634  0.7284 -0.1729  0.4966
 1640TIP3   OH226410   1.768   2.718   0.036 -0.4102  0.0481 -0.1308
 1640TIP3    H126411   1.692   2.675  -0.004  1.1521 -2.2450 -0.8313
 1640TIP3    H226412   1.834   2.650   0.042  2.2370  2.3070 -1.1301
 1641TIP3   OH226413   5.633   2.165   1.265  0.2063  0.7743 -0.0636
 1641TIP3    H126414   5.629   2.134   1.175  0.3364  1.8121 -0.4355
 1641TIP3    H226415   5.704   2.115   1.305 -0.1177  0.0224 -0.4081
 1642TIP3   OH226416   2.904   2.388  16.141 -0.1034  0.4820 -0.3077
 1642TIP3    H126417   2.939   2.317  16.195  1.2183  1.7152  0.5243
 1642TIP3    H226418   2.979   2.419  16.090 -1.2886 -0.5635 -2.8388
 1643TIP3   OH226419   0.122   1.480   6.196 -0.1854  0.1227 -0.1891
 1643TIP3    H126420   0.167   1.396   6.190 -0.1161  0.0740  0.9120
 1643TIP3    H226421   0.128   1.517   6.107 -0.4520 -1.1378 -0.7493
 1644TIP3   OH226422   0.206   6.415  11.925 -0.3594  0.4729 -0.0152
 1644TIP3    H126423   0.190   6.504  11.958 -2.0151  0.2859 -0.2185
 1644TIP3    H226424   0.135   6.363  11.962  1.2336 -1.0461  1.0346
 1645TIP3   OH226425   6.181   4.775  14.156 -0.0130  0.2649  0.6154
 1645TIP3    H126426   6.236   4.747  14.229 -0.8135 -1.9887  0.4570
 1645TIP3    H226427   6.101   4.722  14.165 -2.1549  3.2900  0.7708
 1646TIP3   OH226428   5.561   4.028  13.963 -0.0661 -0.4204  0.5618
 1646TIP3    H126429   5.637   4.060  13.914 -1.5509  0.9990 -0.9412
 1646TIP3    H226430   5.549   4.092  14.033 -0.0633 -0.4881  0.6244
 1647TIP3   OH226431   5.655   0.824   0.826 -0.2262 -0.5518 -0.6742
 1647TIP3    H126432   5.636   0.845   0.917 -0.0730  0.0197 -0.7703
 1647TIP3    H226433   5.572   0.842   0.780 -0.2600 -0.6934 -0.6669
 1648TIP3   OH226434   4.478   4.359  16.101  0.1227  0.3758 -0.3902
 1648TIP3    H126435   4.503   4.301  16.029 -0.6827 -1.5825  0.8341
 1648TIP3    H226436   4.555   4.414  16.116  0.3363  0.7912 -2.6709
 1649TIP3   OH226437   6.665   5.015   4.327  0.0362 -0.2358 -0.7199
 1649TIP3    H126438   6.647   5.099   4.368 -0.5437 -1.7964  2.5599
 1649TIP3    H226439   6.731   4.974   4.384  1.7903 -1.2671 -3.3026
 1650TIP3   OH226440   2.568   5.885  14.482 -0.4888  0.0052 -0.1235
 1650TIP3    H126441   2.645   5.834  14.508 -0.3672  0.3617  0.2262
 1650TIP3    H226442   2.510   5.881  14.558 -1.3603 -1.2612 -0.8010
 1651TIP3   OH226443   3.840   6.582   4.301  0.5944 -0.3436 -0.0019
 1651TIP3    H126444   3.875   6.532   4.375  1.8852  0.0363 -0.3364
 1651TIP3    H226445   3.872   6.536   4.224  0.1128 -0.1415 -0.3234
 1652TIP3   OH226446   3.380   0.877   4.200  0.0356 -0.1374 -0.4525
 1652TIP3    H126447   3.379   0.928   4.119  0.0043 -0.2571 -0.5264
 1652TIP3    H226448   3.289   0.876   4.230  0.4488  2.6098  1.2665
 1653TIP3   OH226449   2.000   2.368  14.114 -1.0472 -0.4518 -0.2930
 1653TIP3    H126450   1.996   2.279  14.079  1.2095 -1.0288  0.7567
 1653TIP3    H226451   2.029   2.421  14.040 -1.0115 -0.8181 -0.5482
 1654TIP3   OH226452   6.690   1.365  14.052  0.2062  0.4587  0.5934
 1654TIP3    H126453   6.699   1.294  14.116 -4.9153 -1.5037 -0.3930
 1654TIP3    H226454   6.660   1.440  14.104  0.8461  0.4154  1.0384
 1655TIP3   OH226455   1.227   2.094   0.285  0.0945 -0.1279  0.8223
 1655TIP3    H126456   1.311   2.138   0.296  0.1896  0.1720 -0.8352
 1655TIP3    H226457   1.162   2.156   0.317  0.1991  1.4681 -1.7443
 1656TIP3   OH226458   0.478   2.901  12.238 -0.4051 -0.1822  0.9836
 1656TIP3    H126459   0.406   2.963  12.226  0.1051  0.3004  0.3717
 1656TIP3    H226460   0.480   2.850  12.157  0.2515  0.1331  0.7976
 1657TIP3   OH226461   1.427   6.323  15.859 -0.1335 -0.5491 -0.1776
 1657TIP3    H126462   1.375   6.321  15.779 -0.2946  0.8050 -0.1410
 1657TIP3    H226463   1.408   6.241  15.903 -1.5696 -0.4614 -0.5978
 1658TIP3   OH226464   2.700   3.241  11.938  0.0506 -0.1179 -0.6319
 1658TIP3    H126465   2.611   3.244  11.905 -0.4826 -0.6199  0.6858
 1658TIP3    H226466   2.691   3.220  12.031  1.4279  1.9814  0.0575
 1659TIP3   OH226467   3.445   3.704   1.833  0.2208 -0.0219 -0.2553
 1659TIP3    H126468   3.419   3.770   1.898 -3.7413  0.2898 -1.8562
 1659TIP3    H226469   3.387   3.630   1.850  1.4304 -1.2698 -1.3621
 1660TIP3   OH226470   1.966   5.746  12.406 -0.4634  0.1129  0.3213
 1660TIP3    H126471   1.893   5.728  12.464 -0.1991 -2.2989 -0.0087
 1660TIP3    H226472   2.038   5.770  12.464 -1.1428  1.2892  0.7129
 1661TIP3   OH226473   6.289   1.101   4.337  0.3444 -0.0980 -0.0030
 1661TIP3    H126474   6.265   1.021   4.383 -2.0030 -1.3365 -3.0086
 1661TIP3    H226475   6.352   1.072   4.270 -1.6439  0.1168 -2.0985
 1662TIP3   OH226476   1.601   1.443  11.271  0.2160 -0.1647  0.0199
 1662TIP3    H126477   1.677   1.389  11.292  0.7283 -0.1059 -1.5526
 1662TIP3    H226478   1.638   1.526  11.242 -0.4683  0.0677 -0.1927
 1663TIP3   OH226479   1.122   0.474  15.176 -0.1926 -0.4434  0.0349
 1663TIP3    H126480   1.120   0.492  15.270  0.1555  0.0913 -0.0602
 1663TIP3    H226481   1.195   0.525  15.143 -0.6167 -0.2479 -0.6142
 1664TIP3   OH226482   5.861   4.418  12.316  0.1669 -0.1123 -0.1169
 1664TIP3    H126483   5.925   4.386  12.379  0.6267  0.8945 -0.0501
 1664TIP3    H226484   5.886   4.376  12.234  0.5601 -0.1923  0.0383
 1665TIP3   OH226485   3.521   6.511  13.956 -0.1653  0.3044  0.0088
 1665TIP3    H126486   3.481   6.513  14.043 -0.3689  1.3924 -0.0911
 1665TIP3    H226487   3.565   6.426  13.952 -1.0840 -0.2353  0.7465
 1666TIP3   OH226488   6.155   1.131  16.232 -0.3805 -0.1260  0.1573
 1666TIP3    H126489   6.070   1.112  16.190 -1.0478 -0.3396  1.5580
 1666TIP3    H226490   6.188   1.045  16.257 -1.0889  0.1212  2.1055
 1667TIP3   OH226491   5.869   3.323   6.132 -0.4348  0.3502 -0.5214
 1667TIP3    H126492   5.861   3.263   6.206  0.5560  0.3480 -0.3994
 1667TIP3    H226493   5.783   3.362   6.123 -1.3333 -1.6325 -1.0741
 1668TIP3   OH226494   2.946   2.704  12.412 -0.4141 -0.1603  0.0376
 1668TIP3    H126495   3.018   2.680  12.470 -0.2322 -0.4329 -0.2904
 1668TIP3    H226496   2.966   2.658  12.330 -1.4037 -0.9168  0.2064
 1669TIP3   OH226497   6.681   3.674   4.475  0.4940 -0.2746 -0.0816
 1669TIP3    H126498   6.592   3.705   4.490 -0.0605 -0.8450 -1.9610
 1669TIP3    H226499   6.736   3.750   4.492 -0.4845  0.5641 -0.5259
 1670TIP3   OH226500   1.617   3.240   5.860  0.3187 -0.6492  0.3678
 1670TIP3    H126501   1.530   3.275   5.873  0.9056  0.6217  1.0755
 1670TIP3    H226502   1.623   3.167   5.921 -0.5157 -1.2735 -0.2809
 1671TIP3   OH226503   2.439   2.139   5.946  0.4663  0.3374 -0.2325
 1671TIP3    H126504   2.403   2.228   5.939  1.0374  0.5616 -0.4461
 1671TIP3    H226505   2.387   2.097   6.013  0.3451  0.9173  0.0454
 1672TIP3   OH226506   4.336   1.730  17.263  0.0718  0.2996 -0.0635
 1672TIP3    H126507   4.381   1.697  17.341 -0.5272  0.4113  0.3350
 1672TIP3    H226508   4.407   1.761  17.207  0.5806 -0.6619  0.0165
 1673TIP3   OH226509   5.183   1.584  11.780  0.2034  0.1868  0.2367
 1673TIP3    H126510   5.263   1.594  11.729 -1.0389  4.1671 -1.3198
 1673TIP3    H226511   5.182   1.660  11.838 -1.1476 -1.2851  2.2712
 1674TIP3   OH226512   1.456   6.290   4.897 -0.5520  0.7083 -0.1428
 1674TIP3    H126513   1.388   6.325   4.956 -0.7097 -1.0368  0.7752
 1674TIP3    H226514   1.411   6.223   4.846 -0.3530  2.0185 -2.1510
 1675TIP3   OH226515   1.337   6.219  12.186 -0.0224 -0.0921 -0.2583
 1675TIP3    H126516   1.399   6.160  12.228  1.5128  1.0007 -0.8801
 1675TIP3    H226517   1.296   6.166  12.117  0.2653 -0.8126  0.1166
 1676TIP3   OH226518   4.142   3.974   4.153 -0.1855  0.7471 -0.1789
 1676TIP3    H126519   4.133   3.940   4.242  1.0158 -0.4712 -0.4799
 1676TIP3    H226520   4.072   4.038   4.144 -0.6283  0.5367  1.4752
 1677TIP3   OH226521   2.812   5.603   0.559 -0.5946 -0.5412 -0.1116
 1677TIP3    H126522   2.879   5.592   0.491 -0.4484  0.5065 -0.1579
 1677TIP3    H226523   2.740   5.646   0.513 -0.9579 -0.8859  0.1368
 1678TIP3   OH226524   5.283   2.555  12.955  0.6464  0.2380 -0.0910
 1678TIP3    H126525   5.189   2.566  12.943  0.5998 -0.6901 -0.6740
 1678TIP3    H226526   5.319   2.643  12.942 -0.0640  0.4693 -0.5681
 1679TIP3   OH226527   1.836   6.717   4.292 -0.0898 -0.4787  0.1282
 1679TIP3    H126528   1.812   6.628   4.263  2.4993 -0.8637 -1.1832
 1679TIP3    H226529   1.854   6.707   4.385  1.7233 -1.7871 -0.2972
 1680TIP3   OH226530   3.144   5.878  16.194 -0.2087 -0.1207 -0.1130
 1680TIP3    H126531   3.179   5.965  16.173 -0.8103  0.2820  0.5253
 1680TIP3    H226532   3.112   5.845  16.110 -1.4061  0.9328 -0.1006
 1681TIP3   OH226533   4.576   2.984  12.544 -0.1794  0.1101  0.5302
 1681TIP3    H126534   4.511   2.938  12.597  0.0538  0.0426  0.7570
 1681TIP3    H226535   4.547   2.970  12.454  1.0796 -2.3898  0.4353
 1682TIP3   OH226536   1.379   0.573   3.493 -0.0279 -0.3094 -0.3374
 1682TIP3    H126537   1.291   0.585   3.459  0.2594  1.2966 -0.6217
 1682TIP3    H226538   1.368   0.571   3.588 -0.4778 -1.2958 -0.4021
 1683TIP3   OH226539   3.480   2.459   3.954  0.1654 -0.0416 -0.0485
 1683TIP3    H126540   3.427   2.390   3.915  0.2492  0.6410 -1.4433
 1683TIP3    H226541   3.569   2.425   3.953  0.4150  0.5418 -1.9657
 1684TIP3   OH226542   1.117   0.726  11.250 -0.0958  0.3100  0.3888
 1684TIP3    H126543   1.142   0.808  11.291  0.5980  0.4085 -0.2154
 1684TIP3    H226544   1.139   0.737  11.158 -1.5256  0.0636 -0.0212
 1685TIP3   OH226545   0.134   4.623   3.899  0.1084 -0.3211 -0.2606
 1685TIP3    H126546   0.151   4.672   3.818 -1.4682 -0.4534 -0.6978
 1685TIP3    H226547   0.173   4.537   3.883  0.8454  0.0295 -0.4006
 1686TIP3   OH226548   6.546   1.305   1.214  0.3554  0.3059  0.6290
 1686TIP3    H126549   6.638   1.327   1.199  0.4354  0.9589  1.9482
 1686TIP3    H226550   6.547   1.213   1.240  0.8591  0.7757  2.3877
 1687TIP3   OH226551   0.311   0.312   5.282 -0.0985 -0.0397  0.5100
 1687TIP3    H126552   0.399   0.335   5.311 -0.1486  0.0278  0.6105
 1687TIP3    H226553   0.253   0.367   5.335 -0.2466 -0.8569  1.2182
 1688TIP3   OH226554   2.900   0.233  11.799  0.0498 -0.0773 -1.1701
 1688TIP3    H126555   2.954   0.193  11.867 -0.5543 -1.8109 -1.6638
 1688TIP3    H226556   2.926   0.189  11.719 -0.3899  0.7912 -1.8010
 1689TIP3   OH226557   3.019   4.692  14.201 -0.6591  0.3441 -0.5199
 1689TIP3    H126558   3.102   4.735  14.178  0.4663 -0.9104  0.9572
 1689TIP3    H226559   3.017   4.614  14.145  0.5663 -1.0667  1.2683
 1690TIP3   OH226560   5.202   5.078  14.381  0.0342  0.3601  0.1209
 1690TIP3    H126561   5.153   5.110  14.456  0.7395  1.6861  0.0302
 1690TIP3    H226562   5.292   5.106  14.396  1.2530 -3.4938  1.1590
 1691TIP3   OH226563   5.157   3.698  12.566 -0.0101  0.4992 -0.2753
 1691TIP3    H126564   5.249   3.701  12.594  0.6035  0.2347 -2.0653
 1691TIP3    H226565   5.124   3.786  12.585  0.8560  0.8487 -0.3082
 1692TIP3   OH226566   0.750   1.856   1.778  0.0240 -0.0634 -0.1279
 1692TIP3    H126567   0.775   1.911   1.853 -0.5321  0.6579 -0.4612
 1692TIP3    H226568   0.665   1.819   1.803  1.3913 -2.6282  1.0663
 1693TIP3   OH226569   6.667   1.407   5.490  0.7290  0.0911 -0.5597
 1693TIP3    H126570   6.658   1.408   5.585 -2.4332  2.5942 -0.7189
 1693TIP3    H226571   6.751   1.450   5.473  0.9090  0.4584  1.0784
 1694TIP3   OH226572   5.765   6.528   5.099 -0.0059 -0.3998 -0.4645
 1694TIP3    H126573   5.694   6.466   5.116  0.1252  0.2108  3.2428
 1694TIP3    H226574   5.779   6.572   5.183  1.3569  3.1811 -2.3545
 1695TIP3   OH226575   6.096   4.019   5.859  0.1450 -0.5182 -0.2510
 1695TIP3    H126576   6.088   3.957   5.932 -1.0885 -1.1960 -0.9277
 1695TIP3    H226577   6.123   4.101   5.900  1.4553 -1.3891  0.7171
 1696TIP3   OH226578   3.955   5.155  17.031 -0.1340 -0.4399 -0.3579
 1696TIP3    H126579   3.921   5.195  16.951  1.0777  0.2236 -0.5677
 1696TIP3    H226580   3.999   5.227  17.077 -0.8765 -0.7959  0.9454
 1697TIP3   OH226581   5.581   2.305   1.554  0.2179  0.6381 -0.5100
 1697TIP3    H126582   5.622   2.222   1.529  1.2492 -0.1226  3.0244
 1697TIP3    H226583   5.499   2.308   1.504 -0.4403 -3.1166  0.0200
 1698TIP3   OH226584   1.964   3.991  11.697  0.1637 -0.1632  0.0709
 1698TIP3    H126585   1.934   3.920  11.640  2.1808 -0.9061 -0.1461
 1698TIP3    H226586   1.888   4.049  11.705 -1.0218 -1.4791 -1.1009
 1699TIP3   OH226587   4.819   2.262  13.196  0.0369 -0.5853 -0.1517
 1699TIP3    H126588   4.894   2.228  13.147 -0.9400 -0.3732 -1.8385
 1699TIP3    H226589   4.813   2.354  13.172 -1.1246 -0.7430 -0.5320
 1700TIP3   OH226590   4.446   5.511  11.012 -0.4368 -0.2936  0.1378
 1700TIP3    H126591   4.354   5.535  11.025 -1.0897 -2.2391 -0.5588
 1700TIP3    H226592   4.464   5.445  11.080  0.1689 -0.5803 -0.2878
 1701TIP3   OH226593   2.914   5.953   1.988  0.1907 -0.2571 -0.2521
 1701TIP3    H126594   2.987   6.011   1.971  1.0603 -1.0826  0.5282
 1701TIP3    H226595   2.878   5.984   2.072  0.5505 -0.7352  0.0807
 1702TIP3   OH226596   5.970   4.652   1.789 -0.5448 -0.1801 -0.7294
 1702TIP3    H126597   5.929   4.565   1.785 -0.4901 -0.2475  0.0597
 1702TIP3    H226598   6.060   4.635   1.813  0.1047 -0.0558 -2.8480
 1703TIP3   OH226599   5.294   6.598  13.798  0.5100  0.2079  0.0187
 1703TIP3    H126600   5.263   6.557  13.718  1.9246  2.3024 -1.7042
 1703TIP3    H226601   5.389   6.603  13.787  0.9361 -0.6654  2.4807
 1704TIP3   OH226602   4.094   1.400  15.375  0.3738 -0.2988  0.0519
 1704TIP3    H126603   4.075   1.376  15.285  1.0252 -1.6473  0.2494
 1704TIP3    H226604   4.125   1.319  15.416  0.2523  0.3188  1.4442
 1705TIP3   OH226605   4.774   6.099   0.852  0.3372  0.4115  0.6451
 1705TIP3    H126606   4.755   6.105   0.758  0.2842  2.6320  0.7609
 1705TIP3    H226607   4.743   6.012   0.876 -1.0601  0.3679 -1.0870
 1706TIP3   OH226608   0.169   0.910   5.334  0.3482 -0.1057 -0.0073
 1706TIP3    H126609   0.162   0.878   5.244  0.2084 -3.3084  1.0234
 1706TIP3    H226610   0.079   0.927   5.361  0.4915  2.5470 -0.9166
 1707TIP3   OH226611   3.879   5.179   3.152 -0.0428  0.0221 -0.4657
 1707TIP3    H126612   3.903   5.089   3.173  1.1784  0.5778  0.5963
 1707TIP3    H226613   3.825   5.207   3.226  1.0391  0.7252  0.0650
 1708TIP3   OH226614   4.977   6.550   2.985  0.8838 -0.0787 -0.7374
 1708TIP3    H126615   4.976   6.521   3.076  0.2489  0.4992 -0.5520
 1708TIP3    H226616   4.906   6.502   2.943 -0.7623  1.7915 -0.2196
 1709TIP3   OH226617   3.309   2.079  14.253 -0.2285  0.8265  0.3172
 1709TIP3    H126618   3.251   2.080  14.329 -0.8685  1.3378 -0.1772
 1709TIP3    H226619   3.273   2.144  14.193  0.4009  0.5921 -0.3341
 1710TIP3   OH226620   3.983   3.311  11.316 -0.2273 -0.1545  0.4542
 1710TIP3    H126621   3.946   3.225  11.298 -0.2868 -0.1786  0.6919
 1710TIP3    H226622   3.936   3.370  11.256  0.1709 -0.3632 -0.0685
 1711TIP3   OH226623   6.814   0.011   4.641  0.3129  0.1598  0.4549
 1711TIP3    H126624   6.784  -0.078   4.623  0.5944  0.1489  0.0231
 1711TIP3    H226625   6.887   0.024   4.581 -0.0625  0.8739  0.1413
 1712TIP3   OH226626   0.629   2.908  12.470  0.5620 -0.2870  0.0189
 1712TIP3    H126627   0.571   2.912  12.393  1.1698 -0.8066 -0.4712
 1712TIP3    H226628   0.692   2.840  12.449  0.6423 -0.5382  1.0567
 1713TIP3   OH226629   4.719   2.283   2.682 -0.1227  0.6997 -0.1387
 1713TIP3    H126630   4.634   2.271   2.724  0.0245  0.8609  0.2033
 1713TIP3    H226631   4.769   2.337   2.743  0.2226  0.6130 -0.3425
 1714TIP3   OH226632   0.100   6.118  12.903 -0.2897 -0.6554 -0.3056
 1714TIP3    H126633   0.111   6.066  12.824  1.0425  0.4662 -0.8977
 1714TIP3    H226634   0.134   6.062  12.973 -0.1272 -1.1100 -0.7454
 1715TIP3   OH226635   1.864   3.390  12.166  0.0985 -0.0881 -0.1575
 1715TIP3    H126636   1.827   3.469  12.125  0.4517 -0.0081 -0.3288
 1715TIP3    H226637   1.926   3.357  12.101  0.5170 -0.0764  0.2332
 1716TIP3   OH226638   5.334   5.555   5.517 -0.1463  0.1863 -0.2310
 1716TIP3    H126639   5.312   5.601   5.436  0.1059 -0.3528 -0.6104
 1716TIP3    H226640   5.422   5.521   5.503  1.0629  2.4319  1.3217
 1717TIP3   OH226641   4.519   0.717   2.030 -0.1945 -0.6544 -0.2504
 1717TIP3    H126642   4.454   0.747   1.967  0.0564 -1.3983 -0.8769
 1717TIP3    H226643   4.581   0.789   2.038 -0.9241 -0.0511  0.1368
 1718TIP3   OH226644   4.367   4.339  11.353  0.5516 -0.1611  0.2458
 1718TIP3    H126645   4.432   4.403  11.381  1.7396 -1.1421 -0.1623
 1718TIP3    H226646   4.398   4.311  11.266 -0.5460 -0.4849 -0.0514
 1719TIP3   OH226647   3.924   1.889   1.919 -0.3288  0.5374  0.3296
 1719TIP3    H126648   3.934   1.891   1.824 -0.7314  1.7659  0.3064
 1719TIP3    H226649   3.906   1.979   1.944  0.4675  0.3670  1.6555
 1720TIP3   OH226650   6.806   1.545   1.595 -0.1693 -0.1491 -0.9698
 1720TIP3    H126651   6.751   1.477   1.634  0.0992  0.2265  0.1108
 1720TIP3    H226652   6.750   1.622   1.592  0.0856  0.0603 -0.4729
 1721TIP3   OH226653   0.324   4.100  13.023 -0.1865 -0.0283 -0.3097
 1721TIP3    H126654   0.349   4.145  12.942  0.0651 -0.4077 -0.4463
 1721TIP3    H226655   0.406   4.061  13.054 -0.5463 -1.0756 -0.6247
 1722TIP3   OH226656   6.681   6.716   2.905 -0.0022  0.4087  0.1788
 1722TIP3    H126657   6.589   6.742   2.896  0.3472  1.3339 -1.0496
 1722TIP3    H226658   6.697   6.656   2.832  0.2543 -0.1273  0.6659
 1723TIP3   OH226659   1.942   4.869   4.100  0.0205 -0.0754  0.3310
 1723TIP3    H126660   1.949   4.841   4.191  0.1897 -0.7853  0.1054
 1723TIP3    H226661   1.978   4.796   4.049  2.1875  1.2792 -0.1860
 1724TIP3   OH226662   0.758   4.853   1.553 -0.3127 -0.1952  0.4328
 1724TIP3    H126663   0.682   4.805   1.521  0.9143 -0.3881 -2.4696
 1724TIP3    H226664   0.745   4.943   1.524  0.3079 -0.1264  0.3398
 1725TIP3   OH226665   1.529   2.110  15.244  0.0336 -0.1968 -0.3549
 1725TIP3    H126666   1.481   2.035  15.209 -0.0353 -0.7955  0.9677
 1725TIP3    H226667   1.617   2.102  15.208 -0.3862 -0.0591 -1.4265
 1726TIP3   OH226668   6.404   4.524   4.974 -0.0609  0.7443  0.0178
 1726TIP3    H126669   6.422   4.563   5.060 -0.0981  0.9077 -0.0484
 1726TIP3    H226670   6.487   4.483   4.948  0.3752  1.8975 -0.5014
 1727TIP3   OH226671   5.640   0.517  12.940 -0.7332  0.4566 -0.3121
 1727TIP3    H126672   5.576   0.511  13.011 -0.2235  0.6985  0.1804
 1727TIP3    H226673   5.723   0.537  12.984  0.0200 -1.4392 -0.7711
 1728TIP3   OH226674   2.929   2.832  16.198 -0.1559  0.1999  0.4091
 1728TIP3    H126675   2.929   2.924  16.225 -0.3071 -0.2196  1.8933
 1728TIP3    H226676   2.852   2.824  16.141 -0.7493  0.7542  1.1149
 1729TIP3   OH226677   0.709   3.344   0.494  0.0456  0.0222 -1.0035
 1729TIP3    H126678   0.724   3.302   0.409  1.0441  0.3981 -1.0232
 1729TIP3    H226679   0.723   3.273   0.557 -0.1328 -0.1186 -1.1181
 1730TIP3   OH226680   4.145   5.353   1.745 -0.2472 -0.3334  0.4491
 1730TIP3    H126681   4.157   5.439   1.783 -0.9706 -0.5699  1.2300
 1730TIP3    H226682   4.139   5.294   1.819  2.4082 -1.4093 -0.0632
 1731TIP3   OH226683   3.916   6.517  11.952  0.4441 -0.3335 -0.4604
 1731TIP3    H126684   3.887   6.568  11.876  3.1684 -1.4997 -2.4634
 1731TIP3    H226685   4.009   6.538  11.960  0.3789 -0.7944  2.1817
 1732TIP3   OH226686   0.128   2.526   4.330 -0.3819 -0.1115  0.1879
 1732TIP3    H126687   0.090   2.527   4.242  2.0578 -0.8510 -0.9596
 1732TIP3    H226688   0.090   2.449   4.371 -1.1639 -0.0473 -0.3839
 1733TIP3   OH226689   2.900   4.878  14.525  0.0813  0.0462 -1.4626
 1733TIP3    H126690   2.838   4.829  14.579  1.2627 -1.1069 -1.1000
 1733TIP3    H226691   2.898   4.966  14.561  0.4547 -0.5662  0.1501
 1734TIP3   OH226692   2.540   1.355  15.708  0.3548  0.0036  0.3017
 1734TIP3    H126693   2.461   1.301  15.712  0.7330 -0.5911  0.0371
 1734TIP3    H226694   2.582   1.343  15.793  0.8167 -0.7313 -0.0155
 1735TIP3   OH226695   4.847   3.508  15.064  0.2902 -0.1461  0.1267
 1735TIP3    H126696   4.836   3.603  15.075 -2.3006 -0.5743  2.0181
 1735TIP3    H226697   4.867   3.498  14.970  0.1334  2.2056 -0.2299
 1736TIP3   OH226698   2.333   3.674  12.059 -0.4575  0.6036 -0.1402
 1736TIP3    H126699   2.359   3.587  12.090  0.7691  1.6602  2.0180
 1736TIP3    H226700   2.374   3.681  11.972  1.2176 -0.2100  0.5312
 1737TIP3   OH226701   5.444   5.907  15.012 -0.0535  0.0480  0.2341
 1737TIP3    H126702   5.414   5.818  15.029 -0.6416  0.6857  3.0802
 1737TIP3    H226703   5.368   5.962  15.030  1.0038  1.2677  1.2972
 1738TIP3   OH226704   4.223   3.119  13.110 -0.3224 -0.4083  1.0493
 1738TIP3    H126705   4.154   3.183  13.121  0.5315  0.4759  1.4176
 1738TIP3    H226706   4.190   3.040  13.152 -1.7452 -0.5056 -0.1835
 1739TIP3   OH226707   2.144   1.353  15.930 -0.1808  0.5907  0.3266
 1739TIP3    H126708   2.056   1.320  15.909  0.4016 -0.1998 -0.9800
 1739TIP3    H226709   2.129   1.441  15.964 -1.4814  0.4766  0.1103
 1740TIP3   OH226710   4.186   3.749  11.975 -0.1309 -0.3459 -0.5267
 1740TIP3    H126711   4.096   3.725  11.997 -0.5357  1.2408 -0.3813
 1740TIP3    H226712   4.178   3.803  11.896  0.8837 -1.8014 -1.6921
 1741TIP3   OH226713   0.013   5.642   4.092 -0.3289  0.1208 -0.1789
 1741TIP3    H126714  -0.040   5.720   4.073  1.5145  1.3485 -0.5424
 1741TIP3    H226715   0.084   5.645   4.028  0.0463 -1.6476  0.0977
 1742TIP3   OH226716   5.658   6.775  14.967  0.2813 -0.1810  0.0852
 1742TIP3    H126717   5.608   6.701  15.003 -0.2834 -0.2011 -0.6954
 1742TIP3    H226718   5.622   6.852  15.011 -0.7777 -0.1490 -0.7707
 1743TIP3   OH226719   1.560   6.016  14.723  0.1368  0.0430  0.3017
 1743TIP3    H126720   1.480   6.033  14.674 -0.0828  0.0107  0.6439
 1743TIP3    H226721   1.609   6.098  14.720 -0.2540  0.2940  0.7247
 1744TIP3   OH226722   2.604   0.914   2.982  0.2985 -0.4274 -0.2522
 1744TIP3    H126723   2.658   0.865   3.043 -0.5856  1.6010  2.3360
 1744TIP3    H226724   2.535   0.853   2.957  2.0445 -2.0941 -1.3052
 1745TIP3   OH226725   4.765   6.194  13.085 -0.4108  0.0340 -0.4890
 1745TIP3    H126726   4.803   6.266  13.136 -1.6726  0.3577  0.0141
 1745TIP3    H226727   4.687   6.169  13.134 -0.9615 -0.4845 -1.6168
 1746TIP3   OH226728   5.522   6.796   0.974  0.4702 -0.3526 -0.3329
 1746TIP3    H126729   5.449   6.761   1.026  2.3070 -0.7544  2.1350
 1746TIP3    H226730   5.581   6.722   0.962  2.2034  0.7544  0.9440
 1747TIP3   OH226731   5.713   3.808  15.201 -0.3206  0.5935 -0.6559
 1747TIP3    H126732   5.684   3.747  15.133  1.1867 -1.3799  0.3510
 1747TIP3    H226733   5.765   3.874  15.153  0.4263 -0.5645 -1.5010
 1748TIP3   OH226734   2.976   0.993   1.668  0.0348 -0.4156  0.3472
 1748TIP3    H126735   2.920   1.004   1.592  0.4370  0.9149  0.2206
 1748TIP3    H226736   2.966   1.074   1.717  1.9153 -0.0885  0.2701
 1749TIP3   OH226737   0.964   3.100  12.380 -0.3180  0.1035 -0.7759
 1749TIP3    H126738   0.952   3.006  12.368 -2.3151  0.1590  0.4001
 1749TIP3    H226739   0.894   3.140  12.328 -0.3871  0.8645 -0.1126
 1750TIP3   OH226740   2.374   5.366   4.512 -0.7581 -0.1038 -0.4038
 1750TIP3    H126741   2.387   5.281   4.470  0.7275 -0.1704  0.1572
 1750TIP3    H226742   2.327   5.418   4.447 -1.0952 -1.1368 -1.0028
 1751TIP3   OH226743   1.493   1.690  15.597  0.2679 -0.0285 -0.0737
 1751TIP3    H126744   1.523   1.650  15.678 -1.6403  0.0500  0.7224
 1751TIP3    H226745   1.400   1.670  15.593  0.1753  0.5331 -1.9302
 1752TIP3   OH226746   5.377   5.873  17.002 -0.4636  0.4607  0.2308
 1752TIP3    H126747   5.308   5.930  16.968 -1.2544 -0.2889  0.5292
 1752TIP3    H226748   5.342   5.785  16.991  0.7003  0.0313 -0.1373
 1753TIP3   OH226749   0.030   6.823  16.380  0.0087  0.3100 -0.3835
 1753TIP3    H126750  -0.039   6.851  16.441  0.6234  0.5619  0.2093
 1753TIP3    H226751   0.112   6.839  16.427  0.4329 -1.4099 -0.4905
 1754TIP3   OH226752   5.256   5.370  15.465 -0.2271  0.2594 -0.1445
 1754TIP3    H126753   5.340   5.417  15.473  1.8093 -2.5451 -2.7629
 1754TIP3    H226754   5.211   5.413  15.393 -0.1201  0.4885 -0.0764
 1755TIP3   OH226755   0.739   0.464  12.994 -0.2873  0.6068  0.6115
 1755TIP3    H126756   0.831   0.482  13.017 -0.2509  0.5050  0.5426
 1755TIP3    H226757   0.726   0.373  13.018  0.0740  0.1575 -0.8124
 1756TIP3   OH226758   2.864   5.410  13.907  0.4789 -0.6592 -0.0106
 1756TIP3    H126759   2.948   5.423  13.863  0.2609 -3.3867 -1.4454
 1756TIP3    H226760   2.886   5.402  13.999  1.8024 -1.2026 -0.3472
 1757TIP3   OH226761   4.338   6.297   1.413 -0.0429  0.1508 -0.0903
 1757TIP3    H126762   4.298   6.298   1.326  0.9832 -0.6276 -0.6043
 1757TIP3    H226763   4.409   6.362   1.407 -1.2106  1.5597  0.8226
 1758TIP3   OH226764   1.518   1.441  16.045  0.0461  0.2057 -0.3593
 1758TIP3    H126765   1.448   1.376  16.045 -0.3589  0.6332 -0.2050
 1758TIP3    H226766   1.584   1.405  16.104 -0.4602  0.2327  0.2379
 1759TIP3   OH226767   3.176   2.806   5.618 -0.7187  0.3164 -0.0676
 1759TIP3    H126768   3.234   2.758   5.677  0.5076  0.9238 -0.7199
 1759TIP3    H226769   3.097   2.823   5.669  0.5898  1.4774  1.6867
 1760TIP3   OH226770   2.442   6.481  15.711  0.0591 -0.0106  0.4664
 1760TIP3    H126771   2.509   6.498  15.776 -0.8305 -2.0103  2.0262
 1760TIP3    H226772   2.359   6.500  15.756 -0.5675 -1.3281 -0.0571
 1761TIP3   OH226773   3.744   3.692  15.548  0.1534 -0.2653 -0.2979
 1761TIP3    H126774   3.692   3.723  15.621  2.1267  0.3948  0.9038
 1761TIP3    H226775   3.682   3.684  15.476 -1.8244 -0.7865  1.3749
 1762TIP3   OH226776   5.131   2.899   3.663  0.2690  0.1882  0.2498
 1762TIP3    H126777   5.054   2.850   3.693  0.1491  0.4145  0.3158
 1762TIP3    H226778   5.206   2.851   3.699  0.2371 -0.9068 -1.0840
 1763TIP3   OH226779   5.794   5.840  15.479 -0.1827  0.0877 -0.0773
 1763TIP3    H126780   5.827   5.930  15.468  0.0230  0.2999  1.9647
 1763TIP3    H226781   5.760   5.817  15.393 -0.1351  2.0899 -0.6895
 1764TIP3   OH226782   0.581   3.795   3.377 -0.1508  0.3713  0.2220
 1764TIP3    H126783   0.665   3.771   3.414  0.1624  0.2695 -0.5448
 1764TIP3    H226784   0.542   3.712   3.348 -1.0139  0.2758  1.5740
 1765TIP3   OH226785   0.410   2.471   1.083 -0.2538 -0.5549 -0.4394
 1765TIP3    H126786   0.392   2.377   1.080 -1.0557 -0.3824 -1.4866
 1765TIP3    H226787   0.371   2.506   1.003  0.3106  0.6303 -0.2222
 1766TIP3   OH226788   3.549   4.108   0.017 -0.0456  0.0993 -0.2244
 1766TIP3    H126789   3.599   4.188   0.035 -0.6155  0.2370  0.8854
 1766TIP3    H226790   3.463   4.126   0.056 -0.2744 -0.9362 -0.2473
 1767TIP3   OH226791   6.007   2.237  14.188 -0.1352 -0.1818 -0.0187
 1767TIP3    H126792   6.034   2.261  14.276 -1.2022 -1.7725  0.7717
 1767TIP3    H226793   5.912   2.225  14.194 -0.4858  1.2504 -1.7682
 1768TIP3   OH226794   1.113   5.615   4.365 -0.5422 -0.2012  0.4322
 1768TIP3    H126795   1.095   5.647   4.454 -0.8553  0.6636  0.0677
 1768TIP3    H226796   1.180   5.674   4.332 -2.4417  1.3010 -0.9272
 1769TIP3   OH226797   5.408   1.968   0.685 -0.2397 -0.0146  0.7057
 1769TIP3    H126798   5.446   1.898   0.737 -2.0819  0.9717  3.6922
 1769TIP3    H226799   5.321   1.935   0.660 -0.8976  0.9077  1.6596
 1770TIP3   OH226800   1.127   5.920   6.561 -0.0758 -0.0240  0.2292
 1770TIP3    H126801   1.168   5.898   6.478  1.2406  0.4278  0.7437
 1770TIP3    H226802   1.123   6.016   6.562  1.1920  0.0428  1.2610
 1771TIP3   OH226803   4.780   4.978  15.858 -0.0336  0.2528 -0.9313
 1771TIP3    H126804   4.823   5.062  15.848 -0.0445  0.6129  1.5859
 1771TIP3    H226805   4.849   4.918  15.884 -0.4619  0.0994 -0.1069
 1772TIP3   OH226806   5.863   5.662  15.255  0.0523  0.1595  0.2677
 1772TIP3    H126807   5.893   5.666  15.164  0.1710  2.3013  0.3514
 1772TIP3    H226808   5.903   5.738  15.297 -1.2077  0.0685  1.7228
 1773TIP3   OH226809   1.865   5.660   4.922  0.2019 -0.0395  0.3563
 1773TIP3    H126810   1.882   5.752   4.900  2.2130 -0.6037 -0.6619
 1773TIP3    H226811   1.799   5.632   4.858  0.4638  0.3790 -0.1057
 1774TIP3   OH226812   3.890   0.439  11.965  0.0769  0.3285  0.5144
 1774TIP3    H126813   3.902   0.518  11.912  0.2584  0.0533  0.1426
 1774TIP3    H226814   3.962   0.381  11.939  0.8276  0.6142  1.8663
 1775TIP3   OH226815   6.655   1.572   2.559 -0.1257  0.2834  0.0715
 1775TIP3    H126816   6.566   1.539   2.549 -1.4179  3.4469  0.0669
 1775TIP3    H226817   6.666   1.582   2.654 -1.0292  2.7771 -0.0234
 1776TIP3   OH226818   3.786   2.659  16.447  0.0672  0.1837  0.2861
 1776TIP3    H126819   3.805   2.739  16.399  1.3109 -0.5606 -0.4865
 1776TIP3    H226820   3.843   2.593  16.409 -0.8551 -1.0640  0.9830
 1777TIP3   OH226821   5.985   5.042  10.942  0.2672 -0.5226  0.3579
 1777TIP3    H126822   6.032   4.981  10.998  2.9810  0.2276 -0.9416
 1777TIP3    H226823   6.053   5.088  10.893 -1.6143  3.0012  0.6633
 1778TIP3   OH226824   0.429   5.782   0.293 -0.6695  0.0068 -0.5726
 1778TIP3    H126825   0.438   5.849   0.225 -0.1947 -2.1201 -2.7409
 1778TIP3    H226826   0.519   5.756   0.314 -0.8152  0.5464  0.8554
 1779TIP3   OH226827   0.766   1.323   3.270  0.1488 -0.1934  0.1348
 1779TIP3    H126828   0.818   1.403   3.264 -0.6812  0.4933  1.5277
 1779TIP3    H226829   0.795   1.270   3.196  0.6707  1.4178 -0.8730
 1780TIP3   OH226830   4.305   0.513  11.761  0.8993  0.0757  0.3711
 1780TIP3    H126831   4.396   0.489  11.746  1.3024  2.4354 -1.7329
 1780TIP3    H226832   4.263   0.433  11.793  3.7064 -1.0183  1.6060
 1781TIP3   OH226833   2.041   2.237  16.787 -0.0599  0.1129 -0.7085
 1781TIP3    H126834   2.122   2.221  16.739  0.6565 -1.0769  0.8178
 1781TIP3    H226835   2.045   2.330  16.810  1.6735 -0.2656  0.6841
 1782TIP3   OH226836   0.997   0.672  11.633 -0.0513  0.4740 -0.2339
 1782TIP3    H126837   1.034   0.699  11.549  2.4768  2.6861  1.4481
 1782TIP3    H226838   1.065   0.617  11.672 -0.2036  1.2988  1.2628
 1783TIP3   OH226839   3.034   4.787   4.251  0.4080  0.2390  0.2023
 1783TIP3    H126840   3.127   4.812   4.255  0.0940  1.4537  0.0608
 1783TIP3    H226841   3.034   4.695   4.280  1.9401 -0.5376 -1.9663
 1784TIP3   OH226842   1.019   3.264  16.222 -0.3016  0.6348  0.0536
 1784TIP3    H126843   1.045   3.285  16.133 -3.1404  2.1622 -0.5297
 1784TIP3    H226844   1.080   3.314  16.277 -1.4490  3.6292 -1.1879
 1785TIP3   OH226845   1.653   2.174   3.134  0.0126  0.4131 -0.2504
 1785TIP3    H126846   1.735   2.124   3.136  0.3876  0.8962 -1.7174
 1785TIP3    H226847   1.589   2.112   3.098  0.1462  0.5362 -0.7141
 1786TIP3   OH226848   1.994   5.402  15.928 -0.5355 -0.2295  0.0786
 1786TIP3    H126849   1.974   5.341  15.857 -0.1816 -1.0515  0.6559
 1786TIP3    H226850   1.965   5.487  15.897  1.5073 -0.1678 -1.9291
 1787TIP3   OH226851   0.350   0.330  11.369 -0.9917 -0.0103  0.0861
 1787TIP3    H126852   0.323   0.240  11.353 -0.2108 -0.4131  0.9796
 1787TIP3    H226853   0.440   0.334  11.337 -0.7886  0.2568  0.6710
 1788TIP3   OH226854   2.487   2.495   2.039  0.0068  0.2887  0.1050
 1788TIP3    H126855   2.426   2.492   2.113 -0.4302 -0.7386 -0.2708
 1788TIP3    H226856   2.449   2.559   1.979 -1.4020 -1.1926 -0.6753
 1789TIP3   OH226857   4.825   3.936   1.121  0.0470 -0.6781  0.0535
 1789TIP3    H126858   4.842   3.846   1.148  2.0082 -0.1152  0.8340
 1789TIP3    H226859   4.814   3.931   1.026 -2.2418 -2.0167  0.3111
 1790TIP3   OH226860   5.577   6.592   6.225 -0.1190 -0.3129 -0.3297
 1790TIP3    H126861   5.594   6.686   6.234 -1.4323  0.3036 -3.1654
 1790TIP3    H226862   5.659   6.557   6.189  0.9541 -0.6590  2.2131
 1791TIP3   OH226863   0.921   5.012   5.380  0.6187 -0.3303  0.0287
 1791TIP3    H126864   0.874   5.093   5.396 -1.1991 -1.6005  1.5699
 1791TIP3    H226865   0.902   4.957   5.457 -0.3140 -3.1514 -2.0539
 1792TIP3   OH226866   2.867   0.893  15.833 -0.3926  0.0376 -0.5473
 1792TIP3    H126867   2.897   0.982  15.815 -0.4028  0.2909  0.6312
 1792TIP3    H226868   2.800   0.904  15.901 -0.8064 -0.8215 -0.8022
 1793TIP3   OH226869   6.792   6.755   1.652 -0.2075  0.2875 -0.5720
 1793TIP3    H126870   6.759   6.791   1.570 -1.0059 -0.5270 -0.6096
 1793TIP3    H226871   6.887   6.762   1.644 -0.3111  1.4145 -1.0170
 1794TIP3   OH226872   1.895   3.598  16.689  0.1031  0.3006  0.4412
 1794TIP3    H126873   1.958   3.537  16.649 -0.8866  0.1196 -0.9341
 1794TIP3    H226874   1.824   3.542  16.721  0.3573  0.5453  1.4531
 1795TIP3   OH226875   2.786   5.740  11.310  0.3750 -0.4466 -0.2858
 1795TIP3    H126876   2.856   5.750  11.245  0.0838 -0.7452 -0.6503
 1795TIP3    H226877   2.753   5.828  11.324 -0.2911 -0.5054 -1.3655
 1796TIP3   OH226878   3.121   3.017  14.195 -0.2450 -0.1520  0.9330
 1796TIP3    H126879   3.029   2.992  14.180  0.6000 -2.1270 -1.6584
 1796TIP3    H226880   3.133   3.094  14.138  0.0756 -0.8738 -0.0030
 1797TIP3   OH226881   1.054   3.748   0.580 -0.3118  0.9173 -0.2536
 1797TIP3    H126882   0.960   3.737   0.599 -0.1270  0.4099  0.3869
 1797TIP3    H226883   1.058   3.748   0.484 -0.8410 -0.2797 -0.2968
 1798TIP3   OH226884   6.465   5.019   3.285  0.5748  0.1587 -0.2012
 1798TIP3    H126885   6.514   4.981   3.358  1.2891 -0.2494 -0.8771
 1798TIP3    H226886   6.481   5.113   3.293 -0.6080  0.2892  1.0528
 1799TIP3   OH226887   3.078   3.602  13.423  0.2388 -0.2684 -0.1762
 1799TIP3    H126888   3.081   3.609  13.519 -0.3363 -1.0744 -0.0849
 1799TIP3    H226889   3.157   3.554  13.400 -1.4636 -3.6672  0.3186
 1800TIP3   OH226890   0.197   4.934   2.197  0.4705  0.2235 -0.5301
 1800TIP3    H126891   0.273   4.938   2.139 -0.7727  0.2068 -2.2701
 1800TIP3    H226892   0.145   5.011   2.172 -0.3770 -0.1090  0.1732
 1801TIP3   OH226893   2.819   4.197  16.830  0.1648  0.5407  0.0160
 1801TIP3    H126894   2.899   4.195  16.884 -0.6711  2.2178  1.4230
 1801TIP3    H226895   2.848   4.232  16.746  0.9488  0.9710  0.4515
 1802TIP3   OH226896   5.931   0.963  16.630  0.5474  0.3837 -0.3059
 1802TIP3    H126897   6.000   0.898  16.644  1.0184  1.0172  0.3925
 1802TIP3    H226898   5.967   1.044  16.664 -0.5276  0.7383  0.0380
 1803TIP3   OH226899   0.298   1.627  15.337  0.1092 -0.3508 -0.3988
 1803TIP3    H126900   0.322   1.535  15.326 -2.2731 -1.0550 -0.1205
 1803TIP3    H226901   0.292   1.639  15.432  0.9053  0.2632 -0.4126
 1804TIP3   OH226902   2.607   3.416   5.018  0.0489 -0.7376 -0.0639
 1804TIP3    H126903   2.649   3.491   4.976 -1.8364  2.1328  2.6667
 1804TIP3    H226904   2.655   3.340   4.987  2.4618  1.6222 -2.6224
 1805TIP3   OH226905   1.602   2.479  11.647  0.3469  0.0902  0.5525
 1805TIP3    H126906   1.526   2.520  11.606  0.5472 -1.6030 -1.6402
 1805TIP3    H226907   1.565   2.416  11.709  0.0491  1.5554  1.9591
 1806TIP3   OH226908   3.869   0.693   4.292  0.4645 -0.5358 -0.0924
 1806TIP3    H126909   3.868   0.599   4.310  1.0876 -1.0724 -2.4253
 1806TIP3    H226910   3.794   0.728   4.339  1.2667 -1.8612  2.3239
 1807TIP3   OH226911   3.689   3.868   5.705 -0.2327 -0.5574 -0.0966
 1807TIP3    H126912   3.596   3.850   5.718 -0.1483 -1.3951 -0.5584
 1807TIP3    H226913   3.700   3.960   5.729 -1.4912  0.0456 -1.6458
 1808TIP3   OH226914   2.108   1.959   1.726  0.3409 -0.5315 -0.5966
 1808TIP3    H126915   2.180   1.998   1.775 -0.0701 -0.4450 -0.0411
 1808TIP3    H226916   2.117   1.864   1.741  0.7081 -0.5664 -1.0493
 1809TIP3   OH226917   3.654   3.366   2.547  0.0154 -0.6973 -0.1257
 1809TIP3    H126918   3.678   3.407   2.464 -2.4413 -0.1002 -0.6421
 1809TIP3    H226919   3.726   3.386   2.606  0.5792  1.2511 -1.3867
 1810TIP3   OH226920   1.915   3.224  12.729 -0.5489  0.3169 -0.0801
 1810TIP3    H126921   1.970   3.277  12.787 -0.2096 -1.0050  0.8629
 1810TIP3    H226922   1.859   3.174  12.788 -1.0008 -0.2190 -0.9461
 1811TIP3   OH226923   2.888   2.375   1.956 -0.0787  0.4243 -0.0836
 1811TIP3    H126924   2.919   2.447   1.901 -0.4820 -1.1646 -2.5429
 1811TIP3    H226925   2.814   2.339   1.908 -0.7212 -0.8093  1.7552
 1812TIP3   OH226926   1.849   0.064   0.765  0.1179 -0.3092 -0.5831
 1812TIP3    H126927   1.921   0.125   0.784 -0.2171 -0.4919  1.4586
 1812TIP3    H226928   1.779   0.089   0.826 -1.3895 -0.4663 -2.1760
 1813TIP3   OH226929   6.468   3.950   5.597 -0.2407  0.1849  0.2654
 1813TIP3    H126930   6.466   3.999   5.680 -0.8868 -0.8592  0.8921
 1813TIP3    H226931   6.450   4.016   5.530 -1.6709  0.7392  1.1366
 1814TIP3   OH226932   0.982   3.211   3.576 -0.1490  0.1528  0.3777
 1814TIP3    H126933   0.946   3.245   3.494  1.1848  1.4603  0.3066
 1814TIP3    H226934   1.062   3.164   3.549  0.3047  0.6022  0.9210
 1815TIP3   OH226935   3.053   0.386   4.001  0.0943  0.1676  0.2324
 1815TIP3    H126936   3.146   0.363   3.991  0.1556  0.8813 -1.1329
 1815TIP3    H226937   3.010   0.346   3.925 -0.3482  1.5761 -0.3018
 1816TIP3   OH226938   3.151   6.479   5.925  0.1700  0.3266  0.5963
 1816TIP3    H126939   3.239   6.444   5.919 -0.9073 -2.4603 -0.3709
 1816TIP3    H226940   3.149   6.525   6.009  2.5824  0.6858  0.5012
 1817TIP3   OH226941   0.536   1.065   4.858  0.1545  0.5352 -0.2746
 1817TIP3    H126942   0.559   1.140   4.913  1.1931 -0.9112  1.3864
 1817TIP3    H226943   0.447   1.043   4.885 -0.6865  1.9301 -1.7407
 1818TIP3   OH226944   2.213   6.782   3.358 -0.2711  0.3925 -0.0403
 1818TIP3    H126945   2.263   6.737   3.291  0.9084  1.7015 -0.1034
 1818TIP3    H226946   2.170   6.855   3.312 -2.8491 -1.0549 -0.1182
 1819TIP3   OH226947   3.371   2.900   1.684  0.3687 -0.5326 -0.0360
 1819TIP3    H126948   3.375   2.957   1.761  0.6107  1.6760 -1.5852
 1819TIP3    H226949   3.290   2.925   1.640 -1.1648 -3.5996  0.7355
 1820TIP3   OH226950   0.086   4.731  13.571 -0.3866 -0.4950  0.3308
 1820TIP3    H126951   0.035   4.802  13.531  1.7434  0.7127 -0.4817
 1820TIP3    H226952   0.076   4.657  13.511  0.9577  0.6034 -1.3645
 1821TIP3   OH226953   2.399   4.427  17.144 -0.0548  0.6609  0.6147
 1821TIP3    H126954   2.402   4.430  17.239  2.0158 -0.0636  0.6104
 1821TIP3    H226955   2.394   4.519  17.117 -0.4838  0.8753  1.4064
 1822TIP3   OH226956   4.190   2.163  12.791 -0.3232 -0.6262 -0.0614
 1822TIP3    H126957   4.230   2.236  12.838  1.6369 -0.8980 -1.2187
 1822TIP3    H226958   4.159   2.105  12.860  2.2530 -0.9132  0.9726
 1823TIP3   OH226959   6.698   2.422  11.729 -0.1676 -0.7443  0.3845
 1823TIP3    H126960   6.656   2.429  11.814 -0.3815 -0.8158  0.2859
 1823TIP3    H226961   6.648   2.353  11.684 -0.8214  0.1252 -0.2448
 1824TIP3   OH226962   4.700   5.619   0.325 -0.3671 -0.2252 -0.6277
 1824TIP3    H126963   4.644   5.677   0.377 -1.2215 -2.2179  0.8054
 1824TIP3    H226964   4.645   5.593   0.251 -0.2607  0.1370 -0.8385
 1825TIP3   OH226965   6.689   0.032  13.895  0.2182  0.8846  0.2079
 1825TIP3    H126966   6.629  -0.041  13.910  0.7802  0.1304 -0.9950
 1825TIP3    H226967   6.768   0.007  13.943 -0.1011  1.4459  1.0465
 1826TIP3   OH226968   0.076   2.397   2.672 -0.0348 -0.1528 -0.1172
 1826TIP3    H126969  -0.008   2.423   2.711  0.0835  0.1189 -0.0431
 1826TIP3    H226970   0.130   2.476   2.675 -0.2287  0.0513 -1.3812
 1827TIP3   OH226971   1.124   4.122  13.425  0.1864  0.4780  0.2968
 1827TIP3    H126972   1.060   4.097  13.358 -0.0614 -0.2153  0.7831
 1827TIP3    H226973   1.071   4.138  13.503  0.4491  1.5462  0.2648
 1828TIP3   OH226974   0.587   1.567   2.344 -0.3828 -0.1115  0.4279
 1828TIP3    H126975   0.660   1.581   2.404  0.5585 -1.9678 -0.1892
 1828TIP3    H226976   0.528   1.508   2.392 -0.9691  0.5572  0.5362
 1829TIP3   OH226977   5.626   6.510   5.925  1.5914 -0.8101  0.1088
 1829TIP3    H126978   5.602   6.596   5.891  0.6978 -1.1267 -0.0956
 1829TIP3    H226979   5.700   6.526   5.984 -0.2090  0.4492  2.1235
 1830TIP3   OH226980   3.358   4.630  15.091 -0.1008  0.5362  0.4428
 1830TIP3    H126981   3.402   4.710  15.061 -1.0711  0.6225 -0.8151
 1830TIP3    H226982   3.266   4.645  15.071 -0.3965 -0.6080  0.8864
 1831TIP3   OH226983   4.099   3.729  14.089 -0.2000  0.1297 -0.4282
 1831TIP3    H126984   4.091   3.648  14.140 -1.6187  0.8991  0.6609
 1831TIP3    H226985   4.029   3.785  14.122  0.4715  1.6554 -1.4579
 1832TIP3   OH226986   2.614   4.275   0.906  0.5198  0.5021  0.4000
 1832TIP3    H126987   2.592   4.218   0.832 -0.9468 -0.9324  1.8541
 1832TIP3    H226988   2.651   4.353   0.866 -0.1632 -0.2482 -1.8465
 1833TIP3   OH226989   3.948   0.516   1.182 -0.3346 -0.2753  0.3935
 1833TIP3    H126990   4.008   0.588   1.198 -0.6032  0.1047 -0.2480
 1833TIP3    H226991   3.996   0.457   1.124 -0.3613 -0.2726  0.3686
 1834TIP3   OH226992   0.206   4.770  13.845  0.0246 -0.0062  1.1779
 1834TIP3    H126993   0.249   4.685  13.836 -0.7811 -0.2585 -0.9156
 1834TIP3    H226994   0.154   4.779  13.765 -1.7727  1.4172  2.4050
 1835TIP3   OH226995   3.247   6.827  10.523  0.0472  0.0791  0.8755
 1835TIP3    H126996   3.331   6.855  10.487 -0.9056  0.3794 -1.2341
 1835TIP3    H226997   3.209   6.770  10.457 -1.6372  0.3373  1.5538
 1836TIP3   OH226998   2.582   5.421  15.450  0.0734 -0.4860  0.6469
 1836TIP3    H126999   2.612   5.468  15.528  2.7364 -1.5481  0.3647
 1836TIP3    H227000   2.617   5.471  15.377 -0.6922 -0.6078  0.1846
 1837TIP3   OH227001   2.531   1.572  15.124  0.6479  0.0423 -0.7213
 1837TIP3    H127002   2.587   1.596  15.199 -1.7672  1.0067  0.8948
 1837TIP3    H227003   2.546   1.641  15.060 -0.5173  1.8091  0.7767
 1838TIP3   OH227004   1.931   4.423  15.692  0.0565 -0.4387  0.4564
 1838TIP3    H127005   1.987   4.371  15.750  0.1763  1.9056  2.5995
 1838TIP3    H227006   1.860   4.362  15.668  1.8517 -2.5334  0.1443
 1839TIP3   OH227007   5.851   4.711  11.610  0.4523 -0.3418  0.3620
 1839TIP3    H127008   5.925   4.657  11.583 -0.4091 -1.9811  1.1262
 1839TIP3    H227009   5.793   4.711  11.534 -0.2535 -1.8592  0.8434
 1840TIP3   OH227010   0.286   3.233  16.626 -0.1727  0.2058  0.1876
 1840TIP3    H127011   0.221   3.285  16.578  0.1281 -1.8090 -2.6549
 1840TIP3    H227012   0.234   3.169  16.674 -0.4565 -1.4369 -2.1212
 1841TIP3   OH227013   4.683   6.648  10.938 -0.4634  0.0657  0.2478
 1841TIP3    H127014   4.606   6.704  10.931 -0.0960  0.6661  0.9181
 1841TIP3    H227015   4.700   6.642  11.032  0.3868  0.0449  0.1008
 1842TIP3   OH227016   0.004   5.890  14.784 -0.1583  0.5830  0.1109
 1842TIP3    H127017  -0.055   5.877  14.858 -0.5711 -2.2324 -0.5954
 1842TIP3    H227018   0.087   5.918  14.824 -0.7592  0.4573  1.5015
 1843TIP3   OH227019   0.519   3.441  13.269  0.1759  0.4483 -0.1731
 1843TIP3    H127020   0.499   3.506  13.202 -1.4170  0.1568 -0.0353
 1843TIP3    H227021   0.468   3.469  13.345  2.5260  1.2040  1.2400
 1844TIP3   OH227022   2.730   5.526  15.660  0.3502  0.3087  0.4120
 1844TIP3    H127023   2.824   5.534  15.643  0.2429  2.0933  0.4829
 1844TIP3    H227024   2.724   5.511  15.755  0.5583  0.2838  0.4222
 1845TIP3   OH227025   4.159   4.662   3.969 -0.5966  0.2409 -0.1647
 1845TIP3    H127026   4.191   4.752   3.962 -0.9680  0.4298  0.4643
 1845TIP3    H227027   4.178   4.623   3.884  2.9442 -0.2248  0.6801
 1846TIP3   OH227028   2.212   1.573  11.661  0.2996  0.2983 -0.5512
 1846TIP3    H127029   2.280   1.532  11.715  0.2802 -0.3896 -1.0291
 1846TIP3    H227030   2.141   1.591  11.723  0.6670  0.4432 -0.1648
 1847TIP3   OH227031   6.296   1.043  17.061 -0.4066  0.4889  0.5867
 1847TIP3    H127032   6.326   1.114  17.005 -0.2057  0.2522  0.3920
 1847TIP3    H227033   6.255   0.980  17.002  0.2772 -0.0094  0.6325
 1848TIP3   OH227034   3.709   2.523  14.394  0.2047  0.0683  0.7131
 1848TIP3    H127035   3.652   2.534  14.318  1.1574  1.8119  0.2026
 1848TIP3    H227036   3.715   2.428  14.406 -0.1662 -0.2404 -1.2475
 1849TIP3   OH227037   3.283   2.570  10.443  0.1171 -0.0281  0.0322
 1849TIP3    H127038   3.237   2.497  10.484 -0.7161  0.3788 -0.1417
 1849TIP3    H227039   3.349   2.596  10.507 -1.2596  0.6950  1.2211
 1850TIP3   OH227040   3.578   5.710   1.878  0.3835 -0.7580  0.0720
 1850TIP3    H127041   3.673   5.698   1.881  0.4154 -1.3654 -1.9120
 1850TIP3    H227042   3.548   5.643   1.817 -1.0288  0.9092 -1.1624
 1851TIP3   OH227043   1.961   1.396   3.932  0.2424 -0.1725 -0.2504
 1851TIP3    H127044   1.972   1.309   3.894 -0.1775 -0.1709 -0.3851
 1851TIP3    H227045   1.902   1.382   4.006 -0.1192  0.0460 -0.4910
 1852TIP3   OH227046   0.793   4.721  12.801 -0.7886 -0.4265 -0.2166
 1852TIP3    H127047   0.710   4.769  12.798  0.4126  1.7499 -2.0987
 1852TIP3    H227048   0.770   4.632  12.771 -2.3025  0.3990 -1.7148
 1853TIP3   OH227049   2.996   1.455   1.959 -0.2453 -0.2760 -0.3633
 1853TIP3    H127050   2.921   1.396   1.970  0.3056 -0.8871  0.2029
 1853TIP3    H227051   3.036   1.458   2.046  0.9195 -0.6881 -0.8693
 1854TIP3   OH227052   2.104   2.705  14.566  0.0295  0.4434  0.5166
 1854TIP3    H127053   2.034   2.710  14.630 -2.4774  1.8724 -2.0917
 1854TIP3    H227054   2.089   2.780  14.508  2.2642 -0.5781 -1.5826
 1855TIP3   OH227055   2.089   4.223  15.818  0.0938 -0.0723 -0.1661
 1855TIP3    H127056   2.045   4.269  15.889  0.0759  0.5151 -0.5499
 1855TIP3    H227057   2.062   4.132  15.828 -1.7668  0.3688 -0.7876
 1856TIP3   OH227058   4.173   2.336  11.698 -0.4035 -0.2805 -0.2007
 1856TIP3    H127059   4.225   2.287  11.636 -1.4102 -1.1086 -0.4172
 1856TIP3    H227060   4.112   2.387  11.644 -0.9225 -0.5881  0.0880
 1857TIP3   OH227061   5.120   5.548  12.703 -0.6677  0.0092  0.0402
 1857TIP3    H127062   5.110   5.539  12.608  1.3316 -2.8405 -0.0152
 1857TIP3    H227063   5.215   5.547  12.717 -0.7837  2.8647  1.9901
 1858TIP3   OH227064   3.981   1.593  15.957  0.5889  0.0162 -0.2807
 1858TIP3    H127065   3.976   1.625  15.867 -0.9606  0.1861 -0.1550
 1858TIP3    H227066   3.989   1.672  16.010 -1.7022  0.1889 -0.0818
 1859TIP3   OH227067   2.956   5.228   3.648  0.0355  0.8782 -0.1661
 1859TIP3    H127068   2.963   5.263   3.559  0.9704  0.2894 -0.3488
 1859TIP3    H227069   2.898   5.152   3.639  0.6159  0.4561 -0.3987
 1860TIP3   OH227070   0.988   2.447   3.641 -0.2300  0.2430 -0.1135
 1860TIP3    H127071   1.022   2.399   3.565  0.1937  0.8389 -0.3068
 1860TIP3    H227072   0.902   2.409   3.656  0.4274 -1.1780  0.2731
 1861TIP3   OH227073   2.970   4.969  11.658  0.4458  0.3201  0.3087
 1861TIP3    H127074   3.043   5.030  11.666  0.7294 -0.0618  0.6835
 1861TIP3    H227075   2.896   5.023  11.631  0.4577  0.9977  1.5528
 1862TIP3   OH227076   2.181   0.477   1.690  0.0877  0.8201 -0.7128
 1862TIP3    H127077   2.163   0.386   1.665  1.3416  0.7321 -1.3729
 1862TIP3    H227078   2.107   0.502   1.745  0.9251 -1.4308  1.5998
 1863TIP3   OH227079   2.794   0.867  11.313  0.3183  0.0167 -0.3041
 1863TIP3    H127080   2.768   0.797  11.372 -0.4806 -0.7077 -1.4689
 1863TIP3    H227081   2.886   0.883  11.334  0.5196 -1.4007 -0.0135
 1864TIP3   OH227082   1.388   6.784  11.406  0.3638 -0.1431  0.4692
 1864TIP3    H127083   1.474   6.759  11.373  0.6031 -0.2202  1.1308
 1864TIP3    H227084   1.374   6.872  11.372 -0.1292 -0.8322 -1.2039
 1865TIP3   OH227085   1.698   3.514  14.938 -1.0048  0.1969 -0.3741
 1865TIP3    H127086   1.660   3.560  15.013 -0.9445  1.5836 -1.1437
 1865TIP3    H227087   1.625   3.470  14.897 -1.4237  1.1151 -0.6420
 1866TIP3   OH227088   4.169   2.125   6.056 -0.1926 -0.2657 -0.1638
 1866TIP3    H127089   4.092   2.140   6.112 -0.4554  0.2239 -0.6499
 1866TIP3    H227090   4.227   2.198   6.076 -0.9759  0.8286 -1.6873
 1867TIP3   OH227091   5.537   0.733  10.958 -0.2214  0.0301  0.3012
 1867TIP3    H127092   5.550   0.647  10.917 -1.6548 -0.4694  0.7983
 1867TIP3    H227093   5.473   0.777  10.902  0.7658  0.9438 -0.1467
 1868TIP3   OH227094   1.888   4.756  14.533  0.2879  0.2249 -0.0832
 1868TIP3    H127095   1.931   4.839  14.552  1.0384 -0.1240 -0.2095
 1868TIP3    H227096   1.924   4.695  14.598 -0.7879  0.1571  0.4625
 1869TIP3   OH227097   3.826   3.184   1.353 -0.7167  0.1093  0.3017
 1869TIP3    H127098   3.777   3.244   1.297 -0.4597 -0.1889 -0.2472
 1869TIP3    H227099   3.911   3.175   1.310 -0.0220  0.9400  1.4603
 1870TIP3   OH227100   1.775   5.461  16.157  0.4203  0.1949 -0.3159
 1870TIP3    H127101   1.776   5.533  16.221 -0.4736 -1.2607  1.4142
 1870TIP3    H227102   1.857   5.414  16.174  1.7564  1.5446 -2.4588
 1871TIP3   OH227103   5.448   1.736   2.553  0.6212 -0.2064  0.1007
 1871TIP3    H127104   5.416   1.826   2.550  0.3690 -0.2548  1.0220
 1871TIP3    H227105   5.413   1.695   2.475  0.2700  0.3415 -0.0344
 1872TIP3   OH227106   1.746   6.746  15.978 -0.0000  0.3568  0.0791
 1872TIP3    H127107   1.726   6.815  15.915 -1.5971 -0.2962 -0.1953
 1872TIP3    H227108   1.779   6.674  15.924 -0.5887  0.0890  0.0634
 1873TIP3   OH227109   1.702   3.156  15.999 -0.3767 -0.0990 -0.4396
 1873TIP3    H127110   1.788   3.141  16.038  0.8514  1.3135 -2.4474
 1873TIP3    H227111   1.719   3.207  15.920 -2.8539 -1.6203 -2.1234
 1874TIP3   OH227112   1.617   5.955  15.244  0.2576 -0.0016 -0.2773
 1874TIP3    H127113   1.576   5.887  15.298 -1.6009  0.3243 -1.1966
 1874TIP3    H227114   1.573   6.036  15.270 -0.6402  0.1773 -2.1649
 1875TIP3   OH227115   5.730   6.207   0.146 -0.5704 -0.0672 -0.3452
 1875TIP3    H127116   5.719   6.299   0.120 -0.6812  0.3837  1.2016
 1875TIP3    H227117   5.725   6.208   0.242  2.7654 -1.2137 -0.0342
 1876TIP3   OH227118   2.858   1.487  15.245  0.0983  0.3589  0.1423
 1876TIP3    H127119   2.815   1.468  15.328  1.9201 -1.3843  0.7863
 1876TIP3    H227120   2.940   1.531  15.270  0.1279  0.8761 -0.8133
 1877TIP3   OH227121   5.651   0.151   1.541 -0.1668  0.2787 -0.1603
 1877TIP3    H127122   5.585   0.082   1.545 -0.4163  0.3820 -1.8228
 1877TIP3    H227123   5.720   0.122   1.600  0.2605 -1.9931 -1.6858
 1878TIP3   OH227124   5.754   5.916   6.714 -0.1477 -0.1098 -0.4758
 1878TIP3    H127125   5.712   5.886   6.634 -2.5151 -0.4978  0.7903
 1878TIP3    H227126   5.727   6.008   6.722 -1.6559 -0.6153  0.8195
 1879TIP3   OH227127   3.384   1.904  15.531 -0.1972 -0.3147  0.3667
 1879TIP3    H127128   3.347   1.937  15.449 -0.4767 -0.3650  0.4689
 1879TIP3    H227129   3.378   1.808  15.523  2.4644 -0.4634 -0.7842
 1880TIP3   OH227130   2.685   1.942   0.445 -0.5175  0.4598  0.4999
 1880TIP3    H127131   2.744   2.015   0.464 -0.1674  0.1215  0.7412
 1880TIP3    H227132   2.649   1.962   0.359  1.7118 -0.4430 -0.7032
 1881TIP3   OH227133   0.809   2.431   6.241  0.0445  0.2747 -0.1658
 1881TIP3    H127134   0.756   2.368   6.290  0.3407  0.9985  1.1249
 1881TIP3    H227135   0.869   2.467   6.306 -1.0853  2.9694 -0.5155
 1882TIP3   OH227136   2.871   1.824   4.139 -0.5969  0.3288  0.2650
 1882TIP3    H127137   2.868   1.853   4.048 -0.7893  1.4846  0.6135
 1882TIP3    H227138   2.805   1.879   4.183  1.4356  1.8222  1.6289
 1883TIP3   OH227139   5.282   0.765  16.746  0.1269 -0.3604  0.3999
 1883TIP3    H127140   5.373   0.797  16.750  0.2073 -0.6538  1.2597
 1883TIP3    H227141   5.279   0.712  16.666  1.3426 -2.1008  1.4132
 1884TIP3   OH227142   5.056   4.399  14.043 -0.4595  0.1592  0.0213
 1884TIP3    H127143   4.966   4.369  14.034 -0.6402  0.3921  0.9107
 1884TIP3    H227144   5.064   4.472  13.982 -0.7366 -0.1409 -0.3796
 1885TIP3   OH227145   1.522   0.686   2.428  0.2001 -0.1923 -0.4816
 1885TIP3    H127146   1.524   0.742   2.505  1.1094 -2.6440  1.4044
 1885TIP3    H227147   1.600   0.710   2.379  0.9670 -0.2547  0.6712
 1886TIP3   OH227148   3.486   6.108   5.632 -0.0632 -0.2064  0.4853
 1886TIP3    H127149   3.519   6.121   5.721  0.6775 -0.1967  0.2229
 1886TIP3    H227150   3.472   6.014   5.624  0.4858 -0.2872  0.4132
 1887TIP3   OH227151   5.831   0.689   1.653  1.3561  0.1691  0.2424
 1887TIP3    H127152   5.782   0.630   1.710 -1.8906  2.0056 -0.4192
 1887TIP3    H227153   5.867   0.633   1.584 -2.6474 -1.0744 -1.0772
 1888TIP3   OH227154   5.838   3.372  16.597 -0.2838  0.0538  0.0708
 1888TIP3    H127155   5.866   3.458  16.566 -1.3017  0.6021  0.6161
 1888TIP3    H227156   5.894   3.310  16.551  0.3228  1.0012 -0.4877
 1889TIP3   OH227157   6.268   0.461   2.902 -0.2827  0.0405 -0.0234
 1889TIP3    H127158   6.181   0.496   2.886  0.3968  0.7953 -2.5091
 1889TIP3    H227159   6.324   0.539   2.910  0.3364 -0.4440  0.5415
 1890TIP3   OH227160   1.864   6.017   5.742 -0.0751  0.3172  0.4513
 1890TIP3    H127161   1.869   6.023   5.646 -1.8477 -1.8576  0.1291
 1890TIP3    H227162   1.885   5.926   5.761  1.5775  1.0218  2.3140
 1891TIP3   OH227163   3.377   4.257  12.855 -0.0245  0.1899 -0.1539
 1891TIP3    H127164   3.466   4.275  12.827 -0.1594 -1.8388 -2.2153
 1891TIP3    H227165   3.360   4.319  12.926  2.7797  1.0255 -0.1265
 1892TIP3   OH227166   1.390   0.530   4.837  0.1076  0.0530  0.6258
 1892TIP3    H127167   1.305   0.543   4.880 -1.4117  0.1142 -2.1627
 1892TIP3    H227168   1.445   0.490   4.904 -1.9938  0.3626  2.6570
 1893TIP3   OH227169   5.449   1.226   0.031  0.5320  0.0212 -0.1879
 1893TIP3    H127170   5.443   1.131   0.031 -1.2861  0.1185  0.0764
 1893TIP3    H227171   5.376   1.255  -0.023  0.8326  1.2954  0.0531
 1894TIP3   OH227172   1.650   6.725   4.041  0.2512 -0.0427  0.5455
 1894TIP3    H127173   1.573   6.716   4.097 -0.6179  0.7331 -0.4852
 1894TIP3    H227174   1.643   6.654   3.979  0.6528 -0.2737  0.7577
 1895TIP3   OH227175   1.694   4.005   1.374  0.0334 -1.2596 -0.6276
 1895TIP3    H127176   1.707   4.088   1.420  0.4596 -2.0612  0.7800
 1895TIP3    H227177   1.604   4.008   1.343 -0.5646 -1.0241  1.0341
 1896TIP3   OH227178   1.873   0.505   3.505 -0.4069  0.7214  0.4808
 1896TIP3    H127179   1.849   0.549   3.423 -1.8822 -2.8080 -1.1570
 1896TIP3    H227180   1.967   0.488   3.497 -0.2495  1.6507  0.2196
 1897TIP3   OH227181   0.892   3.424  12.737  0.5467 -0.4062 -0.2600
 1897TIP3    H127182   0.938   3.481  12.799 -2.0902  1.6324  0.0207
 1897TIP3    H227183   0.914   3.461  12.651 -1.1143  1.1546 -0.0820
 1898TIP3   OH227184   6.387   5.782   0.607 -0.7873  0.1341 -0.1927
 1898TIP3    H127185   6.309   5.831   0.632  0.7243  2.5990 -0.0499
 1898TIP3    H227186   6.430   5.837   0.542  1.3264 -0.6967  0.4191
 1899TIP3   OH227187   0.697   5.164  16.101  0.6769  0.0580 -0.1315
 1899TIP3    H127188   0.654   5.096  16.049 -1.5495  0.6553  0.7783
 1899TIP3    H227189   0.764   5.200  16.043  1.6262 -2.5361 -0.8095
 1900TIP3   OH227190   5.140   6.252  14.686  0.0778 -0.1828 -0.2828
 1900TIP3    H127191   5.153   6.343  14.656  0.4770  0.5602  1.9621
 1900TIP3    H227192   5.192   6.200  14.625 -0.6819  0.9943 -2.0334
 1901TIP3   OH227193   4.662   3.348  16.411 -0.6196 -0.0674  0.4825
 1901TIP3    H127194   4.741   3.294  16.410 -0.4110  0.2249  0.9443
 1901TIP3    H227195   4.651   3.373  16.502 -2.1309 -1.3852  0.6894
 1902TIP3   OH227196   5.426   3.165   2.828 -0.7529  0.4033 -0.7408
 1902TIP3    H127197   5.415   3.070   2.823 -0.4858  0.3462 -0.3650
 1902TIP3    H227198   5.338   3.200   2.823 -1.3580 -0.0607  3.0847
 1903TIP3   OH227199   1.017   0.747  15.935  0.5349 -0.1901 -0.0388
 1903TIP3    H127200   0.977   0.681  15.878  0.7942 -0.2892 -0.1038
 1903TIP3    H227201   1.099   0.708  15.963  0.3636 -0.1831  0.4841
 1904TIP3   OH227202   0.042   0.132  14.732  0.1937  0.9118  0.3277
 1904TIP3    H127203   0.067   0.041  14.714 -0.3518  0.8161  0.0225
 1904TIP3    H227204   0.050   0.176  14.647  0.0342  1.0483  0.3831
 1905TIP3   OH227205   1.058   0.221   3.524  0.1271 -0.1842 -0.2913
 1905TIP3    H127206   0.987   0.281   3.550 -0.6246 -1.3998  0.5802
 1905TIP3    H227207   1.022   0.134   3.539  2.4115 -0.8776  1.9336
 1906TIP3   OH227208   5.430   4.899   0.725 -0.5714 -0.0906 -0.3008
 1906TIP3    H127209   5.375   4.977   0.721  1.6205  1.4866 -1.6599
 1906TIP3    H227210   5.416   4.864   0.814 -0.9916  2.3093  0.6396
 1907TIP3   OH227211   0.048   2.542   0.977 -0.2061 -0.5491 -0.3532
 1907TIP3    H127212   0.142   2.547   0.958 -0.5152  0.4749 -1.7175
 1907TIP3    H227213   0.044   2.513   1.068  1.4343 -0.7373 -0.3143
 1908TIP3   OH227214   5.273   2.631   4.919 -0.3022 -0.0396  0.6498
 1908TIP3    H127215   5.261   2.714   4.874 -1.1770 -1.0810 -1.1139
 1908TIP3    H227216   5.233   2.645   5.005  0.9202  1.8016  0.9889
 1909TIP3   OH227217   4.495   1.921   3.345 -0.0594  0.9774 -0.3238
 1909TIP3    H127218   4.574   1.964   3.379 -0.3857  0.5749  1.0090
 1909TIP3    H227219   4.423   1.964   3.392 -0.7617  2.0573 -2.2551
 1910TIP3   OH227220   2.810   2.017  15.191 -0.0626 -0.3951  0.7507
 1910TIP3    H127221   2.850   2.099  15.220  0.6268  0.2106 -1.6544
 1910TIP3    H227222   2.716   2.032  15.196  0.0587  0.4124  0.7399
 1911TIP3   OH227223   4.989   4.247  12.387 -0.5772 -0.1747  0.1037
 1911TIP3    H127224   5.056   4.292  12.438  0.2925 -0.8561 -0.4117
 1911TIP3    H227225   4.922   4.313  12.371 -0.2553  0.3864  1.0322
 1912TIP3   OH227226   0.788   5.867  11.983 -0.3269  0.4084 -0.0981
 1912TIP3    H127227   0.759   5.864  11.892  0.8575  2.9111 -0.6528
 1912TIP3    H227228   0.716   5.908  12.030 -0.3916  0.3866 -0.1782
 1913TIP3   OH227229   2.160   5.726   1.226 -0.6780 -0.4378  0.0481
 1913TIP3    H127230   2.163   5.728   1.321 -2.5020 -1.2922  0.1761
 1913TIP3    H227231   2.251   5.735   1.198  0.2485 -2.7626  1.9356
 1914TIP3   OH227232   3.524   5.927  10.799  0.4209  0.5041  0.4400
 1914TIP3    H127233   3.465   6.000  10.781  0.5081  1.3062  2.9287
 1914TIP3    H227234   3.506   5.864  10.729 -3.9233  0.4076  1.3224
 1915TIP3   OH227235   0.008   4.019   1.398 -0.0600  0.8876  0.4607
 1915TIP3    H127236   0.016   3.985   1.309  1.4445 -0.3942  1.0167
 1915TIP3    H227237   0.096   4.050   1.419  0.2472 -1.0097  2.2849
 1916TIP3   OH227238   2.621   1.568   6.640  0.1075 -0.2060 -0.0068
 1916TIP3    H127239   2.689   1.635   6.651  0.2512 -0.3961  0.2872
 1916TIP3    H227240   2.650   1.516   6.566 -0.3023  0.4138 -0.6109
 1917TIP3   OH227241   3.018   3.564  13.698 -0.2309 -0.5371  0.8122
 1917TIP3    H127242   3.073   3.574  13.776 -0.4215 -1.5189  1.0798
 1917TIP3    H227243   2.947   3.506  13.725 -0.6879 -0.3237  0.1020
 1918TIP3   OH227244   1.148   4.053  16.432  0.4348  0.4896 -0.4768
 1918TIP3    H127245   1.178   3.981  16.376  1.6991 -0.6436  1.5359
 1918TIP3    H227246   1.053   4.046  16.432  0.5086 -3.0409  1.7773
 1919TIP3   OH227247   4.861   4.231   4.400  0.1227  0.3008 -0.2405
 1919TIP3    H127248   4.934   4.284   4.368 -0.6226  0.2500 -2.1455
 1919TIP3    H227249   4.801   4.226   4.326 -1.4925 -0.2580  1.0536
 1920TIP3   OH227250   0.064   5.817   5.506 -0.0368  0.2467 -0.1316
 1920TIP3    H127251   0.003   5.862   5.565  1.0515 -0.1912  1.4178
 1920TIP3    H227252   0.013   5.746   5.468 -0.3211 -0.7189  1.8860
 1921TIP3   OH227253   4.732   5.514   4.265  0.1080  0.0013  0.4850
 1921TIP3    H127254   4.827   5.510   4.278 -0.0626 -0.1741  1.9179
 1921TIP3    H227255   4.704   5.423   4.270 -0.1799  0.0902  0.4791
 1922TIP3   OH227256   4.498   1.301   6.025 -0.0124 -0.4086 -0.2783
 1922TIP3    H127257   4.557   1.227   6.011 -0.0063 -0.2907 -0.8850
 1922TIP3    H227258   4.543   1.375   5.986 -0.1643 -0.1414  0.0477
 1923TIP3   OH227259   2.728   2.114  12.489  0.2979 -0.0633  0.0831
 1923TIP3    H127260   2.653   2.080  12.538 -0.9259  1.0510 -0.9493
 1923TIP3    H227261   2.689   2.157  12.413  1.7076  3.6809  1.2918
 1924TIP3   OH227262   1.129   3.525  17.025 -0.4388  0.0105 -0.5971
 1924TIP3    H127263   1.080   3.580  17.086  3.1955  2.1768  0.6884
 1924TIP3    H227264   1.138   3.441  17.070  0.1588  0.8075  0.8218
 1925TIP3   OH227265   6.529   0.805   5.555 -0.6315 -0.6070  0.0781
 1925TIP3    H127266   6.549   0.880   5.611 -1.0223 -1.0328  0.8015
 1925TIP3    H227267   6.466   0.839   5.491  1.0844  0.3232 -1.2065
 1926TIP3   OH227268   0.425   4.755   2.392  0.3435 -0.0091  0.0314
 1926TIP3    H127269   0.385   4.789   2.312  1.7976 -0.3810 -0.8903
 1926TIP3    H227270   0.393   4.812   2.462  0.4253  1.4198 -1.0620
 1927TIP3   OH227271   2.571   3.995  13.265  0.2682  0.1800 -0.2575
 1927TIP3    H127272   2.535   3.962  13.183 -0.2121  0.2719 -0.0871
 1927TIP3    H227273   2.520   4.074  13.283  1.3196  0.9596 -0.5959
 1928TIP3   OH227274   6.567   5.575  10.661  0.0992  0.1689  0.4277
 1928TIP3    H127275   6.583   5.500  10.719 -1.6826 -0.8549 -0.3326
 1928TIP3    H227276   6.557   5.536  10.574 -0.4352  1.3349 -0.0547
 1929TIP3   OH227277   3.161   4.897  14.871 -0.1834  0.4545 -0.4504
 1929TIP3    H127278   3.153   4.853  14.956 -1.3569  0.7874 -0.3715
 1929TIP3    H227279   3.128   4.985  14.887 -2.4635 -0.1039 -1.7267
 1930TIP3   OH227280   2.065   3.015  12.637  0.7866  0.5512 -0.1516
 1930TIP3    H127281   2.093   3.054  12.554 -2.2476 -0.2090 -1.6849
 1930TIP3    H227282   2.013   3.083  12.679 -0.4512 -0.1343 -0.5179
 1931TIP3   OH227283   5.159   2.937  16.957  0.2577  0.0833  0.0908
 1931TIP3    H127284   5.251   2.956  16.938 -0.0753  1.4612 -0.2387
 1931TIP3    H227285   5.114   3.021  16.947 -0.4351  0.3895  4.1018
 1932TIP3   OH227286   1.824   5.927  16.927 -0.0611 -0.7771  0.0764
 1932TIP3    H127287   1.904   5.912  16.878 -0.7091 -2.2214 -0.5904
 1932TIP3    H227288   1.758   5.946  16.861  0.0709  2.4372  0.7136
 1933TIP3   OH227289   2.978   6.696  14.318  0.3405  0.2257 -0.0363
 1933TIP3    H127290   3.060   6.690  14.368 -0.0916 -1.4415  0.5451
 1933TIP3    H227291   3.006   6.706  14.228  1.1499  1.6057  0.3342
 1934TIP3   OH227292   5.669   4.989  17.211 -0.3501 -0.5607 -0.3635
 1934TIP3    H127293   5.579   5.021  17.199 -0.2093 -0.4703 -1.2881
 1934TIP3    H227294   5.697   4.966  17.123  0.7092 -0.1199 -0.1544
 1935TIP3   OH227295   3.076   2.487  15.956  0.3888 -0.3595 -0.3568
 1935TIP3    H127296   3.055   2.544  15.882 -0.8780 -0.1051  0.1642
 1935TIP3    H227297   3.171   2.487  15.960  0.4445  1.4570 -0.5918
 1936TIP3   OH227298   2.019   0.291  16.633  0.1833  0.0180  0.2517
 1936TIP3    H127299   2.065   0.364  16.592  1.8532 -0.2881  1.4607
 1936TIP3    H227300   1.998   0.232  16.561  0.6704  0.7163 -0.4807
 1937TIP3   OH227301   2.168   4.524  12.297 -0.5735  0.0161 -0.6631
 1937TIP3    H127302   2.123   4.446  12.266 -0.7093 -1.4715  2.8637
 1937TIP3    H227303   2.104   4.569  12.352  0.2550  1.3591 -0.7500
 1938TIP3   OH227304   4.714   4.779   0.532  0.0728  0.1084 -0.0948
 1938TIP3    H127305   4.799   4.820   0.522 -0.2390  1.2331  1.5653
 1938TIP3    H227306   4.651   4.849   0.517 -0.6107 -0.8023 -1.7510
 1939TIP3   OH227307   4.525   1.441   5.222  0.0345 -0.2491 -0.9411
 1939TIP3    H127308   4.552   1.365   5.170 -0.2846 -0.9390 -0.1215
 1939TIP3    H227309   4.457   1.407   5.280  0.6967  0.3846  0.2480
 1940TIP3   OH227310   3.958   3.967   1.815  0.3574 -0.1643  0.0497
 1940TIP3    H127311   3.923   3.889   1.772 -1.1004  0.3511  0.2376
 1940TIP3    H227312   3.881   4.009   1.853  0.8520  2.2891 -1.4915
 1941TIP3   OH227313   5.424   1.893  15.431  0.4023  0.1960  0.3111
 1941TIP3    H127314   5.476   1.814  15.412  0.5573  0.3412  0.1360
 1941TIP3    H227315   5.432   1.947  15.353 -2.1087 -0.8887 -0.8066
 1942TIP3   OH227316   0.712   6.817  12.370  0.2832 -0.7051  0.5048
 1942TIP3    H127317   0.658   6.745  12.403  0.6603 -1.9085 -1.3546
 1942TIP3    H227318   0.655   6.863  12.308  0.6034 -0.4594  0.3918
 1943TIP3   OH227319   1.840   5.244   4.060  0.6995 -0.9409  0.3271
 1943TIP3    H127320   1.833   5.319   4.000  0.8742  0.0486  1.4945
 1943TIP3    H227321   1.933   5.222   4.061  0.5626 -1.5879 -0.4887
 1944TIP3   OH227322   5.633   1.038  10.947  0.1236  0.1987  0.0965
 1944TIP3    H127323   5.571   1.085  11.003  0.2165 -0.7074  1.0041
 1944TIP3    H227324   5.593   0.952  10.934  0.5026  0.1137 -0.5378
 1945TIP3   OH227325   5.362   4.453   4.071 -0.1913 -0.2739 -0.0581
 1945TIP3    H127326   5.273   4.480   4.051 -0.3201 -0.0081  0.8225
 1945TIP3    H227327   5.381   4.493   4.156  0.5197 -0.8885  0.0875
 1946TIP3   OH227328   3.959   6.637  10.237 -0.4647 -0.4051 -0.1940
 1946TIP3    H127329   3.873   6.597  10.230 -0.7595  0.1465  0.1632
 1946TIP3    H227330   3.942   6.731  10.228  0.0382 -0.2573  0.3193
 1947TIP3   OH227331   4.645   4.013   2.487 -0.2723  0.0765 -0.1919
 1947TIP3    H127332   4.671   3.934   2.440  0.1248 -0.4636  0.9110
 1947TIP3    H227333   4.636   4.079   2.419  1.4606 -0.3860 -0.9224
 1948TIP3   OH227334   4.317   2.977  14.858  0.3582 -0.2334 -0.1310
 1948TIP3    H127335   4.376   2.986  14.783 -1.7538 -2.5877 -2.2716
 1948TIP3    H227336   4.283   2.888  14.851 -0.1242 -0.4973  3.5980
 1949TIP3   OH227337   6.811   3.306   2.236  0.7926  0.1276 -0.0581
 1949TIP3    H127338   6.720   3.311   2.206 -0.0379  2.1057  2.4413
 1949TIP3    H227339   6.861   3.291   2.156 -1.5824  0.5855 -1.7585
 1950TIP3   OH227340   0.102   6.247   4.012 -0.1424  0.4777  0.0333
 1950TIP3    H127341   0.081   6.172   4.066  2.7250  0.8301  1.8279
 1950TIP3    H227342   0.076   6.221   3.923 -1.9561 -1.3792  1.0169
 1951TIP3   OH227343   5.694   5.655   2.407 -0.5504  0.0395  0.4319
 1951TIP3    H127344   5.689   5.629   2.499  0.7484  1.4786  0.9422
 1951TIP3    H227345   5.768   5.715   2.402  0.9520 -1.8083 -2.0069
 1952TIP3   OH227346   5.356   5.005  11.028 -0.3757 -0.1134 -0.0661
 1952TIP3    H127347   5.447   5.035  11.026 -0.7162  0.9812 -1.2855
 1952TIP3    H227348   5.335   4.998  11.121  0.9872 -0.5052  0.2346
 1953TIP3   OH227349   4.394   1.838   3.734 -1.0620 -0.4553 -0.1995
 1953TIP3    H127350   4.419   1.749   3.708 -0.3396 -0.3771  0.1889
 1953TIP3    H227351   4.405   1.839   3.829  0.2695  0.4355 -0.3371
 1954TIP3   OH227352   5.963   3.360   3.164 -0.8796 -0.2584  0.2165
 1954TIP3    H127353   5.896   3.318   3.217  0.0098 -3.9327 -1.2383
 1954TIP3    H227354   5.919   3.381   3.081 -0.7430 -0.7266  0.0219
 1955TIP3   OH227355   2.768   1.333   3.496  0.6346  0.6139  0.4218
 1955TIP3    H127356   2.682   1.307   3.462  0.9807 -0.5900  0.4418
 1955TIP3    H227357   2.821   1.346   3.418  0.9409 -0.4487  0.4415
 1956TIP3   OH227358   1.546   5.847   0.176 -0.2681  0.1614  0.0761
 1956TIP3    H127359   1.617   5.855   0.239  0.5633 -1.0964 -0.6506
 1956TIP3    H227360   1.560   5.918   0.114 -0.4578  0.7447  0.6908
 1957TIP3   OH227361   4.856   2.325  15.139 -0.0997 -0.1088 -0.1424
 1957TIP3    H127362   4.935   2.351  15.092 -0.1251  1.0520  0.4171
 1957TIP3    H227363   4.881   2.244  15.185  0.5695 -0.0790 -0.4459
 1958TIP3   OH227364   6.720   4.876  17.047 -1.2498  0.2337 -0.4567
 1958TIP3    H127365   6.634   4.918  17.049  0.2498  3.5704  0.8100
 1958TIP3    H227366   6.775   4.935  16.995  1.2599  0.6040  2.2994
 1959TIP3   OH227367   0.295   5.925  12.077  0.2017  0.3988  0.4870
 1959TIP3    H127368   0.354   5.897  12.008  0.0245 -0.3609  0.6334
 1959TIP3    H227369   0.273   5.844  12.125 -2.4380  0.2790 -0.7129
 1960TIP3   OH227370   0.312   0.388  13.281 -0.0355 -0.2742  0.3250
 1960TIP3    H127371   0.355   0.453  13.337 -0.0517  0.8847 -0.9396
 1960TIP3    H227372   0.279   0.439  13.207  0.1188 -1.7646 -0.8165
 1961TIP3   OH227373   0.390   3.733   0.807 -0.3349 -0.1823 -0.1979
 1961TIP3    H127374   0.405   3.811   0.754 -0.8919 -0.3883 -0.6583
 1961TIP3    H227375   0.458   3.672   0.779 -1.6555 -0.9181 -1.9043
 1962TIP3   OH227376   3.027   6.752  14.052  0.0533  0.5020 -0.1983
 1962TIP3    H127377   3.037   6.665  14.013 -1.2151  0.0772  0.3588
 1962TIP3    H227378   3.102   6.801  14.021  0.3193 -0.5267 -1.2558
 1963TIP3   OH227379   6.440   4.806  17.018  0.2254 -0.5287 -0.3706
 1963TIP3    H127380   6.372   4.755  16.973 -1.1452  0.5689  0.3869
 1963TIP3    H227381   6.469   4.749  17.089  0.8601 -1.4154 -1.3163
 1964TIP3   OH227382   5.966   4.967   1.310 -0.0436 -0.0412 -0.0761
 1964TIP3    H127383   5.961   4.936   1.401  0.7683  1.3807  0.5006
 1964TIP3    H227384   5.917   4.902   1.259  0.3566 -1.4287  1.2309
 1965TIP3   OH227385   3.635   4.169   4.517 -0.4387  0.4677 -0.9707
 1965TIP3    H127386   3.562   4.111   4.539  0.1612  0.0853  0.1228
 1965TIP3    H227387   3.623   4.245   4.573 -0.1195  0.4947 -0.9357
 1966TIP3   OH227388   5.194   1.486   2.740  0.3228 -0.4240  0.1205
 1966TIP3    H127389   5.117   1.540   2.756 -0.1187 -0.2567 -2.2447
 1966TIP3    H227390   5.160   1.397   2.733  0.3890 -0.4016 -0.5351
 1967TIP3   OH227391   6.143   3.407  14.207 -0.8169 -0.6483 -0.1182
 1967TIP3    H127392   6.161   3.501  14.211  0.4226 -0.8825  0.2590
 1967TIP3    H227393   6.135   3.380  14.298 -1.3370 -0.8877 -0.2299
 1968TIP3   OH227394   6.704   2.805  13.128 -0.1358  0.6841  0.2212
 1968TIP3    H127395   6.773   2.860  13.090 -0.7085 -0.4595 -2.7315
 1968TIP3    H227396   6.622   2.849  13.106 -0.4807  0.4499  0.9873
 1969TIP3   OH227397   4.355   3.192  13.332  0.2714 -0.4593  0.3425
 1969TIP3    H127398   4.315   3.203  13.245  1.2257 -0.9264 -0.1712
 1969TIP3    H227399   4.446   3.168  13.313  0.8837  0.8363  1.4793
 1970TIP3   OH227400   3.809   6.568  12.198 -0.6383 -0.2807 -0.3749
 1970TIP3    H127401   3.884   6.627  12.201 -0.0970 -0.9432 -0.6229
 1970TIP3    H227402   3.797   6.549  12.105 -0.5996 -0.8117 -0.2778
 1971TIP3   OH227403   4.748   3.134  13.825 -0.3386  0.1708 -0.2338
 1971TIP3    H127404   4.740   3.180  13.741 -1.0375 -0.6668 -0.6451
 1971TIP3    H227405   4.699   3.188  13.887  0.5497  1.0242 -0.2580
 1972TIP3   OH227406   1.035   0.142  15.634 -1.0374 -0.5754 -0.3548
 1972TIP3    H127407   0.951   0.180  15.662 -0.7163 -0.8098  0.9944
 1972TIP3    H227408   1.098   0.213  15.642 -1.0418 -0.4726 -1.1179
 1973TIP3   OH227409   5.231   3.653   6.008 -0.5616 -0.3511 -0.2859
 1973TIP3    H127410   5.311   3.686   6.048 -0.4422 -1.9909  0.9513
 1973TIP3    H227411   5.172   3.637   6.082 -1.8377  0.2797 -1.1282
 1974TIP3   OH227412   2.349   3.068   5.358  0.3657  0.0179  0.5745
 1974TIP3    H127413   2.422   3.085   5.418  1.6052  0.8249 -1.0650
 1974TIP3    H227414   2.391   3.026   5.282 -0.3298  2.9624 -1.6067
 1975TIP3   OH227415   6.527   0.368  16.657  0.5023  0.2574 -0.2187
 1975TIP3    H127416   6.433   0.383  16.643  0.3893 -0.0492  0.2170
 1975TIP3    H227417   6.548   0.421  16.734  0.3575 -0.8284  0.5989
 1976TIP3   OH227418   4.758   1.044  11.890 -0.0054 -0.5980 -0.3706
 1976TIP3    H127419   4.671   1.042  11.931  0.6124 -0.8239  0.9779
 1976TIP3    H227420   4.815   1.082  11.957  0.5253  1.9422 -2.1163
 1977TIP3   OH227421   5.742   5.417  15.257  0.4411  0.0653  1.1713
 1977TIP3    H127422   5.750   5.506  15.293  0.2442 -0.6637  3.1317
 1977TIP3    H227423   5.759   5.428  15.163 -0.0993  2.2503  1.2639
 1978TIP3   OH227424   2.422   2.418  13.959 -0.1719  0.9734  0.2619
 1978TIP3    H127425   2.468   2.334  13.965 -0.2414  0.9232  0.0913
 1978TIP3    H227426   2.351   2.402  13.896 -0.0892  1.2062  0.1106
 1979TIP3   OH227427   3.830   3.831   1.483 -0.6738 -0.5019 -0.3476
 1979TIP3    H127428   3.807   3.924   1.473  0.9885 -0.0247 -0.0246
 1979TIP3    H227429   3.799   3.808   1.570  1.8662  0.7512  1.0012
 1980TIP3   OH227430   0.686   5.023   3.446  0.3093  0.1341  0.7814
 1980TIP3    H127431   0.692   4.943   3.395 -1.0564 -0.4791  1.5369
 1980TIP3    H227432   0.680   5.093   3.380 -1.6952 -0.6583  0.0725
 1981TIP3   OH227433   1.522   4.209  15.125 -0.0891 -0.3354 -0.2647
 1981TIP3    H127434   1.433   4.238  15.104  0.4013  0.2201 -1.6999
 1981TIP3    H227435   1.570   4.215  15.042  0.9733 -1.8579  0.1823
 1982TIP3   OH227436   2.715   5.539  12.992 -0.1072  0.1166 -0.0522
 1982TIP3    H127437   2.793   5.584  12.960  0.3651  0.2817  1.2671
 1982TIP3    H227438   2.696   5.473  12.925 -0.1574  1.5221 -1.4791
 1983TIP3   OH227439   4.604   4.292   0.653  0.1161  0.1844 -0.0267
 1983TIP3    H127440   4.582   4.313   0.562  0.1149 -1.3533 -0.4064
 1983TIP3    H227441   4.691   4.251   0.648 -0.9842 -2.4002  0.2747
 1984TIP3   OH227442   1.014   5.018   0.077  0.0168  0.0343  0.0272
 1984TIP3    H127443   0.939   5.056   0.123 -0.5970 -0.1447 -0.8117
 1984TIP3    H227444   1.090   5.051   0.125 -0.6023 -0.1462  1.1681
 1985TIP3   OH227445   5.053   0.243   1.459 -0.2306 -0.3689 -0.1653
 1985TIP3    H127446   5.033   0.160   1.416  0.1876 -1.1263  1.0555
 1985TIP3    H227447   5.148   0.241   1.473 -0.1031  0.6463 -0.7641
 1986TIP3   OH227448   0.571   3.117   2.741  0.1193 -0.0430 -0.1296
 1986TIP3    H127449   0.489   3.164   2.728 -0.8180 -0.7624  2.4716
 1986TIP3    H227450   0.544   3.031   2.773  1.8945 -0.3349  0.7014
 1987TIP3   OH227451   3.632   4.495  11.860  0.2285 -0.1696 -0.2444
 1987TIP3    H127452   3.666   4.407  11.877  0.7340 -0.2679 -1.6471
 1987TIP3    H227453   3.550   4.499  11.910  0.0302 -1.5458 -0.4246
 1988TIP3   OH227454   1.036   4.356  15.812 -0.1060  0.7869 -0.0488
 1988TIP3    H127455   0.977   4.349  15.737  1.2109 -0.4513 -1.0120
 1988TIP3    H227456   0.993   4.419  15.870 -0.7040  2.5845 -2.2719
 1989TIP3   OH227457   1.016   5.790   2.534 -0.1551 -0.0081 -0.2340
 1989TIP3    H127458   0.936   5.752   2.572 -0.1478 -1.0292 -1.1797
 1989TIP3    H227459   0.988   5.824   2.448  0.4195 -0.3770 -0.5745
 1990TIP3   OH227460   4.903   1.484   5.854 -0.5179 -0.2603  0.3733
 1990TIP3    H127461   4.943   1.470   5.939 -0.1578  0.1880  0.2834
 1990TIP3    H227462   4.946   1.422   5.796 -0.3968 -0.2116  0.4114
 1991TIP3   OH227463   5.055   0.535   4.170 -0.0652 -0.5298  0.2467
 1991TIP3    H127464   5.137   0.576   4.142  0.5280 -1.2045  0.9344
 1991TIP3    H227465   5.020   0.495   4.091  1.1379 -1.6708  0.2639
 1992TIP3   OH227466   5.428   3.539  11.747  0.4286 -0.8005 -0.5013
 1992TIP3    H127467   5.424   3.601  11.674 -0.0689  1.0044  0.9865
 1992TIP3    H227468   5.357   3.566  11.806  0.4443 -2.5680  0.3974
 1993TIP3   OH227469   5.915   4.101   3.950  0.2213  0.3725 -0.5776
 1993TIP3    H127470   5.822   4.083   3.963  0.3541 -0.6619 -0.9645
 1993TIP3    H227471   5.935   4.063   3.864  1.0960  0.2061 -0.3069
 1994TIP3   OH227472   2.642   2.300   3.849 -0.0823 -0.8159 -0.5915
 1994TIP3    H127473   2.594   2.381   3.863  1.6740  0.2697 -0.4701
 1994TIP3    H227474   2.599   2.236   3.906 -0.4101  0.5064  0.7197
 1995TIP3   OH227475   5.768   1.494   4.818  0.2683  0.3289 -0.3108
 1995TIP3    H127476   5.785   1.477   4.911  0.8062 -0.9452 -0.6153
 1995TIP3    H227477   5.675   1.518   4.815 -0.0820 -0.8153  0.4352
 1996TIP3   OH227478   3.913   5.196   4.014 -0.2845 -0.1002  0.4076
 1996TIP3    H127479   3.886   5.105   4.018  1.0970 -0.4894  2.0156
 1996TIP3    H227480   3.965   5.209   4.093 -0.2241  2.0135  0.0770
 1997TIP3   OH227481   6.137   6.015  16.174  0.5257 -0.1753  0.2386
 1997TIP3    H127482   6.164   6.078  16.241  0.0746  0.5940 -0.2869
 1997TIP3    H227483   6.216   6.000  16.122  0.4294  0.6327 -0.1603
 1998TIP3   OH227484   6.367   3.134   6.556  0.0793 -0.3862 -0.5987
 1998TIP3    H127485   6.309   3.112   6.629  1.3890 -2.1973 -0.0232
 1998TIP3    H227486   6.409   3.051   6.534  3.2025  1.0067 -0.3199
 1999TIP3   OH227487   4.144   1.694   0.816 -0.4502  0.5588 -0.1790
 1999TIP3    H127488   4.088   1.622   0.843 -1.7037  1.9617  1.1680
 1999TIP3    H227489   4.101   1.729   0.738 -0.0085  0.0629 -0.6541
 2000TIP3   OH227490   3.239   4.850  11.298 -0.0493 -0.1204  0.1779
 2000TIP3    H127491   3.289   4.889  11.370 -0.0080  0.3468 -0.1004
 2000TIP3    H227492   3.202   4.771  11.336  0.0035  0.0987  0.7068
 2001TIP3   OH227493   4.438   3.451   3.912  0.1514 -0.3214  0.1134
 2001TIP3    H127494   4.409   3.538   3.939  1.1744 -0.4477  1.7685
 2001TIP3    H227495   4.528   3.445   3.943  1.6976 -0.3559 -3.8113
 2002TIP3   OH227496   6.585   5.510   1.362 -0.4343  0.1914  0.1120
 2002TIP3    H127497   6.578   5.415   1.371  1.4410  0.0096  0.0256
 2002TIP3    H227498   6.539   5.530   1.280  0.5467 -0.8849 -0.7476
 2003TIP3   OH227499   2.030   2.630  11.312 -0.6066  0.0230 -0.2537
 2003TIP3    H127500   2.029   2.542  11.350 -0.4901  0.2756  0.3599
 2003TIP3    H227501   2.122   2.645  11.289 -0.5657  0.1179 -0.0299
 2004TIP3   OH227502   0.010   6.701  14.647 -0.1814 -0.2432  0.0956
 2004TIP3    H127503   0.018   6.635  14.716  0.1868  0.7839  1.0816
 2004TIP3    H227504   0.014   6.652  14.566  1.1538 -1.3429  0.7858
 2005TIP3   OH227505   2.301   4.868   1.872 -0.0727 -0.2728  0.2354
 2005TIP3    H127506   2.260   4.782   1.863  0.5502 -0.4731 -0.7794
 2005TIP3    H227507   2.357   4.859   1.949 -0.9600 -0.3789  0.8880
 2006TIP3   OH227508   6.202   3.404  16.136  0.3588 -0.1272  0.3488
 2006TIP3    H127509   6.150   3.324  16.132  0.2475 -0.0139 -1.3886
 2006TIP3    H227510   6.284   3.381  16.093  0.7714  0.3828  0.8479
 2007TIP3   OH227511   5.484   6.708  15.538 -0.1309 -0.6374  0.6271
 2007TIP3    H127512   5.519   6.733  15.624 -0.9322 -0.8571  1.0251
 2007TIP3    H227513   5.516   6.619  15.524  1.9669  0.2096 -0.3823
 2008TIP3   OH227514   2.585   3.218  14.235 -0.3098 -0.6794  0.1264
 2008TIP3    H127515   2.502   3.264  14.233  0.6241  1.0966  0.0139
 2008TIP3    H227516   2.650   3.286  14.255  1.1207 -1.9903  0.1781
 2009TIP3   OH227517   5.856   6.209  16.339  0.2955  0.2590 -0.0929
 2009TIP3    H127518   5.837   6.159  16.259  1.9687 -0.7391  0.0936
 2009TIP3    H227519   5.830   6.298  16.317 -1.3227 -0.3832 -0.9823
 2010TIP3   OH227520   2.652   0.970  11.647 -0.6013 -0.2931  0.1053
 2010TIP3    H127521   2.600   1.042  11.681  0.0303  0.4627 -0.4701
 2010TIP3    H227522   2.706   0.943  11.721 -3.2293 -2.5314  1.3716
 2011TIP3   OH227523   2.476   5.234  11.505  0.5115 -0.4714  0.3426
 2011TIP3    H127524   2.430   5.317  11.500 -1.2549 -1.4042  0.2296
 2011TIP3    H227525   2.473   5.199  11.416 -0.2992 -1.4053  0.7085
 2012TIP3   OH227526   3.376   3.942  15.337 -0.3070 -0.4631 -0.4778
 2012TIP3    H127527   3.366   4.037  15.334 -0.2316 -0.4259  0.3882
 2012TIP3    H227528   3.368   3.919  15.429  3.8589 -0.8227 -0.0111
 2013TIP3   OH227529   4.087   5.176  12.317  0.3771  0.2037 -0.2605
 2013TIP3    H127530   4.110   5.089  12.285 -1.6178 -0.0908 -0.9817
 2013TIP3    H227531   4.171   5.215  12.341  1.4735 -1.3053 -1.4449
 2014TIP3   OH227532   2.552   3.527  12.310 -0.2741  0.0690  0.4145
 2014TIP3    H127533   2.571   3.508  12.402  1.4782  1.6143  0.4330
 2014TIP3    H227534   2.517   3.616  12.311 -3.0959 -0.9112 -0.1925
 2015TIP3   OH227535   2.031   5.069  12.174  0.1078 -0.0913  0.2592
 2015TIP3    H127536   2.043   4.974  12.170  0.0232 -0.1387  1.0274
 2015TIP3    H227537   2.100   5.098  12.234  0.2325  0.3568 -0.0976
 2016TIP3   OH227538   4.260   3.505  15.989  0.1369 -0.2666 -0.1648
 2016TIP3    H127539   4.252   3.471  16.077 -2.6801 -2.2709 -1.0779
 2016TIP3    H227540   4.239   3.432  15.932  1.3498  1.0902 -2.5506
 2017TIP3   OH227541   0.589   5.028  10.750  0.4937  0.1460 -0.1463
 2017TIP3    H127542   0.635   5.071  10.678 -0.6984  0.0745 -0.9769
 2017TIP3    H227543   0.657   5.009  10.814  1.5146  0.5743 -1.0753
 2018TIP3   OH227544   1.838   3.665   4.975  0.5207  0.1577 -0.5285
 2018TIP3    H127545   1.748   3.633   4.979  1.3771 -2.7232 -1.7581
 2018TIP3    H227546   1.877   3.637   5.058  0.0828  2.4534  0.5466
 2019TIP3   OH227547   2.698   0.938   5.079  0.3944 -0.0062 -0.0623
 2019TIP3    H127548   2.762   0.947   5.008  0.6607 -0.7529  0.0721
 2019TIP3    H227549   2.625   0.994   5.052  2.1268  3.0332  1.0337
 2020TIP3   OH227550   5.433   2.247   0.674  0.1046  0.0261 -0.1926
 2020TIP3    H127551   5.346   2.286   0.680  0.4579  0.8597 -0.3104
 2020TIP3    H227552   5.418   2.153   0.685 -0.7805  0.1786  0.0081
 2021TIP3   OH227553   4.457   2.273   1.911  0.2726  0.3974 -0.1157
 2021TIP3    H127554   4.453   2.289   1.817  0.2330 -2.0082 -0.6008
 2021TIP3    H227555   4.548   2.247   1.927 -0.0322 -0.4601  0.2594
 2022TIP3   OH227556   3.186   0.815  10.734 -0.0209  0.0297  0.0488
 2022TIP3    H127557   3.153   0.842  10.649  0.1485 -0.4793 -0.1833
 2022TIP3    H227558   3.172   0.720  10.736  2.0062 -0.3321 -0.3360
 2023TIP3   OH227559   2.318   2.457  16.922  0.0902 -0.2661  0.1124
 2023TIP3    H127560   2.349   2.534  16.875  1.2098  0.0214  1.2596
 2023TIP3    H227561   2.223   2.460  16.914  0.1990 -1.3218 -3.7929
 2024TIP3   OH227562   0.018   4.524   2.779 -0.5591  0.4933  0.6119
 2024TIP3    H127563  -0.043   4.473   2.832 -0.2964  1.5284  1.9634
 2024TIP3    H227564   0.064   4.459   2.726 -4.5757 -0.2136 -2.5131
 2025TIP3   OH227565   0.434   3.733  13.006 -0.1979  0.2549  0.2231
 2025TIP3    H127566   0.488   3.804  13.040 -0.1121  0.1356  0.3365
 2025TIP3    H227567   0.463   3.722  12.915  1.1493 -0.9147  0.7432
 2026TIP3   OH227568   3.648   4.864  14.434  0.3513  0.1707 -0.0963
 2026TIP3    H127569   3.589   4.908  14.494 -0.7721 -2.9353  1.2859
 2026TIP3    H227570   3.732   4.864  14.479  0.3306  0.7219 -0.0493
 2027TIP3   OH227571   5.956   1.696  16.529  0.1541 -0.1896  0.3935
 2027TIP3    H127572   6.037   1.666  16.570  1.1497  2.7176  0.7823
 2027TIP3    H227573   5.963   1.667  16.438  1.3458 -0.5430  0.5806
 2028TIP3   OH227574   1.294   3.203   2.764 -0.1015  0.1982 -0.1804
 2028TIP3    H127575   1.339   3.134   2.813 -1.0950  2.4145  4.3841
 2028TIP3    H227576   1.364   3.263   2.737  0.3016  0.7385  1.8775
 2029TIP3   OH227577   5.244   0.991   5.335  0.2596  0.1904 -0.4089
 2029TIP3    H127578   5.251   1.083   5.359 -0.1183 -0.1778  1.2485
 2029TIP3    H227579   5.326   0.952   5.365 -0.6579 -0.4813  1.4482
 2030TIP3   OH227580   6.122   5.290  17.156 -0.6061 -0.1688 -0.1071
 2030TIP3    H127581   6.032   5.262  17.143 -0.7197 -0.6563  1.5614
 2030TIP3    H227582   6.174   5.228  17.105 -1.0649 -1.4905  0.9712
 2031TIP3   OH227583   0.016   6.468   0.010 -0.0750 -1.4239  0.5778
 2031TIP3    H127584   0.076   6.542   0.021 -0.3496 -1.1927  0.5301
 2031TIP3    H227585   0.062   6.394   0.049  0.0907 -1.1712  0.8630
 2032TIP3   OH227586   5.383   3.254  15.481  0.3962  0.2430  0.6583
 2032TIP3    H127587   5.453   3.316  15.459  0.4324 -0.1437 -0.3738
 2032TIP3    H227588   5.310   3.280  15.424 -0.2530  0.5359  1.5998
 2033TIP3   OH227589   4.439   5.159  16.706  0.3166 -0.0404  0.7851
 2033TIP3    H127590   4.478   5.136  16.622 -0.2592  1.4263  0.0857
 2033TIP3    H227591   4.348   5.132  16.698  0.2478  0.1547  0.9148
 2034TIP3   OH227592   5.448   2.759  12.893 -0.9241 -0.4611  0.0522
 2034TIP3    H127593   5.424   2.814  12.818 -0.1268  0.1239  0.2178
 2034TIP3    H227594   5.543   2.769  12.901 -0.7198 -2.0280 -0.0380
 2035TIP3   OH227595   1.323   3.409   2.344 -0.5996  0.0420 -0.3721
 2035TIP3    H127596   1.284   3.493   2.321  0.8656  1.3971  1.8149
 2035TIP3    H227597   1.407   3.408   2.298  0.0746  0.5037  0.8113
 2036TIP3   OH227598   1.533   5.171   4.612 -0.5197 -0.3882  0.0366
 2036TIP3    H127599   1.534   5.140   4.521 -0.7280 -1.0845  0.2621
 2036TIP3    H227600   1.625   5.175   4.637 -0.4066  0.7010 -0.4881
 2037TIP3   OH227601   1.234   0.820  11.955  0.0776 -1.5318  0.2817
 2037TIP3    H127602   1.147   0.860  11.949  1.1046  0.6552 -1.1569
 2037TIP3    H227603   1.222   0.733  11.917 -1.9985 -2.3245  2.4789
 2038TIP3   OH227604   4.817   1.951  11.758 -0.3659 -0.0752  0.0187
 2038TIP3    H127605   4.733   1.963  11.803 -0.9190 -1.1464 -0.6980
 2038TIP3    H227606   4.805   1.991  11.672 -0.2802 -0.5832 -0.2324
 2039TIP3   OH227607   2.460   3.199   2.240  0.1634 -0.2558  0.4949
 2039TIP3    H127608   2.541   3.162   2.204  0.0076 -0.4469  0.3457
 2039TIP3    H227609   2.391   3.172   2.180  0.0860  0.5286  0.2199
 2040TIP3   OH227610   3.830   5.260   4.311 -0.1230  0.6599  0.0574
 2040TIP3    H127611   3.887   5.199   4.264 -0.7061 -0.3011  0.5501
 2040TIP3    H227612   3.841   5.237   4.403 -0.0413  1.5867  0.2847
 2041TIP3   OH227613   4.052   1.243   5.413  0.4099 -0.4906  0.0023
 2041TIP3    H127614   4.046   1.155   5.451 -1.5348 -0.1230  0.6684
 2041TIP3    H227615   4.022   1.301   5.483  1.0313  0.6477 -0.6523
 2042TIP3   OH227616   0.390   6.746   1.687 -0.2532  0.4942  0.1044
 2042TIP3    H127617   0.432   6.669   1.647  0.2703  0.9798 -0.2975
 2042TIP3    H227618   0.341   6.786   1.615  1.5642  1.9904 -0.3947
 2043TIP3   OH227619   5.106   5.445  16.793 -0.2848  0.4295 -0.0311
 2043TIP3    H127620   5.130   5.538  16.798 -1.5146  0.8855 -1.6156
 2043TIP3    H227621   5.013   5.444  16.812 -0.6920 -0.2031 -1.8696
 2044TIP3   OH227622   0.005   6.668  10.472 -0.4018  0.4124 -0.6939
 2044TIP3    H127623   0.061   6.736  10.435  0.0385  0.5433  0.1899
 2044TIP3    H227624  -0.069   6.716  10.510  0.3192  0.5087  0.6776
 2045TIP3   OH227625   0.101   6.081   4.304 -0.6441  0.2517 -0.1326
 2045TIP3    H127626   0.056   6.161   4.331 -0.8991 -0.3682  1.3581
 2045TIP3    H227627   0.036   6.011   4.315 -0.1730 -0.2801 -0.6288
 2046TIP3   OH227628   4.109   0.188  13.067  0.6341  0.0761 -0.0081
 2046TIP3    H127629   4.045   0.133  13.022  0.9660  1.8106 -2.8791
 2046TIP3    H227630   4.056   0.256  13.110  0.4098 -0.6036  0.8240
 2047TIP3   OH227631   5.450   5.505   6.228 -0.0327  0.4212  0.0977
 2047TIP3    H127632   5.474   5.417   6.260  0.5876 -0.0372 -1.5170
 2047TIP3    H227633   5.355   5.507   6.234  0.0163  0.1563  1.3897
 2048TIP3   OH227634   4.532   2.858   3.310  0.5146  0.2246 -0.1179
 2048TIP3    H127635   4.467   2.810   3.360 -0.0495 -0.3292 -1.3467
 2048TIP3    H227636   4.527   2.948   3.344  1.2641 -0.4357  1.8871
 2049TIP3   OH227637   2.799   4.862  14.282  0.5806  0.4166 -0.2381
 2049TIP3    H127638   2.829   4.777  14.250 -0.3934 -0.5496  1.2777
 2049TIP3    H227639   2.850   4.878  14.361  0.5224  1.0871 -0.3332
 2050TIP3   OH227640   3.047   0.555  12.844 -0.4404 -0.5287 -0.1352
 2050TIP3    H127641   2.980   0.619  12.869 -0.8655 -1.4815  1.3348
 2050TIP3    H227642   3.104   0.550  12.921  0.1130 -1.2573 -0.5842
 2051TIP3   OH227643   0.944   2.561  17.228 -0.0574  0.2892  0.2340
 2051TIP3    H127644   0.966   2.575  17.135  0.6561  1.6163  0.5738
 2051TIP3    H227645   0.854   2.530  17.227  0.1710 -0.4124 -0.9414
 2052TIP3   OH227646   3.394   1.024  11.022 -0.0760 -0.2198 -0.0837
 2052TIP3    H127647   3.421   1.102  10.973 -0.3865 -0.7577 -1.1376
 2052TIP3    H227648   3.424   0.951  10.968 -0.1900 -0.8315  0.6772
 2053TIP3   OH227649   0.899   5.782   5.765  0.3552  0.0419 -0.0380
 2053TIP3    H127650   0.918   5.716   5.831 -0.6541 -0.4976 -0.2624
 2053TIP3    H227651   0.814   5.817   5.790 -0.6491 -1.0362 -1.6778
 2054TIP3   OH227652   0.103   0.022   2.862 -0.1353  0.4806  0.6534
 2054TIP3    H127653   0.120   0.066   2.945 -1.3742  0.1535  1.1112
 2054TIP3    H227654   0.016  -0.018   2.874  0.5353 -1.2839 -0.0655
 2055TIP3   OH227655   2.165   5.875   0.369 -0.2289  0.5881  0.1662
 2055TIP3    H127656   2.230   5.813   0.335 -0.1471  0.9532 -0.3605
 2055TIP3    H227657   2.098   5.880   0.301  0.7901  2.6442 -0.7964
 2056TIP3   OH227658   2.559   5.583  16.676 -0.6085  0.5208  0.3135
 2056TIP3    H127659   2.553   5.559  16.768  0.8497 -1.4254 -0.0461
 2056TIP3    H227660   2.475   5.625  16.657 -1.7555 -0.8541  2.0120
 2057TIP3   OH227661   0.384   4.299   5.599 -0.2777 -0.1619  0.1584
 2057TIP3    H127662   0.375   4.239   5.673 -1.1710  0.7816  0.8358
 2057TIP3    H227663   0.428   4.376   5.635  0.9115 -0.4009 -0.7138
 2058TIP3   OH227664   5.537   3.220  13.086  0.2574 -0.6419  0.2366
 2058TIP3    H127665   5.624   3.179  13.094  0.6827  0.0601 -0.5683
 2058TIP3    H227666   5.545   3.276  13.008 -0.7740 -0.1930  0.4458
 2059TIP3   OH227667   2.242   0.887   0.769  0.0224  0.2977  0.2956
 2059TIP3    H127668   2.181   0.849   0.833  0.3321  2.4342  1.9884
 2059TIP3    H227669   2.322   0.836   0.779 -1.3830 -2.6645 -2.0867
 2060TIP3   OH227670   1.811   0.772  15.137  0.1860 -0.3394 -0.3744
 2060TIP3    H127671   1.728   0.791  15.094 -0.1955  0.5891  0.7141
 2060TIP3    H227672   1.817   0.837  15.206  1.1028 -1.3410  0.5252
 2061TIP3   OH227673   4.938   2.977   0.518 -0.1916 -0.7092 -0.7976
 2061TIP3    H127674   4.992   3.049   0.485 -0.9533  0.3278  0.1838
 2061TIP3    H227675   5.002   2.915   0.555  0.3432  0.5584  0.4690
 2062TIP3   OH227676   2.804   4.745   3.188  0.3416  0.4911  0.0784
 2062TIP3    H127677   2.713   4.774   3.194  0.6018  1.4981 -0.7258
 2062TIP3    H227678   2.850   4.796   3.255  0.2247 -0.4428  0.8910
 2063TIP3   OH227679   0.904   1.719  13.326 -0.2145 -0.8522 -0.1867
 2063TIP3    H127680   0.879   1.627  13.313 -1.5098 -0.4624 -0.6291
 2063TIP3    H227681   0.880   1.738  13.416 -0.5063 -0.7827 -0.2786
 2064TIP3   OH227682   5.488   6.175   2.281  0.5257 -0.3846 -0.1795
 2064TIP3    H127683   5.448   6.262   2.274 -1.1766 -1.1280 -0.1463
 2064TIP3    H227684   5.582   6.192   2.277  0.2445  1.4714 -0.0377
 2065TIP3   OH227685   3.602   4.734   3.599 -0.3894 -0.1165 -0.0111
 2065TIP3    H127686   3.623   4.764   3.688 -0.7855 -0.3988  0.1779
 2065TIP3    H227687   3.533   4.669   3.611 -0.8899  0.3041 -0.5787
 2066TIP3   OH227688   5.273   2.067  15.573 -0.2594  0.2275 -1.0132
 2066TIP3    H127689   5.317   2.094  15.653 -2.4176  1.0863 -0.0494
 2066TIP3    H227690   5.334   2.005  15.532  1.2266  0.3413  0.8833
 2067TIP3   OH227691   2.845   4.946   2.670 -0.4059 -0.5856  0.3061
 2067TIP3    H127692   2.866   4.904   2.753  0.8636 -0.6987 -0.0419
 2067TIP3    H227693   2.760   4.910   2.645 -0.2466 -1.4572  0.9660
 2068TIP3   OH227694   4.703   1.183  13.454  0.4559  0.7944 -0.3886
 2068TIP3    H127695   4.775   1.245  13.446  0.8370  0.4613  0.4201
 2068TIP3    H227696   4.655   1.212  13.531 -0.8899  1.6225 -1.4848
 2069TIP3   OH227697   4.735   0.082  11.926  0.1226 -0.1369 -0.1874
 2069TIP3    H127698   4.738   0.177  11.929 -1.2919  0.0434 -2.0773
 2069TIP3    H227699   4.818   0.056  11.886  1.3437  0.1100  2.0582
 2070TIP3   OH227700   3.893   5.079  13.859 -0.0278  0.2474 -0.1557
 2070TIP3    H127701   3.829   5.010  13.845 -0.8415  1.1447 -1.1072
 2070TIP3    H227702   3.950   5.075  13.782  0.6103 -0.0532  0.3175
 2071TIP3   OH227703   3.750   5.575  17.057 -0.0900  0.0574 -0.2109
 2071TIP3    H127704   3.725   5.649  17.112 -1.4769  0.4557 -1.2984
 2071TIP3    H227705   3.755   5.501  17.117 -4.4608 -0.1721  0.1962
 2072TIP3   OH227706   6.696   4.771  15.520 -0.2124 -0.1809  0.1220
 2072TIP3    H127707   6.666   4.772  15.429  0.6288 -1.9414 -0.2268
 2072TIP3    H227708   6.792   4.771  15.514 -0.1436 -0.9496  0.9713
 2073TIP3   OH227709   4.854   5.618  16.837  0.2451  0.8041 -0.1899
 2073TIP3    H127710   4.825   5.630  16.746  0.3129  0.9580 -0.1910
 2073TIP3    H227711   4.774   5.596  16.885  0.3773 -0.3624 -0.4799
 2074TIP3   OH227712   6.811   2.039   2.230  0.3054 -0.2312 -0.0662
 2074TIP3    H127713   6.883   1.985   2.263  1.1571  0.4506 -0.7582
 2074TIP3    H227714   6.746   2.038   2.301  0.8144 -1.1791  0.4072
 2075TIP3   OH227715   1.722   6.797  12.311 -0.0615 -0.6221 -0.0452
 2075TIP3    H127716   1.678   6.762  12.388  2.5886 -0.0154  1.9142
 2075TIP3    H227717   1.812   6.765  12.319  0.7186  0.9088 -1.9627
 2076TIP3   OH227718   4.052   5.469  12.504 -0.0824 -0.2336 -0.2958
 2076TIP3    H127719   4.078   5.541  12.562 -0.5525  0.0839 -0.4729
 2076TIP3    H227720   4.133   5.443  12.461  0.2724 -0.4767  0.5042
 2077TIP3   OH227721   6.077   1.584   2.917 -0.4388  0.4496  0.1521
 2077TIP3    H127722   6.156   1.639   2.914  1.1783 -1.7750 -0.2272
 2077TIP3    H227723   6.038   1.595   2.830  1.0928 -0.6302 -0.7199
 2078TIP3   OH227724   6.809   0.859   5.862  0.4218  0.5441  0.2762
 2078TIP3    H127725   6.715   0.871   5.875  0.2496  0.4956 -0.8378
 2078TIP3    H227726   6.816   0.790   5.796  1.2018  1.3405 -0.5084
 2079TIP3   OH227727   6.018   5.268  11.497  0.4162 -0.0589 -0.4687
 2079TIP3    H127728   6.054   5.280  11.585  0.1992 -1.2048 -0.2026
 2079TIP3    H227729   5.941   5.324  11.495 -0.1615 -0.7771  0.4514
 2080TIP3   OH227730   2.211   4.839  12.119 -0.9799  0.1497 -0.0685
 2080TIP3    H127731   2.268   4.763  12.130  0.5844  0.9254 -2.1131
 2080TIP3    H227732   2.127   4.803  12.091 -0.0979 -0.8357 -1.5680
 2081TIP3   OH227733   3.191   3.048  14.701 -0.4724  0.0246 -0.1225
 2081TIP3    H127734   3.119   2.996  14.736 -0.1893  1.1893  2.3727
 2081TIP3    H227735   3.171   3.138  14.725 -0.2299  0.9619 -3.1043
 2082TIP3   OH227736   5.932   1.456  11.911  0.0093  0.2649 -0.7730
 2082TIP3    H127737   5.890   1.523  11.965 -0.6919 -0.3759 -0.5086
 2082TIP3    H227738   5.998   1.503  11.861 -0.7950  1.2505 -0.9466
 2083TIP3   OH227739   2.738   4.135   5.538  0.2424 -0.0293 -0.0024
 2083TIP3    H127740   2.833   4.130   5.534  0.1385 -1.3323 -2.9093
 2083TIP3    H227741   2.719   4.228   5.544  1.6728  0.2115  1.3381
 2084TIP3   OH227742   2.870   4.972   0.343  0.2393  0.2862 -0.5388
 2084TIP3    H127743   2.894   5.012   0.259  2.7999 -1.9945 -1.0293
 2084TIP3    H227744   2.789   4.925   0.324 -0.4674  1.6356 -1.0551
 2085TIP3   OH227745   5.380   5.687  13.550  0.4138  0.1086 -0.1724
 2085TIP3    H127746   5.435   5.700  13.474  1.6032 -0.8529  0.4959
 2085TIP3    H227747   5.405   5.601  13.584 -1.2244 -0.2000  0.3871
 2086TIP3   OH227748   2.148   3.577  14.384  0.4393 -0.4421  0.0977
 2086TIP3    H127749   2.078   3.556  14.445  1.0081 -1.9283  0.2716
 2086TIP3    H227750   2.111   3.559  14.298  0.2244 -0.0814  0.1142
 2087TIP3   OH227751   1.579   6.405   4.207 -0.3359  0.6646 -0.4594
 2087TIP3    H127752   1.557   6.324   4.161  1.2868 -0.0882  0.0192
 2087TIP3    H227753   1.661   6.433   4.167 -0.1796  1.3265  0.3104
 2088TIP3   OH227754   2.997   4.089  14.589  0.0058  0.2175 -0.2302
 2088TIP3    H127755   3.042   4.148  14.649 -0.7971 -1.0094  1.6952
 2088TIP3    H227756   3.068   4.049  14.538  0.7762  0.8667  0.2969
 2089TIP3   OH227757   1.234   3.338   1.528 -0.3611 -0.0531  0.3274
 2089TIP3    H127758   1.240   3.270   1.461 -2.0307  0.2245 -0.1730
 2089TIP3    H227759   1.299   3.403   1.502 -0.0316 -0.6003 -0.2356
 2090TIP3   OH227760   3.849   0.803  12.541 -0.1672 -0.6155  0.2182
 2090TIP3    H127761   3.843   0.710  12.517  0.6819 -0.4545 -0.6402
 2090TIP3    H227762   3.942   0.819  12.553 -0.3567 -0.0001  0.9089
 2091TIP3   OH227763   5.748   6.451  11.382 -0.0348  0.1508  0.1154
 2091TIP3    H127764   5.660   6.486  11.394 -0.7235 -1.0218 -1.2161
 2091TIP3    H227765   5.806   6.519  11.417 -1.4038  1.5316 -0.1747
 2092TIP3   OH227766   1.911   0.609   5.391 -0.5861  0.2307  0.1022
 2092TIP3    H127767   1.965   0.688   5.387 -0.0312 -0.1841 -0.8276
 2092TIP3    H227768   1.882   0.595   5.300 -0.9691 -0.4422  0.3213
 2093TIP3   OH227769   0.405   0.352  15.474 -0.1356  0.0780  0.1594
 2093TIP3    H127770   0.422   0.314  15.560  0.2097  1.9472  0.9537
 2093TIP3    H227771   0.427   0.445  15.483  0.2541  0.2621 -2.0455
 2094TIP3   OH227772   1.442   1.941   3.158 -0.2264 -0.3700  0.2684
 2094TIP3    H127773   1.493   1.871   3.198 -0.7465 -0.8169  0.1692
 2094TIP3    H227774   1.409   1.903   3.077 -1.7441 -0.5360  0.9253
 2095TIP3   OH227775   2.323   1.505   5.552 -0.2196  0.2048 -0.9803
 2095TIP3    H127776   2.355   1.540   5.636  1.7103 -1.6695 -0.8549
 2095TIP3    H227777   2.315   1.582   5.496 -0.2971  1.3512  0.5404
 2096TIP3   OH227778   5.388   5.058  10.554  0.0320 -0.1658  0.6764
 2096TIP3    H127779   5.334   4.998  10.503 -0.2670 -1.9399  2.9129
 2096TIP3    H227780   5.467   5.070  10.501 -0.4014 -1.6065 -0.3750
 2097TIP3   OH227781   4.943   5.446  11.408  0.1335 -0.4773  0.7455
 2097TIP3    H127782   4.969   5.476  11.321  0.6412 -0.8979  0.7424
 2097TIP3    H227783   4.977   5.513  11.467 -0.8580  0.1896  0.5771
 2098TIP3   OH227784   0.303   4.652   4.110 -0.3547  0.2961  0.3623
 2098TIP3    H127785   0.221   4.636   4.064  0.0370  0.6091 -0.4514
 2098TIP3    H227786   0.330   4.739   4.082  1.1847 -0.5262 -0.8044
 2099TIP3   OH227787   5.756   4.454   5.246  0.0019  1.0430  0.0286
 2099TIP3    H127788   5.756   4.407   5.329 -1.4316  0.0723 -0.4855
 2099TIP3    H227789   5.764   4.546   5.270 -0.2937  0.7685  1.2252
 2100TIP3   OH227790   6.223   5.068  10.825  0.5854 -0.7759  0.4712
 2100TIP3    H127791   6.289   5.134  10.803  1.5296 -1.9710 -0.4054
 2100TIP3    H227792   6.264   5.015  10.893 -0.2088 -0.4419  1.2387
 2101TIP3   OH227793   5.568   6.644  13.760 -0.7487  0.2854 -0.6982
 2101TIP3    H127794   5.555   6.735  13.787  0.4827  0.6716 -1.3370
 2101TIP3    H227795   5.613   6.603  13.834  2.8827  1.4143 -2.0434
 2102TIP3   OH227796   4.651   4.692   1.416  0.1592  0.4881 -0.1395
 2102TIP3    H127797   4.740   4.718   1.442  0.3032 -0.9951  1.0184
 2102TIP3    H227798   4.652   4.597   1.422 -1.3194  0.4089 -0.8235
 2103TIP3   OH227799   2.565   2.390   4.796 -0.8609 -0.4259 -0.2070
 2103TIP3    H127800   2.618   2.335   4.853  0.7392  0.9890 -0.2473
 2103TIP3    H227801   2.571   2.350   4.710 -1.5750 -1.4069  0.1799
 2104TIP3   OH227802   0.611   3.598  13.913  0.3777 -0.2277 -0.2973
 2104TIP3    H127803   0.661   3.680  13.916 -0.1337  0.2244 -2.3807
 2104TIP3    H227804   0.531   3.617  13.962  0.6903  0.1845  0.0650
 2105TIP3   OH227805   1.914   3.112   2.295  0.4247 -0.4901 -0.1687
 2105TIP3    H127806   1.905   3.207   2.289  0.7737 -0.4208  0.3240
 2105TIP3    H227807   1.831   3.082   2.332  0.4129 -0.3498 -0.0822
 2106TIP3   OH227808   6.562   6.081  13.300  0.2721 -0.0636  0.4337
 2106TIP3    H127809   6.618   6.016  13.256 -1.5791 -1.4007 -0.1092
 2106TIP3    H227810   6.473   6.056  13.274 -0.5948  1.8951  1.3491
 2107TIP3   OH227811   5.123   4.672   5.220  0.1702  0.2632 -0.2774
 2107TIP3    H127812   5.035   4.636   5.208  1.3926 -2.7091 -1.3519
 2107TIP3    H227813   5.143   4.657   5.313 -0.0813  0.0257 -0.2617
 2108TIP3   OH227814   2.292   3.148  17.012  0.0751 -0.1736 -0.0270
 2108TIP3    H127815   2.210   3.109  16.982 -1.2652  0.3507  2.6907
 2108TIP3    H227816   2.303   3.118  17.102  1.9252  1.2241  0.2946
 2109TIP3   OH227817   6.063   3.018  11.250  0.0463  0.0442 -0.7024
 2109TIP3    H127818   6.150   3.041  11.280 -0.3219 -1.5479  1.8476
 2109TIP3    H227819   6.014   3.101  11.253  0.8848  0.5299  0.0336
 2110TIP3   OH227820   6.451   3.773   4.128 -0.4709 -0.1800  0.4455
 2110TIP3    H127821   6.368   3.755   4.084  0.5909 -0.2177 -1.6882
 2110TIP3    H227822   6.494   3.837   4.072  0.7472  0.2118  1.7730
 2111TIP3   OH227823   5.443   0.726  16.165 -0.2219  0.5416  0.3381
 2111TIP3    H127824   5.457   0.709  16.258  0.2887  0.3488  0.2311
 2111TIP3    H227825   5.351   0.707  16.150 -0.2958  0.5321  0.7937
 2112TIP3   OH227826   4.801   1.369   5.477 -0.2953  0.3593 -0.6156
 2112TIP3    H127827   4.797   1.464   5.468  0.3942  0.4317 -0.2195
 2112TIP3    H227828   4.891   1.346   5.454 -0.5423 -0.2345 -1.0224
 2113TIP3   OH227829   4.691   2.953   2.706  0.4723  0.8462  0.0126
 2113TIP3    H127830   4.597   2.934   2.700  0.7015  0.0150 -1.1077
 2113TIP3    H227831   4.703   2.980   2.797 -0.0748 -3.5729  1.6695
 2114TIP3   OH227832   4.577   2.178  15.654 -0.2463  0.1497 -0.6059
 2114TIP3    H127833   4.490   2.140  15.663  0.7293 -2.1961 -0.3494
 2114TIP3    H227834   4.565   2.254  15.597 -2.6500  0.7008  0.5305
 2115TIP3   OH227835   5.224   3.262   1.981  0.3800  0.1829  0.4040
 2115TIP3    H127836   5.179   3.322   2.041  0.4864  1.5036 -0.7707
 2115TIP3    H227837   5.261   3.194   2.038  0.2179  1.2047  1.7935
 2116TIP3   OH227838   1.050   5.605   2.878 -0.5092  0.1890  0.3393
 2116TIP3    H127839   0.984   5.547   2.914 -2.0152  0.6269 -1.5440
 2116TIP3    H227840   1.094   5.553   2.811 -1.3988  0.9335 -0.8727
 2117TIP3   OH227841   3.027   5.949   1.174  0.0343 -0.8097 -0.6517
 2117TIP3    H127842   2.953   5.915   1.124 -0.2111 -1.2429 -0.0055
 2117TIP3    H227843   3.065   5.871   1.216  1.3608 -0.7233 -1.6114
 2118TIP3   OH227844   5.017   4.515   3.149 -0.0192 -0.5769  0.7409
 2118TIP3    H127845   5.106   4.551   3.149  0.7036 -2.2520  1.4307
 2118TIP3    H227846   5.008   4.473   3.063 -0.2361 -0.2106  0.5828
 2119TIP3   OH227847   6.676   1.583   6.229  0.0464 -0.2561  0.3264
 2119TIP3    H127848   6.764   1.569   6.262 -0.0494 -0.3166  0.5560
 2119TIP3    H227849   6.618   1.562   6.303 -0.3135 -3.1414 -0.6123
 2120TIP3   OH227850   6.115   4.223  16.890  0.4327  0.7258  0.0763
 2120TIP3    H127851   6.179   4.181  16.833  1.4171  0.6954  1.1608
 2120TIP3    H227852   6.085   4.153  16.948  1.5079  1.2912  1.3847
 2121TIP3   OH227853   4.898   2.209   4.406 -0.1669 -0.4773 -0.3124
 2121TIP3    H127854   4.838   2.284   4.412  0.0636 -0.1694 -1.5492
 2121TIP3    H227855   4.982   2.248   4.383 -0.3254 -1.1922 -2.2699
 2122TIP3   OH227856   0.895   3.402  14.450 -0.7385 -0.0091  0.4004
 2122TIP3    H127857   0.875   3.368  14.362  1.7123  1.4633 -0.8339
 2122TIP3    H227858   0.964   3.344  14.483 -1.0915 -0.0769  1.0235
 2123TIP3   OH227859   6.708   1.138   0.585 -0.1046  0.1513 -0.0534
 2123TIP3    H127860   6.747   1.066   0.635  0.9856  2.1461  2.2377
 2123TIP3    H227861   6.776   1.162   0.522 -0.4377 -0.7418 -0.7669
 2124TIP3   OH227862   2.653   0.930  15.988  0.1889 -0.1519  0.2733
 2124TIP3    H127863   2.582   0.874  16.020  1.4839 -1.9003  0.2059
 2124TIP3    H227864   2.653   1.005  16.047 -2.1315  0.2599 -0.1286
 2125TIP3   OH227865   1.120   4.947   3.018  0.5086 -0.2545 -0.1413
 2125TIP3    H127866   1.050   4.988   2.968  0.4184 -0.4851 -0.2064
 2125TIP3    H227867   1.118   4.855   2.990  1.9672  0.0720 -1.4576
 2126TIP3   OH227868   1.831   1.411  16.708  0.1316 -0.0379  0.0974
 2126TIP3    H127869   1.889   1.419  16.632  1.1010 -0.4350  0.7625
 2126TIP3    H227870   1.748   1.381  16.672  0.2266  0.8531 -0.9271
 2127TIP3   OH227871   2.840   1.339  17.184 -0.2398  0.1389 -0.8191
 2127TIP3    H127872   2.782   1.266  17.205  0.3819  0.2832  1.7554
 2127TIP3    H227873   2.928   1.305  17.196  0.0994  0.9078 -1.0439
 2128TIP3   OH227874   5.756   3.170  14.573 -0.1293 -0.0899 -0.0521
 2128TIP3    H127875   5.753   3.084  14.533 -0.6362 -0.5436  0.9309
 2128TIP3    H227876   5.664   3.193  14.588  0.0083  0.5451 -0.1576
 2129TIP3   OH227877   1.503   0.931   2.033  0.8014 -0.3773  0.1357
 2129TIP3    H127878   1.477   0.929   1.941  0.0093 -3.4732  0.2934
 2129TIP3    H227879   1.594   0.901   2.033  0.2781 -2.1173  0.3846
 2130TIP3   OH227880   6.634   5.947   5.330  0.3020  0.1887  0.6607
 2130TIP3    H127881   6.680   5.866   5.309  0.7418  0.4324  0.6770
 2130TIP3    H227882   6.625   5.946   5.425  1.0696  0.5668  0.7398
 2131TIP3   OH227883   0.248   0.810  14.890  1.3383 -0.1517  0.3858
 2131TIP3    H127884   0.279   0.871  14.957 -0.0665  2.0265 -0.8227
 2131TIP3    H227885   0.300   0.832  14.812  0.6517 -0.3328 -0.1298
 2132TIP3   OH227886   4.112   2.082   1.790 -0.5476  0.3293 -0.2841
 2132TIP3    H127887   4.170   2.082   1.865  0.4227 -0.4188 -1.0075
 2132TIP3    H227888   4.146   2.151   1.733  1.0943 -1.5851 -1.7524
 2133TIP3   OH227889   6.615   3.664  14.927  0.0800 -0.4112 -0.6915
 2133TIP3    H127890   6.571   3.715  14.859  1.0488  1.4292 -0.0165
 2133TIP3    H227891   6.555   3.666  15.001  0.3261  0.2153 -0.5005
 2134TIP3   OH227892   1.314   5.566   3.098  0.5600 -0.1338 -0.1792
 2134TIP3    H127893   1.278   5.644   3.057  0.2721  0.8488  1.8270
 2134TIP3    H227894   1.237   5.512   3.118  0.3069  0.9667  2.1067
 2135TIP3   OH227895   3.954   1.272  12.145 -0.0896 -0.0988  0.4441
 2135TIP3    H127896   4.018   1.221  12.095 -0.3131 -0.0261  0.0793
 2135TIP3    H227897   3.869   1.244  12.111 -0.2515 -0.1126  0.8480
 2136TIP3   OH227898   6.445   5.207  11.346 -0.2326 -0.0950  0.1185
 2136TIP3    H127899   6.487   5.257  11.416  0.1692 -1.1598  0.6657
 2136TIP3    H227900   6.390   5.143  11.391  0.4479 -1.1609 -0.4997
 2137TIP3   OH227901   1.940   4.494  13.655  0.2638  0.2243  0.3362
 2137TIP3    H127902   1.958   4.577  13.698 -4.2447  1.2984  0.6276
 2137TIP3    H227903   1.968   4.507  13.564 -1.1004  2.4864  0.1604
 2138TIP3   OH227904   0.674   5.702  15.448  0.3137 -0.1868  0.1687
 2138TIP3    H127905   0.690   5.794  15.468  0.2046 -0.4853  1.7590
 2138TIP3    H227906   0.659   5.661  15.533 -0.0311 -1.6079 -0.5417
 2139TIP3   OH227907   2.410   0.124  11.633 -0.1932 -0.0012  0.3688
 2139TIP3    H127908   2.415   0.108  11.539  1.7514  0.1700  0.3890
 2139TIP3    H227909   2.479   0.189  11.650  1.1524 -1.7577  2.2046
 2140TIP3   OH227910   6.428   4.381   6.024  0.3835 -0.5714 -0.2398
 2140TIP3    H127911   6.443   4.325   6.100  0.8240  0.5593  0.5426
 2140TIP3    H227912   6.404   4.466   6.062  2.0204  0.4285 -1.2904
 2141TIP3   OH227913   2.222   6.635   5.640 -0.4118 -0.1347  0.4836
 2141TIP3    H127914   2.240   6.598   5.553 -0.4906 -0.2180  0.5033
 2141TIP3    H227915   2.305   6.625   5.687 -0.6707 -1.0782  0.7761
 2142TIP3   OH227916   1.258   4.137  16.712  0.4611  0.0808 -0.2501
 2142TIP3    H127917   1.202   4.127  16.635 -0.7822 -0.8816  0.7267
 2142TIP3    H227918   1.224   4.214  16.757  1.3381  0.7861 -0.7492
 2143TIP3   OH227919   3.992   2.043  14.608 -0.1581  0.3117  0.0107
 2143TIP3    H127920   3.906   2.076  14.634 -0.0752 -0.4385  1.3038
 2143TIP3    H227921   4.052   2.115  14.628 -0.3968  0.6402 -0.4121
 2144TIP3   OH227922   0.426   2.611   4.958  0.5248  0.3334  0.2184
 2144TIP3    H127923   0.346   2.566   4.985  0.2562  0.1499 -0.8165
 2144TIP3    H227924   0.435   2.590   4.865  2.3221 -0.4646  0.5371
 2145TIP3   OH227925   0.930   4.850   1.893 -0.3015 -0.0198  0.1863
 2145TIP3    H127926   0.904   4.791   1.822  2.1503  0.8048 -1.5482
 2145TIP3    H227927   0.945   4.793   1.968  0.9167 -1.4910 -1.1180
 2146TIP3   OH227928   5.201   2.836  14.548 -0.6824  0.0210  0.7409
 2146TIP3    H127929   5.139   2.903  14.520 -0.7098 -0.5167 -0.5603
 2146TIP3    H227930   5.287   2.879  14.542 -0.5307 -0.4593 -1.6361
 2147TIP3   OH227931   0.978   2.255  13.240  0.2706  0.1399 -0.3340
 2147TIP3    H127932   0.938   2.276  13.324 -0.4888 -1.3465 -0.2948
 2147TIP3    H227933   1.010   2.165  13.250  1.5518  0.4743 -1.1405
 2148TIP3   OH227934   3.794   0.544  11.537  0.0633 -0.0316  0.3098
 2148TIP3    H127935   3.745   0.561  11.618 -0.1214  1.1095 -0.0200
 2148TIP3    H227936   3.857   0.476  11.561  0.1068  0.3863  1.4567
 2149TIP3   OH227937   0.473   0.691   1.808  0.0075  0.3019 -0.1846
 2149TIP3    H127938   0.473   0.718   1.717 -0.5944  0.4739 -0.1356
 2149TIP3    H227939   0.565   0.668   1.826  0.8784  3.5911  0.1664
 2150TIP3   OH227940   0.896   5.801   6.165  0.2549 -0.3389 -0.3243
 2150TIP3    H127941   0.975   5.750   6.149  0.9212  0.4784  0.3207
 2150TIP3    H227942   0.923   5.892   6.155 -0.9212 -0.0780 -1.4782
 2151TIP3   OH227943   5.208   2.265  12.300  0.3372  0.2963  0.0532
 2151TIP3    H127944   5.171   2.318  12.229  1.9591  1.0393 -0.2830
 2151TIP3    H227945   5.303   2.275  12.290  0.6120 -0.2434  1.8340
 2152TIP3   OH227946   6.236   3.893  15.488  0.1939  0.1596  0.4957
 2152TIP3    H127947   6.315   3.843  15.505  0.2276  1.2009  4.5547
 2152TIP3    H227948   6.258   3.983  15.513 -1.9421  0.6776  0.7847
 2153TIP3   OH227949   2.040   4.729  14.142  0.0923  0.0515  0.0748
 2153TIP3    H127950   2.131   4.758  14.148  0.9521 -1.7476 -2.4275
 2153TIP3    H227951   2.044   4.635  14.159 -1.6045  0.1975  1.5472
 2154TIP3   OH227952   4.147   0.362  12.138 -0.0059  0.1202  0.5842
 2154TIP3    H127953   4.079   0.429  12.148 -2.0330 -1.4452 -1.5758
 2154TIP3    H227954   4.149   0.343  12.044  1.7182 -1.6394  0.8931
 2155TIP3   OH227955   4.214   4.162  12.077 -0.5312  0.4370 -0.0157
 2155TIP3    H127956   4.196   4.212  12.156 -1.2142  0.8366 -0.4155
 2155TIP3    H227957   4.136   4.108  12.065  0.9322 -2.2235  1.4834
 2156TIP3   OH227958   5.229   3.663  14.154 -0.3791 -0.0009  0.4773
 2156TIP3    H127959   5.240   3.729  14.086 -0.6733 -0.1719  0.2597
 2156TIP3    H227960   5.309   3.668  14.207  0.0047 -0.1069 -0.0904
 2157TIP3   OH227961   0.834   4.231  14.720  0.3589  0.0214  0.3944
 2157TIP3    H127962   0.877   4.278  14.791 -0.9784  1.0232  0.5621
 2157TIP3    H227963   0.754   4.195  14.759  1.1596 -2.1579  0.1874
 2158TIP3   OH227964   3.237   1.562  14.621 -0.5195  0.0269 -0.3621
 2158TIP3    H127965   3.237   1.614  14.701 -1.3998 -0.0951 -0.2718
 2158TIP3    H227966   3.145   1.539  14.607 -0.3546 -0.1307 -1.2903
 2159TIP3   OH227967   4.424   2.331  13.057 -0.3351  0.2204  0.6548
 2159TIP3    H127968   4.344   2.335  13.005 -0.5947 -1.2811  0.8885
 2159TIP3    H227969   4.402   2.275  13.131  0.8442  0.0499  0.9034
 2160TIP3   OH227970   4.666   0.858   2.770 -0.3935  0.0011  0.1806
 2160TIP3    H127971   4.580   0.841   2.808  0.2764  0.2832  1.9127
 2160TIP3    H227972   4.665   0.812   2.686 -1.9563 -0.6237  0.5146
 2161TIP3   OH227973   4.909   1.411  15.857  0.2719 -0.4091 -0.1516
 2161TIP3    H127974   4.863   1.328  15.850 -0.7288 -0.0900  1.9959
 2161TIP3    H227975   4.851   1.467  15.908  0.7306  1.7879 -1.8962
 2162TIP3   OH227976   6.002   4.072  13.638 -0.1655  0.3161 -0.1092
 2162TIP3    H127977   6.047   4.139  13.690  0.1427  1.4133 -1.7266
 2162TIP3    H227978   6.033   3.989  13.675 -1.8506  0.9428  3.0661
 2163TIP3   OH227979   1.967   5.037  15.168 -0.1045 -0.2662 -0.0523
 2163TIP3    H127980   2.045   5.068  15.214 -1.3077 -0.6790  2.4654
 2163TIP3    H227981   1.986   4.945  15.148 -0.9883 -1.3433  3.4006
 2164TIP3   OH227982   0.119   0.265   5.086  0.5886 -0.2775 -0.0154
 2164TIP3    H127983   0.072   0.181   5.096 -0.9818  0.5485 -0.1244
 2164TIP3    H227984   0.170   0.273   5.167 -0.8747 -0.3823  0.9574
 2165TIP3   OH227985   4.434   1.842  16.335  0.1591  0.1065  0.6323
 2165TIP3    H127986   4.413   1.830  16.428 -0.6881 -1.4878  0.2600
 2165TIP3    H227987   4.358   1.886  16.298  0.5131  0.7769  0.6789
 2166TIP3   OH227988   5.225   0.731   1.667 -0.0545 -0.4452  0.3001
 2166TIP3    H127989   5.245   0.638   1.680  0.8502 -0.4241 -0.7723
 2166TIP3    H227990   5.305   0.777   1.696 -0.6949  0.0589  1.3478
 2167TIP3   OH227991   0.670   3.432   5.134 -0.0406 -0.2003 -0.2008
 2167TIP3    H127992   0.585   3.469   5.156 -1.0374 -2.8501  0.9475
 2167TIP3    H227993   0.715   3.424   5.219  0.4926 -0.6904 -0.5186
 2168TIP3   OH227994   3.045   5.648   3.931  0.1831  0.2180  0.1944
 2168TIP3    H127995   3.129   5.678   3.897 -0.5818  0.9254 -1.1658
 2168TIP3    H227996   3.007   5.598   3.859 -1.3334  1.4613  0.0823
 2169TIP3   OH227997   2.007   2.494   2.738  0.2282  0.4383  0.5147
 2169TIP3    H127998   2.057   2.488   2.820  1.0072  0.1865  0.0343
 2169TIP3    H227999   2.074   2.493   2.670 -0.5112 -2.4829 -0.2967
 2170TIP3   OH228000   4.578   3.516   2.147 -0.1319  0.3429 -0.1799
 2170TIP3    H128001   4.669   3.511   2.175 -0.5430 -0.7960  1.0060
 2170TIP3    H228002   4.575   3.467   2.065  0.5488  1.4589 -0.8998
 2171TIP3   OH228003   1.223   5.363  16.585  0.0228 -0.5559  0.0882
 2171TIP3    H128004   1.246   5.272  16.603  1.2330  0.1836  2.7583
 2171TIP3    H228005   1.305   5.411  16.599 -1.2667  1.2656  1.7824
 2172TIP3   OH228006   0.418   1.069  14.447 -0.0149 -0.0023  0.6412
 2172TIP3    H128007   0.493   1.034  14.400 -0.7460 -2.3936  1.0756
 2172TIP3    H228008   0.342   1.042  14.395 -0.6377  1.6174  0.6477
 2173TIP3   OH228009   1.286   4.259  15.826 -0.2772  0.0752  0.2700
 2173TIP3    H128010   1.284   4.211  15.909 -0.9000  0.7457  0.6572
 2173TIP3    H228011   1.197   4.294  15.817  0.3099  1.6548  0.2998
 2174TIP3   OH228012   1.815   1.252  15.493 -0.9518 -0.6208  0.4584
 2174TIP3    H128013   1.801   1.323  15.431  0.0306 -0.6838  0.1497
 2174TIP3    H228014   1.732   1.204  15.493 -1.0792 -0.4199 -0.5484
 2175TIP3   OH228015   6.746   3.304   3.891 -0.4047  0.0680  0.6855
 2175TIP3    H128016   6.826   3.352   3.869 -0.4170 -0.9385 -1.8332
 2175TIP3    H228017   6.697   3.364   3.947  1.1613  1.5287  0.5827
 2176TIP3   OH228018   0.091   4.869  11.887  0.4638 -0.5498 -0.0085
 2176TIP3    H128019   0.107   4.851  11.794  0.3073  3.2480 -0.9073
 2176TIP3    H228020   0.101   4.963  11.896 -3.0603 -0.2241  3.1259
 2177TIP3   OH228021   2.071   4.026   3.880  0.4933  0.1630 -0.6214
 2177TIP3    H128022   2.088   4.057   3.969  0.6947  0.0096 -0.6048
 2177TIP3    H228023   2.035   3.938   3.892  1.0515 -0.0840 -0.7087
 2178TIP3   OH228024   3.162   4.194   5.840 -0.0006  0.6960 -0.4849
 2178TIP3    H128025   3.190   4.103   5.847  1.8141  1.1636 -1.2819
 2178TIP3    H228026   3.096   4.204   5.910  0.1792 -1.0521 -0.0264
 2179TIP3   OH228027   3.337   6.510   2.362 -0.1405  0.0865  0.4188
 2179TIP3    H128028   3.344   6.519   2.457 -1.7997  0.7800  0.5124
 2179TIP3    H228029   3.417   6.465   2.336  0.9841  1.0970  1.9714
 2180TIP3   OH228030   5.120   5.462   2.427 -0.1287 -0.4400  0.1329
 2180TIP3    H128031   5.105   5.469   2.521 -0.1641  0.7115  0.0565
 2180TIP3    H228032   5.113   5.552   2.394 -0.7248 -0.8992 -1.0634
 2181TIP3   OH228033   4.612   3.493   1.084  0.0431 -0.5105  0.6370
 2181TIP3    H128034   4.537   3.553   1.091  0.7214  0.7275 -1.6501
 2181TIP3    H228035   4.573   3.406   1.078 -1.2314  0.1011 -0.4232
 2182TIP3   OH228036   2.665   4.944   2.282 -0.6076  0.3991  0.3036
 2182TIP3    H128037   2.635   4.894   2.358 -2.1442  0.9959  0.1152
 2182TIP3    H228038   2.707   5.021   2.321  1.9979 -1.0184  0.6048
 2183TIP3   OH228039   2.362   4.947   1.606  0.0861 -0.6570 -0.1027
 2183TIP3    H128040   2.439   4.981   1.651  0.5704 -0.8449 -0.7832
 2183TIP3    H228041   2.296   4.939   1.675  0.6456 -0.4232  0.4706
 2184TIP3   OH228042   4.051   6.284  12.760 -0.0888 -0.6097 -0.0607
 2184TIP3    H128043   4.080   6.218  12.698 -0.3969 -0.2043 -0.6500
 2184TIP3    H228044   4.126   6.300  12.816  0.9696  0.6509 -1.7426
 2185TIP3   OH228045   5.769   0.087   3.292  0.2457 -0.3998 -0.1403
 2185TIP3    H128046   5.855   0.080   3.250  0.1081 -1.1835 -0.3103
 2185TIP3    H228047   5.709   0.044   3.231 -0.1745 -0.3727  0.2473
 2186TIP3   OH228048   1.911   5.943  11.404  0.4801  0.2394  0.0478
 2186TIP3    H128049   1.938   5.941  11.312  0.2911  0.8234 -0.0299
 2186TIP3    H228050   1.839   5.879  11.410 -2.0280  2.7119 -1.0874
 2187TIP3   OH228051   3.274   3.660  14.800  0.3689 -0.3403  0.1597
 2187TIP3    H128052   3.293   3.753  14.797 -3.5866  0.6458  1.1262
 2187TIP3    H228053   3.229   3.642  14.717  0.5942 -1.3207  0.2304
 2188TIP3   OH228054   2.806   0.839   0.727  0.0498 -0.1706  0.2596
 2188TIP3    H128055   2.760   0.913   0.767  0.7003 -0.3338  1.3510
 2188TIP3    H228056   2.764   0.761   0.765  0.7456 -0.3281  0.7211
 2189TIP3   OH228057   3.216   2.646  16.762  0.3355  0.3110  0.5770
 2189TIP3    H128058   3.274   2.668  16.835 -0.6378  0.9178  1.1936
 2189TIP3    H228059   3.247   2.701  16.690  0.0364  1.2603  1.1422
 2190TIP3   OH228060   2.026   2.052  15.893 -0.2454  0.0772  0.0866
 2190TIP3    H128061   1.941   2.024  15.860 -0.3526  1.3665 -0.8037
 2190TIP3    H228062   2.063   2.104  15.822  0.0250  1.9672  1.5230
 2191TIP3   OH228063   2.144   0.173  15.451  0.5128  0.3900 -0.3394
 2191TIP3    H128064   2.116   0.265  15.458  0.7495  0.4446 -0.0484
 2191TIP3    H228065   2.219   0.176  15.391  0.3787  0.3563 -0.5069
 2192TIP3   OH228066   4.242   2.613   5.030  0.1810 -0.6704  1.0969
 2192TIP3    H128067   4.161   2.588   4.985 -0.2339  0.8561  0.9082
 2192TIP3    H228068   4.251   2.550   5.101 -2.5416  0.5124  2.6554
 2193TIP3   OH228069   0.509   2.646   0.828 -0.6575 -0.4598 -0.2511
 2193TIP3    H128070   0.538   2.651   0.737 -0.2483  0.9574 -0.0629
 2193TIP3    H228071   0.576   2.692   0.878 -1.6252  0.0885  0.5890
 2194TIP3   OH228072   4.704   1.181  14.899  0.3031  0.1796  0.7685
 2194TIP3    H128073   4.666   1.258  14.856  0.2415  0.0179  0.5309
 2194TIP3    H228074   4.646   1.163  14.973  1.7888  2.0019  2.4908
 2195TIP3   OH228075   6.460   0.123  13.201  0.4132 -0.4262  0.0057
 2195TIP3    H128076   6.399   0.057  13.167 -1.0543 -0.5798  2.7143
 2195TIP3    H228077   6.490   0.089  13.285  1.2938  1.4096  0.5036
 2196TIP3   OH228078   4.118   4.035  15.424  0.0083  0.1696 -0.5617
 2196TIP3    H128079   4.144   4.009  15.335  1.5083 -0.6479  0.0915
 2196TIP3    H228080   4.168   4.115  15.441  0.7354 -0.4046  0.0277
 2197TIP3   OH228081   3.890   2.884   4.145 -0.2874  0.2073 -0.1367
 2197TIP3    H128082   3.816   2.888   4.206 -1.0254 -2.0590 -0.7792
 2197TIP3    H228083   3.884   2.966   4.095 -1.1577  0.9559  1.1202
 2198TIP3   OH228084   0.923   4.311  14.988  0.1123  0.1754 -0.1133
 2198TIP3    H128085   0.885   4.234  15.030  0.5635  0.1049  0.1654
 2198TIP3    H228086   0.924   4.378  15.057  0.4033  0.2077 -0.1508
 2199TIP3   OH228087   0.557   5.328  16.320  0.7759  0.3263 -0.7796
 2199TIP3    H128088   0.601   5.284  16.246 -0.9325  0.1330 -1.7262
 2199TIP3    H228089   0.472   5.286  16.326  0.9780  0.1134  1.5671
 2200TIP3   OH228090   5.490   3.494  14.664 -0.0206  0.1621 -0.1886
 2200TIP3    H128091   5.469   3.414  14.617  0.4166  0.1178 -0.3091
 2200TIP3    H228092   5.513   3.465  14.753  0.4011  0.1251 -0.3067
 2201TIP3   OH228093   2.951   4.658  11.592  0.3624 -0.1866  0.3670
 2201TIP3    H128094   2.949   4.754  11.593 -0.7785 -0.1979  1.6139
 2201TIP3    H228095   2.875   4.632  11.643 -0.1659 -1.7863 -1.1362
 2202TIP3   OH228096   5.912   1.367  14.955  0.1343 -0.3624  0.1408
 2202TIP3    H128097   5.972   1.360  15.029 -0.1672 -1.3088  0.3153
 2202TIP3    H228098   5.936   1.449  14.911  2.0475 -1.0784 -0.2214
 2203TIP3   OH228099   1.292   3.813   3.838 -0.2108 -0.0504 -0.3312
 2203TIP3    H128100   1.217   3.830   3.895 -0.7746 -0.0002 -1.0635
 2203TIP3    H228101   1.277   3.725   3.805 -0.3735  0.2592 -1.1024
 2204TIP3   OH228102   6.478   4.248  13.034  0.5562 -0.3180  0.4917
 2204TIP3    H128103   6.492   4.282  13.123 -0.4156 -2.4452  1.5399
 2204TIP3    H228104   6.511   4.317  12.976  1.2551  1.1217  2.4933
 2205TIP3   OH228105   4.183   5.190  13.031  0.6537 -0.3077  0.8067
 2205TIP3    H128106   4.162   5.281  13.051 -1.5446 -0.2058 -1.4751
 2205TIP3    H228107   4.219   5.155  13.113  0.5870  2.2992  2.0405
 2206TIP3   OH228108   6.616   3.044  12.229  0.0681  0.8246 -0.9380
 2206TIP3    H128109   6.619   3.129  12.273 -2.5696  1.8815 -2.5689
 2206TIP3    H228110   6.621   2.980  12.300 -2.6751  2.4246  0.8639
 2207TIP3   OH228111   2.647   1.156  14.964  0.0690  0.4478 -0.2995
 2207TIP3    H128112   2.606   1.077  14.998 -1.1682  0.7568 -1.0044
 2207TIP3    H228113   2.604   1.228  15.011 -2.1324  0.9235 -2.8106
 2208TIP3   OH228114   3.592   5.941  11.163 -0.3897  0.1441  0.2937
 2208TIP3    H128115   3.675   5.894  11.167  0.1398  1.0228 -0.0232
 2208TIP3    H228116   3.532   5.881  11.119  0.3352 -0.1366 -0.3304
 2209TIP3   OH228117   1.506   5.044   2.222  0.3485  0.1481 -0.2738
 2209TIP3    H128118   1.442   5.044   2.151 -0.6374 -0.4045  0.5928
 2209TIP3    H228119   1.587   5.076   2.181 -0.4117  0.6455 -1.4343
 2210TIP3   OH228120   2.902   4.838   4.517 -0.1771  0.3292 -0.0394
 2210TIP3    H128121   2.923   4.873   4.431  1.9125 -0.8021 -0.0729
 2210TIP3    H228122   2.982   4.850   4.568 -1.0056 -0.0210  1.4158
 2211TIP3   OH228123   2.457   5.888   2.772 -0.0341  0.0022  0.0180
 2211TIP3    H128124   2.482   5.873   2.863  1.0286  0.3653 -0.2007
 2211TIP3    H228125   2.470   5.982   2.758 -0.0714 -0.0701 -0.5457
 2212TIP3   OH228126   0.246   2.515   0.573  0.2871  0.2427  0.7526
 2212TIP3    H128127   0.241   2.543   0.664 -0.2489 -0.6490  1.0198
 2212TIP3    H228128   0.185   2.572   0.526 -0.5195 -0.2300  1.2156
 2213TIP3   OH228129   6.328   3.240   5.708 -0.8031  0.2831 -0.1359
 2213TIP3    H128130   6.334   3.323   5.660 -3.8706  0.5280 -0.3021
 2213TIP3    H228131   6.401   3.188   5.675  0.5841  2.5202 -0.7970
 2214TIP3   OH228132   4.873   5.151   0.660 -0.0839  0.0721  0.0284
 2214TIP3    H128133   4.946   5.095   0.632  1.7657  1.2802  2.0762
 2214TIP3    H228134   4.898   5.239   0.634  0.1555  0.7642  2.3644
 2215TIP3   OH228135   6.535   2.697  13.590 -0.3611  0.5458  0.2395
 2215TIP3    H128136   6.499   2.615  13.554 -2.2241  2.3423 -2.3432
 2215TIP3    H228137   6.627   2.676  13.608  0.2407 -1.2996 -3.6663
 2216TIP3   OH228138   2.997   4.816  13.496  0.1989  0.3057 -0.0337
 2216TIP3    H128139   2.958   4.872  13.563 -0.2136 -0.4539  0.3742
 2216TIP3    H228140   3.056   4.874  13.447 -0.0952  1.0479  0.4827
 2217TIP3   OH228141   0.405   0.877  16.160  0.4700 -0.5116  0.2562
 2217TIP3    H128142   0.325   0.871  16.107  0.6553  1.2918 -0.3010
 2217TIP3    H228143   0.376   0.920  16.241  1.2163  2.6518 -0.9862
 2218TIP3   OH228144   6.572   5.855   4.771 -0.6345  0.1020  0.1040
 2218TIP3    H128145   6.485   5.835   4.805 -1.3487  1.0369 -1.1050
 2218TIP3    H228146   6.561   5.935   4.721  0.8871  0.1187 -0.2602
 2219TIP3   OH228147   1.217   2.616  14.585  0.2575  0.1184  0.0859
 2219TIP3    H128148   1.213   2.711  14.575  1.0881  0.1582  0.0308
 2219TIP3    H228149   1.150   2.595  14.649 -1.6719  0.4549 -1.7240
 2220TIP3   OH228150   0.933   4.835  16.546  0.4000 -0.7261 -0.0389
 2220TIP3    H128151   0.950   4.911  16.602 -1.5487 -0.6757  0.5606
 2220TIP3    H228152   0.856   4.860  16.496  0.2224 -2.0007 -0.4216
 2221TIP3   OH228153   0.901   2.635   3.087 -0.1305  0.2864  0.4251
 2221TIP3    H128154   0.911   2.580   3.010 -1.6953  0.4995  0.0512
 2221TIP3    H228155   0.960   2.709   3.071  1.5333 -0.9133  0.6603
 2222TIP3   OH228156   1.423   3.677  17.209  0.3807 -0.0420  0.4424
 2222TIP3    H128157   1.364   3.682  17.284 -0.5437  0.2638 -0.2817
 2222TIP3    H228158   1.379   3.727  17.140  1.7585  0.6631  0.0446
 2223TIP3   OH228159   4.680   5.808   5.596  0.0079  0.4249  0.5018
 2223TIP3    H128160   4.762   5.812   5.546  0.7662 -0.0218  1.6619
 2223TIP3    H228161   4.703   5.847   5.681 -0.7794 -0.3833  1.0999
 2224TIP3   OH228162   6.005   0.395   2.815 -0.4473  0.0633  0.7847
 2224TIP3    H128163   6.042   0.368   2.731  0.7556 -1.1482  1.6687
 2224TIP3    H228164   5.914   0.364   2.812 -0.2253 -0.5573  0.1963
 2225TIP3   OH228165   4.501   5.959  12.844 -0.0283  0.0193 -0.1625
 2225TIP3    H128166   4.516   5.899  12.917 -0.2353 -0.1350 -0.2426
 2225TIP3    H228167   4.406   5.959  12.833  0.0470 -0.4825 -0.8696
 2226TIP3   OH228168   3.150   6.401   4.083 -0.1217  0.1422  0.0853
 2226TIP3    H128169   3.231   6.446   4.061 -1.1649  2.0734 -0.0053
 2226TIP3    H228170   3.092   6.470   4.116 -0.8948 -1.5464  2.5881
 2227TIP3   OH228171   0.814   2.852   4.847  0.5521  0.3039 -1.0479
 2227TIP3    H128172   0.900   2.868   4.886 -0.8978  2.4949  1.6972
 2227TIP3    H228173   0.784   2.939   4.820 -1.0827 -0.2846 -1.2277
 2228TIP3   OH228174   5.470   5.068  16.214 -0.4228 -0.3123  0.9816
 2228TIP3    H128175   5.535   5.003  16.188 -0.6983 -0.8488  1.5793
 2228TIP3    H228176   5.512   5.152  16.198 -0.2750 -0.6121 -0.3673
 2229TIP3   OH228177   3.200   1.330  13.835  0.2443 -0.1721 -0.0117
 2229TIP3    H128178   3.145   1.406  13.857  0.1524 -0.3603  0.4278
 2229TIP3    H228179   3.245   1.309  13.917 -1.8686 -2.3412  0.7085
 2230TIP3   OH228180   5.107   3.754   0.060 -0.4262 -0.5071 -0.5977
 2230TIP3    H128181   5.098   3.765   0.155  0.5559 -0.1660 -0.5311
 2230TIP3    H228182   5.190   3.706   0.050 -1.6946 -2.7132 -1.1841
 2231TIP3   OH228183   5.175   2.719   2.780 -0.3361  0.1859 -0.3205
 2231TIP3    H128184   5.111   2.764   2.835  0.0952  1.0872 -0.5418
 2231TIP3    H228185   5.181   2.631   2.818 -0.7306  0.4973  0.4990
 2232TIP3   OH228186   6.077   5.757  14.600  0.5016  0.1043  0.4700
 2232TIP3    H128187   6.106   5.817  14.531  0.8623 -0.6594 -0.0564
 2232TIP3    H228188   6.006   5.804  14.644 -0.4550  0.1841 -1.0956
 2233TIP3   OH228189   4.709   4.928   5.172  0.1432  0.3384  0.5102
 2233TIP3    H128190   4.802   4.915   5.192 -0.3097 -0.8286  2.0548
 2233TIP3    H228191   4.688   4.859   5.109  0.4218  0.9394 -0.2620
 2234TIP3   OH228192   0.914   6.190  12.204 -0.0716 -0.0960  0.1766
 2234TIP3    H128193   0.974   6.263  12.223 -0.0969 -0.2018  0.6807
 2234TIP3    H228194   0.865   6.219  12.127 -2.1935  1.7412  2.0788
 2235TIP3   OH228195   5.266   4.821  13.166  0.5271  0.1464 -0.4088
 2235TIP3    H128196   5.303   4.766  13.098  1.0177 -1.0237  0.7712
 2235TIP3    H228197   5.336   4.832  13.230 -0.1406  0.6286  0.2662
 2236TIP3   OH228198   3.397   1.771   3.380 -0.1365 -0.5984  0.3979
 2236TIP3    H128199   3.369   1.775   3.471  0.2858  1.8800  0.4989
 2236TIP3    H228200   3.344   1.837   3.335 -0.5271 -1.9467 -1.2561
 2237TIP3   OH228201   5.752   4.447   2.267  0.0863  0.3991 -0.0318
 2237TIP3    H128202   5.842   4.421   2.287  0.2421 -0.0452 -1.2516
 2237TIP3    H228203   5.705   4.365   2.255 -0.4620  0.6310  0.4373
 2238TIP3   OH228204   5.119   5.043   2.833  0.1913  0.0421  0.1454
 2238TIP3    H128205   5.130   5.057   2.927 -0.2633  1.4316  0.0205
 2238TIP3    H228206   5.131   5.130   2.794  1.6331 -0.7160 -1.2211
 2239TIP3   OH228207   2.618   0.914   2.372  0.2314 -0.7188 -0.3483
 2239TIP3    H128208   2.649   0.828   2.399  0.3084 -0.9290 -1.0953
 2239TIP3    H228209   2.693   0.953   2.327  0.3295 -0.0988  0.3291
 2240TIP3   OH228210   2.497   3.772  17.257  0.6131 -0.3853 -0.3227
 2240TIP3    H128211   2.551   3.751  17.334  1.2470  3.1043  0.3849
 2240TIP3    H228212   2.560   3.783  17.186  0.5813  0.8636 -0.1841
 2241TIP3   OH228213   3.859   5.535  13.406 -0.0985 -0.6331 -0.7655
 2241TIP3    H128214   3.948   5.501  13.408 -0.3110 -1.2303 -1.3351
 2241TIP3    H228215   3.855   5.587  13.325  0.5148  1.6084  0.5348
 2242TIP3   OH228216   1.927   5.350  13.793  0.0844  0.0709  0.3379
 2242TIP3    H128217   1.879   5.412  13.738 -0.0139 -0.9937 -0.8237
 2242TIP3    H228218   2.013   5.390  13.805 -0.0513  0.5449 -0.2031
 2243TIP3   OH228219   6.337   3.677  12.371 -0.2909 -0.6325  0.1643
 2243TIP3    H128220   6.288   3.745  12.417 -0.4256  0.1593 -1.1007
 2243TIP3    H228221   6.318   3.692  12.279 -0.1204 -2.2475 -0.1643
 2244TIP3   OH228222   0.136   3.629  14.968 -0.1929  0.3698 -0.0193
 2244TIP3    H128223   0.146   3.716  15.007  1.1197 -0.0456  0.6392
 2244TIP3    H228224   0.113   3.573  15.042 -2.2094  0.3143 -0.6279
 2245TIP3   OH228225   6.252   1.791   4.952  0.3103 -0.3988  0.6581
 2245TIP3    H128226   6.281   1.882   4.941 -1.1007 -0.1291 -1.4019
 2245TIP3    H228227   6.226   1.763   4.865  0.8446 -2.8884  1.2038
 2246TIP3   OH228228   3.466   1.219   4.707 -0.0037 -0.2077 -0.7014
 2246TIP3    H128229   3.537   1.283   4.712 -0.1667  0.0131 -1.2262
 2246TIP3    H228230   3.503   1.140   4.747 -0.1102  0.4702  0.7780
 2247TIP3   OH228231   4.795   4.393  14.022  0.2857 -1.0408 -0.1693
 2247TIP3    H128232   4.778   4.460  13.956  1.4328 -2.8409 -2.4772
 2247TIP3    H228233   4.708   4.360  14.046 -0.2188  0.4853  0.1691
 2248TIP3   OH228234   6.713   2.653   4.414  0.5196  0.3202  0.7498
 2248TIP3    H128235   6.711   2.748   4.426 -0.7535  0.5162 -0.7265
 2248TIP3    H228236   6.806   2.632   4.404  0.9673  1.1427  2.6757
 2249TIP3   OH228237   0.586   3.236   1.651  0.5161 -0.1812 -0.4596
 2249TIP3    H128238   0.533   3.200   1.722  1.4097 -1.5401 -0.4563
 2249TIP3    H228239   0.627   3.314   1.689 -1.4305  0.9005 -0.4598
 2250TIP3   OH228240   1.851   2.225   0.488 -0.1988 -0.3812 -0.2354
 2250TIP3    H128241   1.906   2.148   0.475 -0.5031 -0.8101  0.8469
 2250TIP3    H228242   1.907   2.287   0.535  0.5687  0.7389 -2.5202
 2251TIP3   OH228243   0.362   1.160  15.988  0.2278  0.0385 -0.2307
 2251TIP3    H128244   0.312   1.079  15.978 -1.1043  0.9594 -1.5880
 2251TIP3    H228245   0.326   1.200  16.068  0.8898 -0.6650  0.4435
 2252TIP3   OH228246   3.155   1.931  11.282  0.2893  0.4495  0.7889
 2252TIP3    H128247   3.170   1.898  11.371  1.7706 -0.6972  0.1394
 2252TIP3    H228248   3.162   1.854  11.226 -1.6103  0.9839 -0.2704
 2253TIP3   OH228249   0.163   1.633  15.889 -0.9222  0.0274 -0.4146
 2253TIP3    H128250   0.123   1.626  15.803 -1.6840 -1.1738  0.0090
 2253TIP3    H228251   0.093   1.665  15.946 -0.6302  0.1251 -0.1070
 2254TIP3   OH228252   6.289   4.686   3.974 -0.0095 -0.2790  0.1819
 2254TIP3    H128253   6.277   4.676   4.068  0.3140 -0.7550  0.1789
 2254TIP3    H228254   6.376   4.650   3.957  0.8391  1.7428 -0.0010
 2255TIP3   OH228255   2.723   2.309   1.191 -1.0486  0.2599  0.5763
 2255TIP3    H128256   2.719   2.217   1.162 -2.7742  0.7521 -0.9475
 2255TIP3    H228257   2.760   2.305   1.279 -2.0868 -2.0038  0.9717
 2256TIP3   OH228258   4.217   1.615   2.119  0.0032 -0.2522  0.2175
 2256TIP3    H128259   4.310   1.632   2.135 -0.4418  1.1732  1.5664
 2256TIP3    H228260   4.201   1.650   2.032  0.3381  1.3299  0.7520
 2257TIP3   OH228261   5.329   4.875  16.493 -0.3306  0.7615  0.2304
 2257TIP3    H128262   5.265   4.933  16.451 -0.3562  1.0199  0.6250
 2257TIP3    H228263   5.276   4.817  16.548 -0.3963 -0.2520 -0.8541
 2258TIP3   OH228264   0.324   6.750   5.079  0.0554  0.1282  0.0187
 2258TIP3    H128265   0.391   6.805   5.120  1.7960 -1.2968 -0.7993
 2258TIP3    H228266   0.345   6.752   4.986 -0.2156 -1.3977 -0.1040
 2259TIP3   OH228267   2.440   6.368  12.708  0.9027 -0.1169  0.0605
 2259TIP3    H128268   2.524   6.326  12.721 -0.2425 -2.0083  2.0056
 2259TIP3    H228269   2.376   6.298  12.722 -1.0292  1.5723  0.1188
 2260TIP3   OH228270   4.731   5.646   2.295  0.0187 -0.5392 -0.2795
 2260TIP3    H128271   4.728   5.554   2.321 -1.2879 -0.0625  1.4432
 2260TIP3    H228272   4.770   5.691   2.370 -0.4565  0.4550 -0.6078
 2261TIP3   OH228273   3.753   2.697  13.860 -0.4118 -0.1936 -0.0679
 2261TIP3    H128274   3.837   2.710  13.816 -0.3687 -1.5549 -0.4387
 2261TIP3    H228275   3.688   2.713  13.791 -0.3187 -4.4712 -1.4417
 2262TIP3   OH228276   3.255   1.940  14.681  0.1663  0.0324  0.3915
 2262TIP3    H128277   3.183   1.912  14.624  0.6275 -0.1876 -0.0944
 2262TIP3    H228278   3.229   2.027  14.712  0.4770  0.7466 -1.1990
 2263TIP3   OH228279   2.683   2.327  12.850 -0.1277 -0.2684 -0.2654
 2263TIP3    H128280   2.747   2.284  12.906 -0.3625 -0.7882 -0.3908
 2263TIP3    H228281   2.734   2.388  12.797  0.1018  0.2093  0.4782
 2264TIP3   OH228282   0.971   2.083  15.454  0.2015 -0.3329  0.3623
 2264TIP3    H128283   0.929   2.167  15.441 -0.7846 -0.7425  0.8426
 2264TIP3    H228284   1.046   2.084  15.394 -0.6265  0.3043 -0.6843
 2265TIP3   OH228285   0.699   1.523  12.033  0.1357 -0.1504 -0.4839
 2265TIP3    H128286   0.791   1.544  12.047  0.2120  0.5959 -1.8982
 2265TIP3    H228287   0.657   1.609  12.023 -0.9917 -0.4077  1.6220
 2266TIP3   OH228288   4.213   4.794  12.841 -0.6517 -0.3471 -0.6843
 2266TIP3    H128289   4.182   4.837  12.921  1.7107 -0.7597  0.5481
 2266TIP3    H228290   4.188   4.854  12.770 -1.2745  0.9073  0.5443
 2267TIP3   OH228291   1.567   4.439   0.490  0.6252 -0.1043  0.4850
 2267TIP3    H128292   1.540   4.388   0.413  0.5880  1.8850 -0.8785
 2267TIP3    H228293   1.649   4.480   0.464  0.4122  0.9089  1.3701
 2268TIP3   OH228294   3.098   5.019   2.003 -0.0090  0.1573  0.1335
 2268TIP3    H128295   3.014   5.065   1.994 -0.8060 -1.0787  0.9742
 2268TIP3    H228296   3.096   4.951   1.935  0.4166  0.2583  0.0158
 2269TIP3   OH228297   1.290   3.090  17.264  0.6605  0.2207 -0.3795
 2269TIP3    H128298   1.284   3.154  17.335  0.4307  0.6844 -0.8135
 2269TIP3    H228299   1.276   3.005  17.307  3.5281  0.1643  0.6507
 2270TIP3   OH228300   6.073   4.885  15.572  0.1935 -0.0673  0.0824
 2270TIP3    H128301   5.984   4.909  15.598  0.3397 -1.5337  2.2093
 2270TIP3    H228302   6.115   4.968  15.550 -0.9508  0.9489  1.5444
 2271TIP3   OH228303   0.194   6.554   2.521 -0.5835 -0.6448 -0.0423
 2271TIP3    H128304   0.241   6.475   2.493 -1.8016 -1.8935  1.3201
 2271TIP3    H228305   0.143   6.580   2.444 -0.2762 -1.2522 -0.4577
 2272TIP3   OH228306   4.799   0.404  13.751 -0.1386  0.1540 -0.0616
 2272TIP3    H128307   4.711   0.397  13.789  0.5068  1.1558  1.7707
 2272TIP3    H228308   4.803   0.493  13.717 -0.8826 -0.8761 -3.1699
 2273TIP3   OH228309   3.527   1.764   1.922  0.4918 -0.0533  0.4411
 2273TIP3    H128310   3.586   1.741   1.852 -0.6493 -0.9504 -0.2618
 2273TIP3    H228311   3.487   1.847   1.894 -0.0185 -0.4486 -0.0273
 2274TIP3   OH228312   1.145   2.073  11.956  0.3817  0.3852 -0.1108
 2274TIP3    H128313   1.171   2.007  11.893  1.0362  1.3323 -0.8651
 2274TIP3    H228314   1.150   2.156  11.908 -0.2681  1.0004  0.8438
 2275TIP3   OH228315   4.187   1.258  12.937  0.4293  0.1906  0.3251
 2275TIP3    H128316   4.164   1.315  13.011 -2.0713  1.7633 -1.4942
 2275TIP3    H228317   4.281   1.242  12.948  0.1327  0.1324  3.9136
 2276TIP3   OH228318   6.054   3.421  15.114  0.1127  0.4278 -0.0335
 2276TIP3    H128319   5.998   3.359  15.068 -2.8683  1.2769  2.1727
 2276TIP3    H228320   6.090   3.370  15.187  1.9755  0.0196 -1.1626
 2277TIP3   OH228321   2.201   5.987   6.304  0.5556  0.5234 -0.3865
 2277TIP3    H128322   2.259   6.024   6.237  1.3796 -0.1818 -0.0732
 2277TIP3    H228323   2.258   5.968   6.378 -0.0217 -0.4319 -0.1714
 2278TIP3   OH228324   1.461   2.699   0.815  0.1031 -0.7238  0.3868
 2278TIP3    H128325   1.544   2.719   0.857  0.5262 -2.7429  0.6033
 2278TIP3    H228326   1.484   2.671   0.726 -0.6209  1.5130 -0.5767
 2279TIP3   OH228327   2.388   4.965  17.105  0.2189 -0.2870 -0.2072
 2279TIP3    H128328   2.367   4.985  17.014  1.2439  0.5772 -0.2798
 2279TIP3    H228329   2.384   5.050  17.149 -0.2166 -0.6911  0.5463
 2280TIP3   OH228330   2.362   1.926   2.839  0.1131  0.4045 -0.1788
 2280TIP3    H128331   2.443   1.909   2.886 -0.6822 -1.4648  0.6198
 2280TIP3    H228332   2.373   1.881   2.755  0.3915  1.2746 -0.6235
 2281TIP3   OH228333   1.407   1.051   5.831  0.5585 -0.4109 -0.0608
 2281TIP3    H128334   1.375   1.047   5.921 -0.4234  2.2340 -0.2009
 2281TIP3    H228335   1.478   1.115   5.834  1.2972 -1.1696 -0.9802
 2282TIP3   OH228336   1.302   3.332   5.205  0.6507  0.1925 -0.4428
 2282TIP3    H128337   1.280   3.250   5.161  0.2740 -0.8391  1.5777
 2282TIP3    H228338   1.296   3.312   5.298  1.3290  2.3200  0.1116
 2283TIP3   OH228339   2.607   5.349  16.424  0.0542 -0.6017  0.0131
 2283TIP3    H128340   2.641   5.295  16.495 -0.5676 -0.5838  0.3312
 2283TIP3    H228341   2.587   5.433  16.465  0.1734 -0.4238 -0.2917
 2284TIP3   OH228342   4.446   5.951  10.966 -0.2183  0.3832  0.0743
 2284TIP3    H128343   4.527   5.928  11.011  0.1518 -0.6840 -1.0800
 2284TIP3    H228344   4.472   5.961  10.874 -1.5167 -0.7532 -0.4437
 2285TIP3   OH228345   4.940   3.913   1.656  0.1370 -0.3513 -0.1762
 2285TIP3    H128346   4.897   3.921   1.742  0.5843  1.3463 -0.0814
 2285TIP3    H228347   4.913   3.827   1.624 -0.9358 -0.5567  1.1829
 2286TIP3   OH228348   1.635   0.651  15.997  0.1271 -0.3080 -0.8697
 2286TIP3    H128349   1.597   0.648  16.085  0.4374  1.1364 -0.6645
 2286TIP3    H228350   1.721   0.610  16.007 -0.1783 -0.9392 -0.7109
 2287TIP3   OH228351   5.781   5.923   0.120  0.2625  0.0521 -1.0027
 2287TIP3    H128352   5.694   5.901   0.086  0.0416 -1.1758  0.2502
 2287TIP3    H228353   5.786   6.018   0.114 -1.7354  0.2836  0.1425
 2288TIP3   OH228354   5.391   1.703  14.990  0.2193  0.0414 -0.3368
 2288TIP3    H128355   5.475   1.749  14.983 -0.1331  1.2576  2.0527
 2288TIP3    H228356   5.411   1.626  15.044 -0.0957  0.1003 -0.1325
 2289TIP3   OH228357   0.800   3.380   1.970  0.1184  0.3742  0.1151
 2289TIP3    H128358   0.875   3.322   1.957  0.1068  0.0181  1.4952
 2289TIP3    H228359   0.814   3.419   2.056 -1.3031  0.2395  0.4306
 2290TIP3   OH228360   6.245   5.328   2.661  0.2041  0.6637  0.1623
 2290TIP3    H128361   6.184   5.262   2.693  0.5523 -0.0557 -0.6283
 2290TIP3    H228362   6.246   5.395   2.730 -1.6797  0.8484  0.0793
 2291TIP3   OH228363   4.403   4.109  14.598 -0.0238  0.4970  0.7031
 2291TIP3    H128364   4.333   4.062  14.643 -0.0410  0.9641  1.1742
 2291TIP3    H228365   4.435   4.047  14.532 -1.7331  0.7077 -0.3855
 2292TIP3   OH228366   4.270   6.117   0.144 -0.2377  0.2511 -0.1971
 2292TIP3    H128367   4.184   6.094   0.107 -0.1871  0.7910 -0.6778
 2292TIP3    H228368   4.276   6.212   0.131  0.4934  0.1946 -0.3083
 2293TIP3   OH228369   4.915   5.461   2.082  0.1578 -0.2986  0.0617
 2293TIP3    H128370   4.851   5.397   2.113  0.4109  0.0725  1.3888
 2293TIP3    H228371   4.979   5.469   2.152  1.6815 -0.6311 -1.2324
 2294TIP3   OH228372   2.875   0.885  12.738 -0.3441  0.1909 -0.8520
 2294TIP3    H128373   2.857   0.974  12.708  1.0148 -0.0658 -2.5803
 2294TIP3    H228374   2.790   0.842  12.740 -0.6870  0.7097 -2.8131
 2295TIP3   OH228375   2.780   3.913   5.707  0.9407  0.3004  0.9049
 2295TIP3    H128376   2.779   3.998   5.662 -0.4267 -0.0772  0.1384
 2295TIP3    H228377   2.865   3.875   5.685  0.2932  0.0878 -1.5300
 2296TIP3   OH228378   6.581   2.557  10.853 -0.0675 -0.5389 -0.0486
 2296TIP3    H128379   6.543   2.470  10.841  1.3416 -1.4645  1.7226
 2296TIP3    H228380   6.674   2.541  10.866  0.1843  1.2332  0.5728
 2297TIP3   OH228381   6.528   4.709   2.142  0.0135 -0.4419 -0.1209
 2297TIP3    H128382   6.575   4.665   2.071  0.6024  0.5227 -0.3511
 2297TIP3    H228383   6.570   4.677   2.222 -0.4160 -1.2646 -0.2200
 2298TIP3   OH228384   2.620   1.639   3.246  0.2497  0.5287  0.2536
 2298TIP3    H128385   2.548   1.694   3.214 -1.4676 -0.9217  1.4385
 2298TIP3    H228386   2.653   1.596   3.167 -2.0894 -0.9173 -0.0233
 2299TIP3   OH228387   1.202   0.923  15.640  0.6090  0.4880  0.0495
 2299TIP3    H128388   1.166   0.957  15.722 -0.0962  0.1473 -0.1098
 2299TIP3    H228389   1.219   0.830  15.658 -2.5005 -0.4378 -1.0590
 2300TIP3   OH228390   2.026   3.143   6.392 -0.6288 -0.3291 -0.1377
 2300TIP3    H128391   2.024   3.239   6.389 -2.6024 -0.3280  0.3155
 2300TIP3    H228392   1.956   3.116   6.332 -0.8774 -1.4569  0.6514
 2301TIP3   OH228393   6.541   6.143   5.154  0.3696  0.1102 -0.3078
 2301TIP3    H128394   6.500   6.132   5.068  0.4834  0.6235 -0.4332
 2301TIP3    H228395   6.567   6.055   5.180 -0.4751 -0.1706 -0.3935
 2302TIP3   OH228396   2.914   4.966  13.736 -0.6195  0.4426 -0.3283
 2302TIP3    H128397   2.865   4.959  13.817  1.3210 -0.2531  0.8562
 2302TIP3    H228398   2.906   5.058  13.710 -2.6865  0.3033 -0.3385
 2303TIP3   OH228399   5.567   5.607   4.534  0.2808  0.4241  0.1886
 2303TIP3    H128400   5.585   5.514   4.546  2.9489  0.3791 -2.8798
 2303TIP3    H228401   5.482   5.620   4.575  1.0771 -2.6663  3.3224
 2304TIP3   OH228402   6.770   2.095  15.784  0.1289  0.2773 -0.0207
 2304TIP3    H128403   6.727   2.125  15.864 -0.1245  0.0124 -0.0582
 2304TIP3    H228404   6.740   2.156  15.717  1.2465  1.2126  0.3004
 2305TIP3   OH228405   6.454   2.630   3.490  0.0638  0.0876 -0.0579
 2305TIP3    H128406   6.447   2.704   3.549 -1.6787 -0.5039  0.5382
 2305TIP3    H228407   6.365   2.595   3.485  0.5318 -0.9901 -1.5903
 2306TIP3   OH228408   4.969   2.734  16.072 -0.1687  0.8159 -0.5812
 2306TIP3    H128409   4.954   2.803  16.007 -2.1141  0.0090 -1.0691
 2306TIP3    H228410   4.977   2.654  16.020 -0.1083  0.3748  0.0967
 2307TIP3   OH228411   1.978   2.651  13.669 -0.1447  0.4534  0.1806
 2307TIP3    H128412   1.908   2.687  13.724  0.7771  2.2417  0.2588
 2307TIP3    H228413   1.975   2.704  13.590 -1.8179 -2.4194 -1.9025
 2308TIP3   OH228414   3.929   1.957  16.304 -0.3810  0.0225  0.6514
 2308TIP3    H128415   3.962   2.046  16.315  1.4665 -0.4573 -0.5826
 2308TIP3    H228416   3.873   1.942  16.380 -0.7496  2.2286  0.8588
 2309TIP3   OH228417   1.531   4.267   3.678 -0.4744 -0.5515  0.3797
 2309TIP3    H128418   1.514   4.173   3.685 -2.5895 -0.1690  1.1760
 2309TIP3    H228419   1.444   4.307   3.681  0.4079  1.4633  0.4362
 2310TIP3   OH228420   5.686   3.763   0.776 -0.2560  0.0973 -0.1863
 2310TIP3    H128421   5.679   3.858   0.788  2.3809  0.2623  0.7877
 2310TIP3    H228422   5.694   3.728   0.865  2.2069 -0.5959 -0.5854
 2311TIP3   OH228423   3.070   5.100   2.352  0.5223  0.2227 -0.1578
 2311TIP3    H128424   3.134   5.097   2.423 -0.7239 -0.8847  0.9984
 2311TIP3    H228425   3.064   5.010   2.321 -0.1921  0.3841 -0.5165
 2312TIP3   OH228426   4.183   1.081   6.372 -0.1086  0.1685 -0.7828
 2312TIP3    H128427   4.261   1.051   6.324  1.2280  3.2111 -0.7621
 2312TIP3    H228428   4.150   1.155   6.320 -1.8173  0.1704  0.2456
 2313TIP3   OH228429   6.250   4.736   2.172 -0.6836  0.0841 -0.1342
 2313TIP3    H128430   6.344   4.752   2.167 -0.4039 -1.7505 -2.2198
 2313TIP3    H228431   6.241   4.667   2.237 -0.4772 -0.3399 -0.5505
 2314TIP3   OH228432   5.042   3.965   5.439  0.3327  0.4012  0.3915
 2314TIP3    H128433   4.959   3.922   5.460 -0.3672  0.9667 -1.0681
 2314TIP3    H228434   5.018   4.052   5.407  1.5093  0.7030  0.2511
 2315TIP3   OH228435   0.445   4.588  15.534 -0.3122  0.2040  0.8504
 2315TIP3    H128436   0.379   4.648  15.499  0.3927  0.5694  0.1189
 2315TIP3    H228437   0.416   4.501  15.507  0.2613  0.4797 -0.7713
 2316TIP3   OH228438   0.706   5.223   0.809 -0.2291 -0.7382 -0.7079
 2316TIP3    H128439   0.757   5.289   0.762  1.2238 -1.6905 -0.5440
 2316TIP3    H228440   0.714   5.248   0.901  0.3097 -1.1158 -0.6471
 2317TIP3   OH228441   1.380   4.512  12.903  0.2756  0.0617  0.3564
 2317TIP3    H128442   1.292   4.491  12.871  0.2132 -1.2036  1.2961
 2317TIP3    H228443   1.379   4.607  12.912 -0.7796  0.1335 -0.2424
 2318TIP3   OH228444   1.986   2.438   1.256  0.1859 -0.0131  0.4334
 2318TIP3    H128445   1.973   2.346   1.233  0.1776  0.0049  0.3659
 2318TIP3    H228446   2.073   2.441   1.296  0.0664 -0.1003  0.7044
 2319TIP3   OH228447   5.213   4.791  11.613  0.1043 -0.4577 -0.0161
 2319TIP3    H128448   5.182   4.880  11.631  0.8557 -0.0263 -0.7961
 2319TIP3    H228449   5.308   4.797  11.623 -0.0328 -2.0439  3.6315
 2320TIP3   OH228450   5.756   5.398  11.475  0.1649 -0.0651  0.3028
 2320TIP3    H128451   5.802   5.440  11.403 -1.5226  0.0271 -0.7813
 2320TIP3    H228452   5.663   5.416  11.458 -0.5389 -2.8958  0.6398
 2321TIP3   OH228453   2.547   3.798   1.075  0.1357  0.0873 -0.5598
 2321TIP3    H128454   2.541   3.883   1.119  1.1900  0.3533 -0.8853
 2321TIP3    H228455   2.528   3.817   0.983  2.3165  0.3705 -1.0067
 2322TIP3   OH228456   0.859   6.661   3.339 -0.1594  0.1990 -0.1288
 2322TIP3    H128457   0.951   6.658   3.313 -0.1054  0.9960 -0.0300
 2322TIP3    H228458   0.818   6.723   3.278 -0.5632  0.1077  0.0443
 2323TIP3   OH228459   3.055   4.053   0.422 -0.1713  0.1741  0.9169
 2323TIP3    H128460   3.091   4.133   0.384  0.4468  1.3243  3.6865
 2323TIP3    H228461   3.107   3.982   0.383  2.5426  1.5000  1.8747
 2324TIP3   OH228462   4.222   0.517   2.991 -0.1045 -0.4887 -0.1544
 2324TIP3    H128463   4.274   0.440   2.969 -0.5416 -1.8842  3.1197
 2324TIP3    H228464   4.235   0.529   3.085  1.3841  4.6572 -0.7189
 2325TIP3   OH228465   5.023   2.386  13.412 -0.8498 -0.5120 -0.4868
 2325TIP3    H128466   4.987   2.352  13.331 -2.2726  0.1872 -0.1835
 2325TIP3    H228467   5.073   2.464  13.386 -0.2511 -0.9981 -0.8131
 2326TIP3   OH228468   3.640   0.169   0.787  0.4280 -0.0105 -0.2658
 2326TIP3    H128469   3.714   0.132   0.835 -0.4109 -2.5437 -0.8125
 2326TIP3    H228470   3.640   0.262   0.812  2.6174 -0.3292  1.2024
 2327TIP3   OH228471   4.024   1.613  13.489 -0.1699 -0.0717 -0.0133
 2327TIP3    H128472   3.935   1.645  13.478 -0.7720 -1.7788 -0.5139
 2327TIP3    H228473   4.033   1.544  13.423  1.7213  0.4230 -0.3442
 2328TIP3   OH228474   2.281   1.950  13.142 -0.3045 -0.0966  0.2596
 2328TIP3    H128475   2.246   1.926  13.228 -1.5078  1.1259  0.1494
 2328TIP3    H228476   2.237   2.032  13.120 -0.2123 -0.4961 -1.6399
 2329TIP3   OH228477   6.147   2.225   3.934 -0.3191  0.4106 -0.0617
 2329TIP3    H128478   6.075   2.185   3.982 -0.0894  1.0632  0.8688
 2329TIP3    H228479   6.106   2.292   3.879 -0.3640  1.6025  1.3369
 2330TIP3   OH228480   6.236   2.162   4.645  0.5406 -0.2171 -0.5216
 2330TIP3    H128481   6.259   2.255   4.646 -0.5812  0.0912  0.9618
 2330TIP3    H228482   6.142   2.161   4.628  0.5620 -1.0852 -0.6246
 2331TIP3   OH228483   3.861   0.965   2.983  0.1821  0.0200 -0.0739
 2331TIP3    H128484   3.792   1.016   2.941 -1.1685 -0.6571  1.2256
 2331TIP3    H228485   3.859   0.880   2.938  0.1203 -0.0246  0.0131
 2332TIP3   OH228486   0.819   1.298  14.003 -0.0964  0.7670  0.0772
 2332TIP3    H128487   0.877   1.320  13.929 -0.8377 -1.6537 -1.3370
 2332TIP3    H228488   0.731   1.305  13.967 -0.4668 -0.5113  0.6924
 2333TIP3   OH228489   2.843   6.057   2.218 -0.5293 -0.0275 -0.4571
 2333TIP3    H128490   2.899   6.128   2.249 -0.6065  0.2672 -0.9890
 2333TIP3    H228491   2.793   6.030   2.296  0.9618 -0.9000  0.2610
 2334TIP3   OH228492   2.531   1.189   4.686 -0.2806  0.5771 -0.3027
 2334TIP3    H128493   2.567   1.240   4.612 -0.3102  1.1400  0.0660
 2334TIP3    H228494   2.437   1.182   4.667 -0.8007  3.0237  0.9757
 2335TIP3   OH228495   3.752   1.456   1.900 -0.3896 -0.0036  0.2094
 2335TIP3    H128496   3.840   1.434   1.869  0.2916  1.8539  0.7121
 2335TIP3    H228497   3.766   1.490   1.989 -1.5096  1.1088 -0.0174
 2336TIP3   OH228498   3.823   3.236  12.073  0.7496  0.5300 -0.5570
 2336TIP3    H128499   3.853   3.285  11.997  1.3642  3.3812  1.3504
 2336TIP3    H228500   3.768   3.298  12.122 -2.2292 -2.1500 -0.1215
 2337TIP3   OH228501   4.140   3.192  11.981 -0.7641 -0.8802 -0.5133
 2337TIP3    H128502   4.170   3.279  12.008  0.3055 -0.1590 -3.5857
 2337TIP3    H228503   4.054   3.207  11.941 -0.7999 -1.3266 -0.6141
 2338TIP3   OH228504   2.199   0.569   1.232 -0.5749 -0.2190  0.3393
 2338TIP3    H128505   2.222   0.489   1.280 -0.9032 -0.7590 -0.3863
 2338TIP3    H228506   2.212   0.546   1.140 -0.8679  0.5012  0.1130
 2339TIP3   OH228507   1.418   4.830  14.965 -0.4452 -0.7953  0.2911
 2339TIP3    H128508   1.418   4.761  14.899 -1.6287 -0.9194  0.4029
 2339TIP3    H228509   1.336   4.818  15.013  0.4931 -0.8509  1.9351
 2340TIP3   OH228510   0.452   5.788   3.913  0.4131  0.3311 -0.3757
 2340TIP3    H128511   0.420   5.876   3.895  2.1037  0.9655 -0.4364
 2340TIP3    H228512   0.499   5.796   3.995  0.0466 -0.6673 -0.0602
 2341TIP3   OH228513   3.985   4.255   5.159 -0.2298  0.0078 -0.1024
 2341TIP3    H128514   4.057   4.279   5.218 -0.5620  3.4415 -0.8549
 2341TIP3    H228515   4.021   4.187   5.102  1.7385  0.2123  0.8154
 2342TIP3   OH228516   6.745   1.452  13.757 -0.1003  0.3171  0.1665
 2342TIP3    H128517   6.720   1.401  13.835 -0.5921  1.3030  0.6741
 2342TIP3    H228518   6.667   1.451  13.702  0.0767  0.0626 -0.0849
 2343TIP3   OH228519   1.042   5.442   3.370  0.0653  0.1250  0.2712
 2343TIP3    H128520   1.027   5.536   3.382 -1.0223 -0.3193  3.0778
 2343TIP3    H228521   0.990   5.419   3.293 -1.9230  1.3678  1.1662
 2344TIP3   OH228522   0.226   2.817  15.035  0.3164  0.0716  0.2693
 2344TIP3    H128523   0.254   2.873  14.963  0.3971 -0.1214  0.1481
 2344TIP3    H228524   0.133   2.800  15.017  0.4055 -0.2031  0.0563
 2345TIP3   OH228525   1.509   2.859   6.261  0.3938  0.1454 -0.5944
 2345TIP3    H128526   1.602   2.835   6.249  0.5389 -0.9681  2.1438
 2345TIP3    H228527   1.511   2.947   6.297  0.3525  0.3234 -1.0236
 2346TIP3   OH228528   1.011   5.211  14.132 -0.3393 -0.4546 -0.2418
 2346TIP3    H128529   1.057   5.145  14.079  0.6609 -0.6142  0.7777
 2346TIP3    H228530   1.040   5.295  14.096 -3.2861 -0.4396 -2.9900
 2347TIP3   OH228531   0.613   3.646  11.777 -0.4726 -0.0542 -0.7757
 2347TIP3    H128532   0.694   3.695  11.767 -0.2207 -0.2228  0.2579
 2347TIP3    H228533   0.641   3.554  11.784 -0.6415 -0.0349  0.5240
 2348TIP3   OH228534   2.245   5.098  16.861 -0.2568 -0.0439  0.0095
 2348TIP3    H128535   2.323   5.046  16.840 -0.1962 -0.4337  1.1558
 2348TIP3    H228536   2.172   5.048  16.825  0.0921  1.1566 -2.6351
 2349TIP3   OH228537   5.023   3.809  15.710  0.0854 -0.9259  0.1388
 2349TIP3    H128538   5.093   3.824  15.773  0.8857 -1.2085 -0.6600
 2349TIP3    H228539   4.944   3.844  15.752  1.1550  1.9420 -0.0477
 2350TIP3   OH228540   0.413   1.192   3.048 -0.0863 -0.1913 -0.0191
 2350TIP3    H128541   0.390   1.104   3.075 -0.1669 -1.0765 -2.6884
 2350TIP3    H228542   0.419   1.242   3.129 -3.4367 -1.7916  1.3635
 2351TIP3   OH228543   2.232   4.279  16.976  0.0046  0.1295 -0.5899
 2351TIP3    H128544   2.279   4.344  17.028  0.5520 -0.5856 -0.1671
 2351TIP3    H228545   2.287   4.265  16.899 -0.2290  0.3326 -0.7956
 2352TIP3   OH228546   3.757   2.876   1.719 -0.2920  0.3987 -0.1626
 2352TIP3    H128547   3.765   2.794   1.670  2.3026 -0.2259  1.1230
 2352TIP3    H228548   3.702   2.931   1.664 -0.3046 -1.4245 -2.1342
 2353TIP3   OH228549   0.515   2.614  14.718  0.4564 -0.6883  0.2699
 2353TIP3    H128550   0.485   2.563  14.793  0.0766 -1.1217 -0.1600
 2353TIP3    H228551   0.440   2.668  14.694  0.0749 -1.5678 -0.6349
 2354TIP3   OH228552   5.200   3.461   4.672  0.0169 -0.6009 -0.0437
 2354TIP3    H128553   5.240   3.505   4.747  0.8085  0.4402 -1.0100
 2354TIP3    H228554   5.195   3.530   4.605 -0.4195 -1.5543 -1.0237
 2355TIP3   OH228555   3.908   4.917  15.590  0.4009 -0.2739  0.3107
 2355TIP3    H128556   3.835   4.978  15.596  0.5452  0.1227 -1.5857
 2355TIP3    H228557   3.936   4.905  15.681 -1.5631  0.0915  1.0154
 2356TIP3   OH228558   1.195   0.852  16.422  0.4484  0.4590  0.5908
 2356TIP3    H128559   1.158   0.920  16.365  1.6374 -0.5015 -1.4549
 2356TIP3    H228560   1.147   0.772  16.397  0.6272  0.1147  1.3287
 2357TIP3   OH228561   0.914   6.696  15.227  0.2556 -0.0294 -0.0166
 2357TIP3    H128562   0.958   6.632  15.283  2.0912  2.1638  1.2498
 2357TIP3    H228563   0.865   6.750  15.288 -0.2625  0.5159 -0.9018
 2358TIP3   OH228564   5.914   2.431  16.687 -0.3538 -0.3989  0.2036
 2358TIP3    H128565   5.928   2.361  16.624  0.8305  0.0106 -0.0239
 2358TIP3    H228566   5.944   2.394  16.770  0.5117 -0.1027  0.0374
 2359TIP3   OH228567   4.002   4.253   5.518  0.3404 -0.3088 -0.2647
 2359TIP3    H128568   3.969   4.217   5.601 -0.5005 -0.5834 -0.7026
 2359TIP3    H228569   3.962   4.340   5.513 -0.2712 -0.6122 -0.7629
 2360TIP3   OH228570   2.418   2.707  15.009  0.4403  0.3161 -0.0280
 2360TIP3    H128571   2.399   2.650  15.084  0.1715 -0.9906 -1.0568
 2360TIP3    H228572   2.410   2.796  15.044 -4.8111 -0.0377  0.4415
 2361TIP3   OH228573   3.816   6.746   5.913 -0.2727  0.0896  0.0752
 2361TIP3    H128574   3.731   6.763   5.954 -0.0115  0.3496  0.5204
 2361TIP3    H228575   3.852   6.672   5.962  0.2901  0.7661  0.6967
 2362TIP3   OH228576   3.798   3.059   0.791 -0.5681 -0.1000  0.1946
 2362TIP3    H128577   3.887   3.047   0.758 -0.7080  2.5478 -1.4939
 2362TIP3    H228578   3.744   3.004   0.734 -0.0218 -2.3695  1.7549
 2363TIP3   OH228579   0.054   3.708   2.161  0.4487 -0.4201  0.0216
 2363TIP3    H128580   0.108   3.787   2.158  0.3334 -0.3572 -0.7646
 2363TIP3    H228581  -0.027   3.734   2.204  0.0547  0.1253 -1.0203
 2364TIP3   OH228582   4.160   5.133  11.388 -0.0300  0.1066 -0.7517
 2364TIP3    H128583   4.254   5.148  11.390 -0.1357  0.8183  1.6771
 2364TIP3    H228584   4.130   5.179  11.310  1.7083 -0.9497 -2.1221
 2365TIP3   OH228585   1.761   3.794   3.005 -0.2882 -0.4470  0.0626
 2365TIP3    H128586   1.712   3.822   3.082  1.9246  0.7091  1.1733
 2365TIP3    H228587   1.753   3.867   2.943  2.0905  0.9976  1.3165
 2366TIP3   OH228588   2.632   1.157  17.258 -0.0928 -0.0176  0.3247
 2366TIP3    H128589   2.540   1.162  17.231 -0.2695 -1.5846  0.4948
 2366TIP3    H228590   2.629   1.163  17.354  0.0079  0.2524  0.3102
 2367TIP3   OH228591   6.550   1.143  16.072  0.7961 -0.3716  0.3707
 2367TIP3    H128592   6.512   1.065  16.112  1.1516 -0.5390  0.3879
 2367TIP3    H228593   6.490   1.166  16.001 -0.5572  0.6756  1.7671
 2368TIP3   OH228594   5.142   6.280  11.870 -0.6676  0.2934 -0.1393
 2368TIP3    H128595   5.180   6.366  11.850 -1.0288  0.4376 -0.2081
 2368TIP3    H228596   5.050   6.289  11.847 -1.0866  0.4411  1.4518
 2369TIP3   OH228597   1.451   2.340  11.122 -0.0554 -0.5223  0.7499
 2369TIP3    H128598   1.397   2.418  11.111  0.4044  0.0173  2.1322
 2369TIP3    H228599   1.515   2.345  11.051  0.2627  0.6220  1.1013
 2370TIP3   OH228600   3.949   6.794   3.095  0.9140  0.1261  0.0088
 2370TIP3    H128601   3.970   6.702   3.112  2.0381  0.1636 -0.9644
 2370TIP3    H228602   3.909   6.794   3.008  0.2929  0.4837  0.2930
 2371TIP3   OH228603   2.917   5.668   0.805  0.1899  0.1951  0.3743
 2371TIP3    H128604   2.883   5.688   0.718  2.0274  1.4463 -0.1175
 2371TIP3    H228605   2.916   5.572   0.810 -1.0376  0.1393 -0.5319
 2372TIP3   OH228606   1.017   0.534  13.046  0.1341 -0.1479  0.1070
 2372TIP3    H128607   0.982   0.614  13.083 -0.8823 -0.9464  0.9466
 2372TIP3    H228608   1.073   0.497  13.115  0.7964 -0.0449 -0.3642
 2373TIP3   OH228609   5.369   4.484  16.185  0.8207  0.1393 -0.2327
 2373TIP3    H128610   5.386   4.420  16.253  1.1229 -0.6956 -1.0710
 2373TIP3    H228611   5.286   4.525  16.211 -0.9583 -2.6276 -1.1276
 2374TIP3   OH228612   4.351   5.096   4.258  0.2936 -0.3828  0.4864
 2374TIP3    H128613   4.391   5.160   4.317  0.1363  0.1399  0.0292
 2374TIP3    H228614   4.424   5.059   4.209  0.4104 -0.7259  0.9124
 2375TIP3   OH228615   5.275   4.678   1.648 -0.6412 -0.0892  0.5552
 2375TIP3    H128616   5.243   4.638   1.729  0.0368 -1.3463  0.2263
 2375TIP3    H228617   5.196   4.712   1.605 -0.7850  3.1214  2.9703
 2376TIP3   OH228618   4.781   1.045  17.056 -0.0225 -0.1885 -0.4022
 2376TIP3    H128619   4.710   1.079  17.110 -0.6931 -1.7486 -0.2358
 2376TIP3    H228620   4.751   1.058  16.966  0.0249  0.2319 -0.3605
 2377TIP3   OH228621   2.614   0.350   1.140  0.0817 -0.0519 -0.1677
 2377TIP3    H128622   2.572   0.436   1.139 -1.3467 -0.7295 -0.1363
 2377TIP3    H228623   2.542   0.288   1.131  1.1843 -1.2310 -1.3526
 2378TIP3   OH228624   3.105   4.361  12.734 -0.2350 -0.6088 -0.1374
 2378TIP3    H128625   3.128   4.330  12.821 -0.0991 -1.0503 -0.3275
 2378TIP3    H228626   3.010   4.365  12.734 -0.2900  3.4968  1.4574
 2379TIP3   OH228627   4.416   6.416  12.737  0.0732 -0.1613  0.0792
 2379TIP3    H128628   4.422   6.482  12.668  1.4218 -1.1797 -0.8295
 2379TIP3    H228629   4.501   6.371  12.734 -0.0268 -0.5783  2.0653
 2380TIP3   OH228630   5.347   5.331   0.378  0.2523 -0.4476 -0.3924
 2380TIP3    H128631   5.252   5.341   0.380  0.2198 -0.8142  0.4184
 2380TIP3    H228632   5.375   5.356   0.466  0.7417 -1.8279 -0.1279
 2381TIP3   OH228633   5.231   6.402  12.217 -0.3591 -0.2315  0.8923
 2381TIP3    H128634   5.305   6.430  12.271  1.0726 -0.7494 -0.7239
 2381TIP3    H228635   5.173   6.477  12.215  0.6615  0.5896  1.3076
 2382TIP3   OH228636   3.577   0.727   1.854  0.1761  0.1290  0.2320
 2382TIP3    H128637   3.576   0.783   1.775 -1.4833  0.2521  0.3113
 2382TIP3    H228638   3.526   0.650   1.829 -1.2775  0.6350  1.4768
 2383TIP3   OH228639   4.971   5.469  13.101  0.6093 -0.5663 -0.4021
 2383TIP3    H128640   5.004   5.550  13.062 -1.2742  0.3671 -0.1681
 2383TIP3    H228641   4.896   5.445  13.046 -1.7625  0.4668  2.1605
 2384TIP3   OH228642   2.035   0.885  16.481 -0.5431  0.5807 -0.5877
 2384TIP3    H128643   2.130   0.887  16.465 -0.8224  1.4676 -2.4211
 2384TIP3    H228644   2.023   0.937  16.561  0.6497 -1.1723  0.8145
 2385TIP3   OH228645   2.493   3.782   3.624  0.1033 -0.0234 -0.0878
 2385TIP3    H128646   2.549   3.833   3.683 -1.5235  0.8145  0.8098
 2385TIP3    H228647   2.410   3.829   3.624 -0.8519 -1.6331 -0.7818
 2386TIP3   OH228648   6.396   1.565   0.706  0.5083  0.1958  0.1054
 2386TIP3    H128649   6.465   1.626   0.683  0.3709  0.5270  0.5651
 2386TIP3    H228650   6.420   1.483   0.662  1.2702  0.2634  0.3878
 2387TIP3   OH228651   2.568   4.503  10.356 -0.2137  0.2079 -0.1662
 2387TIP3    H128652   2.520   4.578  10.322  0.7237  0.6071 -0.6672
 2387TIP3    H228653   2.517   4.473  10.431 -1.0266  0.8374 -0.4548
 2388TIP3   OH228654   2.900   6.298   1.973  0.1174 -0.4319  0.4801
 2388TIP3    H128655   2.834   6.230   1.959 -0.9954  0.6113  0.4698
 2388TIP3    H228656   2.972   6.274   1.914 -0.9159 -0.7411 -0.7135
 2389TIP3   OH228657   6.815   5.137   4.097  0.5703  0.3682  0.3970
 2389TIP3    H128658   6.766   5.093   4.167  1.7307 -0.0684  0.9798
 2389TIP3    H228659   6.813   5.075   4.024 -1.1878  1.0962 -0.2197
 2390TIP3   OH228660   2.695   0.433  16.905 -0.1134 -0.5334  0.2547
 2390TIP3    H128661   2.666   0.486  16.832 -1.2048 -1.4698 -0.0277
 2390TIP3    H228662   2.666   0.480  16.983 -0.1453 -0.2095  0.0470
 2391TIP3   OH228663   3.943   4.613  11.080 -0.6601  0.0815 -0.6446
 2391TIP3    H128664   3.932   4.583  10.989 -0.6030  0.3389 -0.7363
 2391TIP3    H228665   3.885   4.689  11.087  0.7976  1.2634 -1.0314
 2392TIP3   OH228666   1.937   0.280   4.711  0.5472 -0.2277 -0.3182
 2392TIP3    H128667   1.925   0.223   4.635  0.4367  0.8053 -1.0919
 2392TIP3    H228668   1.877   0.353   4.696  0.4228 -0.0670  0.8404
 2393TIP3   OH228669   6.492   5.623  13.250 -0.1833  0.0071 -0.2427
 2393TIP3    H128670   6.469   5.570  13.174 -1.4817 -1.8874  1.3880
 2393TIP3    H228671   6.409   5.636  13.297  0.0167  3.7260 -0.6251
 2394TIP3   OH228672   2.023   4.192   5.512 -0.0056 -0.5678  0.0045
 2394TIP3    H128673   1.972   4.130   5.459  0.2929 -0.1967 -0.7278
 2394TIP3    H228674   2.092   4.139   5.551  0.7051 -0.5667 -1.2293
 2395TIP3   OH228675   6.520   5.171  12.920 -0.5452  0.1838  0.2966
 2395TIP3    H128676   6.582   5.124  12.864 -0.9869  0.5939 -0.5651
 2395TIP3    H228677   6.542   5.144  13.009  0.6558  0.0778 -0.0171
 2396TIP3   OH228678   4.574   0.384  16.472  0.0635  0.5043 -0.0559
 2396TIP3    H128679   4.542   0.423  16.391  1.3832  3.7835  0.8506
 2396TIP3    H228680   4.536   0.296  16.472 -0.3792  0.4865 -3.9519
 2397TIP3   OH228681   6.427   2.817  11.425  0.0028 -0.5027  0.3121
 2397TIP3    H128682   6.481   2.738  11.430  0.7846  0.0910  2.6033
 2397TIP3    H228683   6.370   2.812  11.502 -1.2463  0.2813 -0.5186
 2398TIP3   OH228684   1.198   5.282   0.610 -0.4791 -0.2025 -0.1812
 2398TIP3    H128685   1.121   5.299   0.555 -0.5192  0.5218  0.0857
 2398TIP3    H228686   1.203   5.187   0.616 -0.3403 -0.3118 -1.6339
 2399TIP3   OH228687   3.521   1.625  11.349  0.2127 -0.5205  0.0207
 2399TIP3    H128688   3.512   1.569  11.271  0.2074  0.1137 -0.4458
 2399TIP3    H228689   3.615   1.627  11.366  0.3039  0.0425 -0.5074
 2400TIP3   OH228690   0.333   5.176  12.094 -0.1179 -0.0548 -0.3661
 2400TIP3    H128691   0.352   5.090  12.133 -0.4887 -0.5886 -1.3481
 2400TIP3    H228692   0.407   5.192  12.035  0.6019  0.8984  0.7378
 2401TIP3   OH228693   4.109   4.298  11.267 -0.1463  0.9557 -0.4958
 2401TIP3    H128694   4.025   4.310  11.310 -0.6598  0.7465 -1.4146
 2401TIP3    H228695   4.173   4.340  11.325 -1.1047  2.7136 -0.6722
 2402TIP3   OH228696   1.393   3.154  12.516  0.3884 -0.4201  0.7868
 2402TIP3    H128697   1.334   3.229  12.520  0.4153 -0.3729  0.3473
 2402TIP3    H228698   1.343   3.081  12.552  0.4640 -0.1269  1.4996
 2403TIP3   OH228699   3.147   6.590   0.301  0.2967 -0.3017 -0.2485
 2403TIP3    H128700   3.205   6.631   0.365 -1.6524  0.2356  1.2647
 2403TIP3    H228701   3.116   6.510   0.344 -1.4165  0.3065 -0.2733
 2404TIP3   OH228702   2.366   0.733   4.257 -0.2007  0.0208 -0.5561
 2404TIP3    H128703   2.343   0.820   4.288 -0.0217 -0.5229  1.1956
 2404TIP3    H228704   2.456   0.742   4.225  0.3812  0.1847  1.0288
 2405TIP3   OH228705   0.233   1.784   3.972 -0.5694  0.1713  0.9689
 2405TIP3    H128706   0.264   1.819   3.888 -3.2976 -1.3259 -0.8137
 2405TIP3    H228707   0.313   1.771   4.023  1.4329 -0.6136 -2.1081
 2406TIP3   OH228708   0.900   4.193   3.734  0.9074 -0.4615  0.4378
 2406TIP3    H128709   0.904   4.207   3.639  2.0651 -0.2613  0.4977
 2406TIP3    H228710   0.836   4.123   3.745  0.8366 -0.5627 -0.5021
 2407TIP3   OH228711   2.502   0.746  11.606  0.4052 -0.0225 -0.2949
 2407TIP3    H128712   2.576   0.806  11.614  0.5836 -0.2771 -0.0145
 2407TIP3    H228713   2.445   0.770  11.680 -0.4659  1.0889 -1.2902
 2408TIP3   OH228714   2.514   2.756  16.049  0.1277  0.4411  0.2418
 2408TIP3    H128715   2.591   2.717  16.093 -1.0344  1.1291  3.1146
 2408TIP3    H228716   2.439   2.717  16.094 -1.2546  0.2348 -2.1033
 2409TIP3   OH228717   3.600   5.345   0.623  0.7368  0.2546  0.6310
 2409TIP3    H128718   3.534   5.324   0.689 -1.5686  0.9544 -1.3338
 2409TIP3    H228719   3.630   5.260   0.591 -1.6956 -0.1519 -0.7603
 2410TIP3   OH228720   5.913   4.388   1.740 -0.3621 -0.4043 -0.3173
 2410TIP3    H128721   5.848   4.376   1.671 -0.5852 -0.2421 -0.1372
 2410TIP3    H228722   5.997   4.372   1.697 -0.3833  1.0687 -0.9842
 2411TIP3   OH228723   4.271   5.562   1.883  0.4386 -0.1463 -0.3617
 2411TIP3    H128724   4.352   5.553   1.833  1.6473  0.4582  1.4164
 2411TIP3    H228725   4.299   5.582   1.972 -1.5928 -2.1720  0.8619
 2412TIP3   OH228726   5.860   0.105   2.333  0.1359  0.7878 -0.3559
 2412TIP3    H128727   5.767   0.126   2.331 -0.4542 -1.5265  0.3393
 2412TIP3    H228728   5.882   0.098   2.426  0.6403 -0.1239 -0.5341
 2413TIP3   OH228729   3.502   2.229  10.442 -0.3292 -0.0889  0.6382
 2413TIP3    H128730   3.463   2.218  10.355  0.1888  1.0762  0.2373
 2413TIP3    H228731   3.482   2.148  10.488 -0.0829 -0.9985 -0.7894
 2414TIP3   OH228732   0.800   5.273  15.849  0.4357 -0.0989 -0.1432
 2414TIP3    H128733   0.781   5.183  15.823  2.5484 -0.8463  0.6644
 2414TIP3    H228734   0.881   5.295  15.802 -0.1218  1.4622 -0.4525
 2415TIP3   OH228735   5.136   2.266  15.713  0.1499  0.3474 -0.4045
 2415TIP3    H128736   5.082   2.214  15.654  1.5476 -0.4293 -1.0684
 2415TIP3    H228737   5.200   2.308  15.655  1.2877 -0.0975  0.4923
 2416TIP3   OH228738   5.200   1.449   1.488  0.3523 -0.5233 -0.0824
 2416TIP3    H128739   5.275   1.399   1.520  1.9758  0.8126 -1.5953
 2416TIP3    H228740   5.212   1.537   1.523 -0.0618 -0.0886 -0.9853
 2417TIP3   OH228741   3.927   0.168  14.138  0.4411 -0.3998 -0.1907
 2417TIP3    H128742   3.899   0.150  14.228 -0.8753  0.2946 -0.4382
 2417TIP3    H228743   3.869   0.238  14.108 -0.4175 -1.8697 -2.1952
 2418TIP3   OH228744   3.594   6.059  15.473  0.4267 -0.0724 -0.4588
 2418TIP3    H128745   3.685   6.062  15.502  0.5420  0.0518 -0.8372
 2418TIP3    H228746   3.571   6.150  15.456  0.8810 -0.2832 -2.3758
 2419TIP3   OH228747   6.370   2.288  14.364  0.0413  0.2673 -0.1163
 2419TIP3    H128748   6.408   2.231  14.431 -0.5249  1.1705  1.0026
 2419TIP3    H228749   6.296   2.330  14.408  0.9128  2.4768 -0.6480
 2420TIP3   OH228750   2.872   1.732  11.730  0.0524  0.1453  0.2806
 2420TIP3    H128751   2.845   1.701  11.643 -1.0774  2.0358 -0.1070
 2420TIP3    H228752   2.968   1.723  11.730 -0.0694 -1.6146 -0.4159
 2421TIP3   OH228753   1.463   5.977  10.895  0.5746  0.6157  0.1768
 2421TIP3    H128754   1.395   5.961  10.961  0.1431  0.3440 -0.3307
 2421TIP3    H228755   1.471   5.894  10.849  1.7782  0.4187  0.7078
 2422TIP3   OH228756   6.502   3.492   0.658 -0.0286  0.1538  0.1889
 2422TIP3    H128757   6.555   3.475   0.736 -2.0157  0.5645  1.7195
 2422TIP3    H228758   6.548   3.563   0.612  1.4973 -0.5212  0.6375
 2423TIP3   OH228759   2.254   0.068  16.023 -0.0273 -0.4437 -0.7947
 2423TIP3    H128760   2.212  -0.009  16.060 -0.4403  0.1991  0.0920
 2423TIP3    H228761   2.259   0.131  16.095  3.0756 -0.7195 -0.6422
 2424TIP3   OH228762   5.774   5.843  11.016  0.4606  0.3386 -0.0985
 2424TIP3    H128763   5.792   5.935  10.996 -1.3234  0.6688 -0.3615
 2424TIP3    H228764   5.761   5.842  11.111 -1.8376  0.8616 -0.3405
 2425TIP3   OH228765   1.918   5.814   2.765 -0.3144  0.1529 -0.1685
 2425TIP3    H128766   1.836   5.803   2.813  1.1122 -0.0819  2.4594
 2425TIP3    H228767   1.962   5.887   2.810  1.6831 -0.9184 -0.2394
 2426TIP3   OH228768   0.857   0.404   0.431  0.2172 -0.3816 -0.3617
 2426TIP3    H128769   0.866   0.481   0.374 -2.3078 -0.5581 -1.1421
 2426TIP3    H228770   0.936   0.353   0.416  1.0607  1.1325 -1.3046
 2427TIP3   OH228771   0.024   2.963  12.533 -0.7587  0.6405  0.4808
 2427TIP3    H128772   0.051   2.903  12.464  1.4357 -0.6852  2.3217
 2427TIP3    H228773  -0.069   2.945  12.547 -0.8656 -0.1183 -1.0595
 2428TIP3   OH228774   0.730   2.658  12.351  0.1461 -0.6037 -0.2855
 2428TIP3    H128775   0.794   2.669  12.280 -1.3797 -0.5699 -1.7158
 2428TIP3    H228776   0.681   2.579  12.328 -1.3515  0.2263 -0.0829
 2429TIP3   OH228777   1.501   5.192   6.438 -0.1949  0.7347  0.2338
 2429TIP3    H128778   1.414   5.213   6.472 -0.2897  1.2546 -0.3151
 2429TIP3    H228779   1.559   5.256   6.480 -0.0448  0.2935  0.7151
 2430TIP3   OH228780   6.095   0.131   3.606  0.7703 -0.2525  0.2193
 2430TIP3    H128781   6.104   0.111   3.699 -0.1154 -0.5449  0.2519
 2430TIP3    H228782   6.183   0.154   3.578  0.9026  0.7275  1.3414
 2431TIP3   OH228783   0.038   4.337  12.585 -0.3951  0.0924 -0.1176
 2431TIP3    H128784   0.071   4.271  12.647 -0.2401 -0.0339 -0.3335
 2431TIP3    H228785  -0.057   4.333  12.594 -0.4491 -1.0435 -1.0344
 2432TIP3   OH228786   5.378   0.664   0.816  0.1344  0.0368  0.5515
 2432TIP3    H128787   5.398   0.602   0.886  1.6875 -0.3692 -0.2025
 2432TIP3    H228788   5.366   0.748   0.860 -0.4948 -0.5178  1.4438
 2433TIP3   OH228789   2.414   6.759   6.495 -0.6581 -0.6840 -0.0589
 2433TIP3    H128790   2.339   6.742   6.553 -1.6041 -0.8365 -1.2948
 2433TIP3    H228791   2.376   6.764   6.407  0.9256 -1.9049 -0.8672
 2434TIP3   OH228792   5.727   5.331  12.205 -0.1352  0.4641 -0.3915
 2434TIP3    H128793   5.784   5.257  12.189 -0.6651  0.2159 -1.2010
 2434TIP3    H228794   5.785   5.401  12.234  0.4713 -0.0171 -0.4326
 2435TIP3   OH228795   1.546   3.215  10.441  0.1365  0.8634  0.1287
 2435TIP3    H128796   1.548   3.255  10.354  1.4824  0.3314 -0.1088
 2435TIP3    H228797   1.610   3.265  10.491  1.3965 -0.5766  0.0008
 2436TIP3   OH228798   5.112   4.836   3.113  0.2268  0.1596 -0.1166
 2436TIP3    H128799   5.026   4.817   3.150  1.0794 -0.1118  1.9076
 2436TIP3    H228800   5.139   4.918   3.155  0.3919  0.9954 -1.7917
 2437TIP3   OH228801   4.638   5.118  14.053  0.4132 -0.2464 -0.2201
 2437TIP3    H128802   4.573   5.056  14.084  0.0313  0.9406  1.5163
 2437TIP3    H228803   4.612   5.202  14.092  1.0643  0.9720 -2.2256
 2438TIP3   OH228804   5.713   6.193   0.446 -0.2620 -0.2514 -0.3604
 2438TIP3    H128805   5.732   6.099   0.437  2.6904 -0.0918  2.4002
 2438TIP3    H228806   5.762   6.220   0.524 -2.2315  3.3207 -0.1366
 2439TIP3   OH228807   6.430   3.501   5.891  0.1046 -0.0838  0.0779
 2439TIP3    H128808   6.391   3.588   5.878 -1.3909 -0.7992 -0.4437
 2439TIP3    H228809   6.453   3.500   5.984 -1.5324  0.2400  0.5181
 2440TIP3   OH228810   3.132   6.436   2.157  0.3954 -0.3859  0.5102
 2440TIP3    H128811   3.140   6.345   2.185  0.7111 -0.0546  1.5366
 2440TIP3    H228812   3.201   6.482   2.204  0.8021  0.2490 -0.6655
 2441TIP3   OH228813   3.063   0.506   0.088 -0.0755 -0.0251 -0.1195
 2441TIP3    H128814   2.992   0.451   0.122 -0.1127 -0.4757 -0.9086
 2441TIP3    H228815   3.023   0.554   0.015 -0.1482  1.3562  0.7835
 2442TIP3   OH228816   3.880   0.563   3.979  0.4848  0.1062  0.0754
 2442TIP3    H128817   3.912   0.647   3.947 -0.7335  0.4875 -0.1996
 2442TIP3    H228818   3.837   0.584   4.062 -0.0774 -0.1798 -0.1350
 2443TIP3   OH228819   0.580   3.013   3.085  0.0086  0.3315  0.5567
 2443TIP3    H128820   0.487   3.028   3.069 -0.7066 -3.2435  0.5509
 2443TIP3    H228821   0.616   2.993   2.998  0.4055  0.0163  0.7907
 2444TIP3   OH228822   4.367   6.738   2.153 -0.1992 -0.1840  0.9729
 2444TIP3    H128823   4.298   6.752   2.088 -1.4831 -1.4102  2.0178
 2444TIP3    H228824   4.448   6.742   2.102 -1.2092 -2.3951 -0.9827
 2445TIP3   OH228825   5.372   0.143  15.739  0.1102  0.1343  0.3180
 2445TIP3    H128826   5.278   0.143  15.761 -0.0333 -1.2064 -0.2073
 2445TIP3    H228827   5.398   0.051  15.746  1.1159  0.3345 -0.6550
 2446TIP3   OH228828   1.055   2.986  10.498 -0.1583  0.4195  0.3441
 2446TIP3    H128829   1.121   2.978  10.566 -0.5778 -0.7652  0.6310
 2446TIP3    H228830   0.981   3.028  10.541 -1.2665 -2.2827  1.3005
 2447TIP3   OH228831   4.658   4.091  13.499 -0.1150 -0.0848 -0.1583
 2447TIP3    H128832   4.692   4.178  13.477 -1.9517  0.6080 -0.3783
 2447TIP3    H228833   4.704   4.068  13.580 -0.9829  1.9822  1.0262
 2448TIP3   OH228834   0.814   4.578   3.061  0.2241  0.7527  0.0192
 2448TIP3    H128835   0.779   4.643   3.123  1.1974  0.9031  0.4266
 2448TIP3    H228836   0.817   4.625   2.977 -1.2092  0.5109 -0.1993
 2449TIP3   OH228837   4.692   4.779   4.923  0.1725 -0.4837 -0.1683
 2449TIP3    H128838   4.677   4.798   4.830  1.2837 -0.9411 -0.4553
 2449TIP3    H228839   4.774   4.730   4.925  0.5324  0.1166  1.1250
 2450TIP3   OH228840   1.184   2.287   3.509 -0.2851  0.0994 -0.7889
 2450TIP3    H128841   1.215   2.203   3.476 -1.3531 -0.6763  0.0954
 2450TIP3    H228842   1.247   2.351   3.476  2.4326 -1.3920  1.1856
 2451TIP3   OH228843   4.237   2.429  12.876 -0.1143 -0.3290  0.7393
 2451TIP3    H128844   4.294   2.499  12.844  0.3225 -1.5776 -1.4082
 2451TIP3    H228845   4.160   2.474  12.909  0.9481  1.2537  1.1861
 2452TIP3   OH228846   0.171   6.681   0.006  0.5478 -0.2028 -0.0328
 2452TIP3    H128847   0.111   6.756   0.005 -0.5360 -0.9863  1.5669
 2452TIP3    H228848   0.225   6.693  -0.072 -2.3004  0.0760 -2.1716
 2453TIP3   OH228849   6.736   3.677  16.586  0.4858 -0.1272  0.1678
 2453TIP3    H128850   6.718   3.765  16.619 -1.3784 -0.9211  1.4478
 2453TIP3    H228851   6.812   3.688  16.529  0.9329  2.1245  1.0853
 2454TIP3   OH228852   6.217   1.524   0.299  0.3290  0.0371 -0.1083
 2454TIP3    H128853   6.171   1.442   0.285  1.0254 -0.2725 -0.6084
 2454TIP3    H228854   6.308   1.499   0.315  0.3495  0.6430  0.8168
 2455TIP3   OH228855   0.188   4.015  12.438 -0.2783 -0.5947 -0.4035
 2455TIP3    H128856   0.212   3.989  12.527  0.5419  1.6908  0.1333
 2455TIP3    H228857   0.097   4.044  12.445 -0.0244  0.1679 -0.1364
 2456TIP3   OH228858   6.118   0.484  14.168 -0.0887  0.0493 -0.2828
 2456TIP3    H128859   6.089   0.476  14.259  1.5125  1.3115  0.3732
 2456TIP3    H228860   6.139   0.576  14.157 -1.1357  0.1090 -2.2484
 2457TIP3   OH228861   1.859   4.710  12.718 -0.3274  0.6246  0.0435
 2457TIP3    H128862   1.775   4.691  12.760  0.0180  0.1240  0.5205
 2457TIP3    H228863   1.923   4.706  12.789 -0.0231  2.0489 -0.1150
 2458TIP3   OH228864   5.762   1.173  11.788 -0.2069  0.3176 -0.3223
 2458TIP3    H128865   5.806   1.127  11.717 -0.8915  0.0768 -0.6010
 2458TIP3    H228866   5.692   1.223  11.745  0.7580  1.9372 -0.0662
 2459TIP3   OH228867   4.789   4.664   0.202 -0.2237  0.8096  0.7931
 2459TIP3    H128868   4.839   4.588   0.233  0.9166  0.5658 -1.4002
 2459TIP3    H228869   4.700   4.648   0.232 -0.1033 -1.6645  0.0704
 2460TIP3   OH228870   2.301   3.679   2.478  0.4293  0.4343 -0.8041
 2460TIP3    H128871   2.328   3.735   2.551 -1.8475 -0.4971  0.8868
 2460TIP3    H228872   2.239   3.731   2.428 -0.8392 -0.1075  0.1326
 2461TIP3   OH228873   4.123   3.230  12.602 -0.7011  0.6393  0.2130
 2461TIP3    H128874   4.099   3.245  12.511 -0.8075  2.6124  0.5209
 2461TIP3    H228875   4.213   3.198  12.599 -1.1030 -0.4541 -0.6237
 2462TIP3   OH228876   4.398   2.293  11.872  0.3706  0.4668  0.5762
 2462TIP3    H128877   4.316   2.286  11.824  0.6790  0.4645  0.0431
 2462TIP3    H228878   4.437   2.206  11.868  0.6671  0.6088  0.3427
 2463TIP3   OH228879   4.860   2.190  14.336  0.1254  0.0303 -0.4350
 2463TIP3    H128880   4.893   2.243  14.264  0.1376  0.1109 -0.3700
 2463TIP3    H228881   4.908   2.108  14.330 -1.1137 -0.6549 -1.5959
 2464TIP3   OH228882   6.762   2.989   4.239  0.9177 -0.3244  0.2398
 2464TIP3    H128883   6.730   2.960   4.324  1.1520  0.1913  0.5105
 2464TIP3    H228884   6.783   3.082   4.252  1.5546 -0.3990 -0.1980
 2465TIP3   OH228885   2.415   2.819   1.235  0.2393  0.3283  0.1086
 2465TIP3    H128886   2.442   2.742   1.185 -2.6171 -1.2297  0.7243
 2465TIP3    H228887   2.389   2.883   1.169  0.4187 -0.1333 -0.4177
 2466TIP3   OH228888   3.223   2.013   2.179  0.6449  0.0565  0.2089
 2466TIP3    H128889   3.269   2.076   2.124  1.4538  0.2043  1.0302
 2466TIP3    H228890   3.245   1.928   2.141 -1.1486  0.2410 -1.4395
 2467TIP3   OH228891   2.884   1.403   5.559 -0.3445  0.5873  0.0507
 2467TIP3    H128892   2.882   1.309   5.579  2.9781  0.3444 -0.1108
 2467TIP3    H228893   2.877   1.407   5.464 -1.0491  0.5601  0.0984
 2468TIP3   OH228894   4.606   1.222   4.757 -0.2573  0.0226 -1.1722
 2468TIP3    H128895   4.639   1.157   4.695  1.0386 -1.9230  1.3415
 2468TIP3    H228896   4.677   1.287   4.763  0.7369 -1.1010 -0.0183
 2469TIP3   OH228897   0.409   0.153   3.989  0.3340  0.4047 -0.7475
 2469TIP3    H128898   0.411   0.117   3.900 -2.9309 -0.0557 -0.7750
 2469TIP3    H228899   0.459   0.091   4.042  0.2186 -0.6754 -1.8621
 2470TIP3   OH228900   0.766   4.782  17.000 -0.1776  0.6497 -0.1695
 2470TIP3    H128901   0.735   4.691  17.006 -0.7679  0.9314  1.8126
 2470TIP3    H228902   0.859   4.777  17.022 -0.1691  0.4897 -0.2406
 2471TIP3   OH228903   3.009   3.565   0.317 -0.3551  0.0518  0.1053
 2471TIP3    H128904   2.937   3.559   0.254 -0.8576 -1.7081  0.7979
 2471TIP3    H228905   3.016   3.477   0.354  1.0187  0.6386  1.3218
 2472TIP3   OH228906   3.241   2.542  16.382 -0.5700 -0.2126 -0.0931
 2472TIP3    H128907   3.323   2.581  16.351 -0.5145  0.5590  0.9739
 2472TIP3    H228908   3.201   2.611  16.435 -2.6545 -0.0216 -1.8061
 2473TIP3   OH228909   5.578   5.748  17.177 -0.0338  0.1517  0.1146
 2473TIP3    H128910   5.525   5.672  17.151 -0.0652 -0.0821  0.8291
 2473TIP3    H228911   5.539   5.822  17.131 -0.4236 -0.1646 -0.0665
 2474TIP3   OH228912   4.493   6.399   2.689  0.1998  0.8465  0.3903
 2474TIP3    H128913   4.553   6.462   2.649 -1.0949  1.7891 -0.1297
 2474TIP3    H228914   4.461   6.443   2.767  0.2274  0.3232  0.6988
 2475TIP3   OH228915   2.621   0.936   5.775 -0.9801  0.4954 -0.3412
 2475TIP3    H128916   2.656   0.850   5.753 -0.8372  0.6726 -0.8224
 2475TIP3    H228917   2.528   0.931   5.754 -0.7860  0.7620 -1.3086
 2476TIP3   OH228918   3.548   4.446   4.327 -0.1393  0.2413 -0.2027
 2476TIP3    H128919   3.468   4.398   4.346 -0.1049  0.7683  1.4027
 2476TIP3    H228920   3.595   4.448   4.410  0.3409  2.1359 -0.4744
 2477TIP3   OH228921   3.645   0.550  14.941  0.2428  0.3557  0.2123
 2477TIP3    H128922   3.676   0.464  14.914  2.5523  0.6921  1.5760
 2477TIP3    H228923   3.589   0.579  14.868  1.0454 -1.4160 -1.1865
 2478TIP3   OH228924   3.370   0.376   0.580 -0.9926  0.4432  0.4615
 2478TIP3    H128925   3.437   0.313   0.554 -1.0614  0.7593 -0.5398
 2478TIP3    H228926   3.295   0.357   0.523 -1.6325  0.3311  1.3200
 2479TIP3   OH228927   4.560   5.488  15.282  0.3306 -0.1953  0.5205
 2479TIP3    H128928   4.527   5.566  15.327 -0.4795  0.4874 -1.1845
 2479TIP3    H228929   4.553   5.509  15.189  1.9190 -1.5800  0.0493
 2480TIP3   OH228930   5.936   5.521  14.546 -0.1213 -0.1210 -0.3465
 2480TIP3    H128931   5.980   5.606  14.547 -0.4408  0.0411  0.7655
 2480TIP3    H228932   5.972   5.474  14.622 -0.3619 -0.7642 -0.6237
 2481TIP3   OH228933   1.997   0.806   3.663  0.1087 -0.3643 -0.5748
 2481TIP3    H128934   1.904   0.785   3.673  0.0176  0.1455 -0.3360
 2481TIP3    H228935   1.998   0.895   3.627  0.5025 -0.3029 -0.4178
 2482TIP3   OH228936   0.838   5.897   4.633  0.0082  0.0997 -0.2580
 2482TIP3    H128937   0.854   5.986   4.601  0.8295  0.0512  0.0095
 2482TIP3    H228938   0.785   5.910   4.712  1.2297  0.4471  0.5393
 2483TIP3   OH228939   5.810   1.006  12.370 -0.1116  0.2741 -0.2033
 2483TIP3    H128940   5.832   1.096  12.394 -2.8816  1.5548 -2.0615
 2483TIP3    H228941   5.723   0.991  12.408  0.5608 -1.9448  0.6786
 2484TIP3   OH228942   3.779   5.060  11.586  0.0688  0.3275 -0.7399
 2484TIP3    H128943   3.843   5.095  11.648  0.9979 -3.9004  1.0172
 2484TIP3    H228944   3.832   5.032  11.511 -0.1119 -0.4575 -0.5804
 2485TIP3   OH228945   1.048   4.149  15.424  0.0886 -0.0728  0.3662
 2485TIP3    H128946   0.988   4.174  15.354  0.1387  0.6614  0.5800
 2485TIP3    H228947   1.001   4.083  15.474 -0.7981  0.9429  0.9048
 2486TIP3   OH228948   3.480   4.899   4.864 -0.7077  0.4747  0.7284
 2486TIP3    H128949   3.498   4.952   4.941  1.3576  0.6323  0.1998
 2486TIP3    H228950   3.452   4.814   4.898 -2.5612  1.3590  1.5821
 2487TIP3   OH228951   2.490   0.599   3.028 -0.0259 -0.1025 -0.5271
 2487TIP3    H128952   2.413   0.588   2.971  0.9279  1.6648 -2.2767
 2487TIP3    H228953   2.565   0.580   2.972  0.9511  1.5316  0.1434
 2488TIP3   OH228954   6.596   4.182   4.301 -0.2896 -0.0213 -0.5393
 2488TIP3    H128955   6.663   4.119   4.274  2.4332  2.5828 -0.4025
 2488TIP3    H228956   6.583   4.238   4.224  0.4193  1.6429  0.4890
 2489TIP3   OH228957   4.914   1.172  14.596 -0.7386 -0.1686  0.5864
 2489TIP3    H128958   4.827   1.200  14.626 -0.7848 -1.4863  1.7637
 2489TIP3    H228959   4.968   1.174  14.675 -0.5744 -2.6442  0.5904
 2490TIP3   OH228960   6.194   6.406  11.837  0.0594  0.2224 -0.9039
 2490TIP3    H128961   6.201   6.344  11.764  0.0104 -0.6320 -0.2128
 2490TIP3    H228962   6.141   6.478  11.803 -1.5321 -1.0112 -1.1760
 2491TIP3   OH228963   4.339   5.718   6.449  0.2873 -0.1642  0.4054
 2491TIP3    H128964   4.249   5.732   6.419  0.1069 -1.5772  0.2022
 2491TIP3    H228965   4.336   5.736   6.543 -1.0794 -3.5136  1.1432
 2492TIP3   OH228966   6.463   0.593   1.314 -0.0287  0.5540  0.7392
 2492TIP3    H128967   6.475   0.659   1.382 -0.8861  1.2185  0.2730
 2492TIP3    H228968   6.427   0.641   1.239 -0.5321 -0.4048  0.3316
 2493TIP3   OH228969   5.112   0.656   3.075 -0.0208 -0.6462  0.2235
 2493TIP3    H128970   5.088   0.682   3.164  0.2287 -2.8556  1.0002
 2493TIP3    H228971   5.031   0.667   3.025 -0.8294 -1.5843  1.2662
 2494TIP3   OH228972   3.581   6.238  17.181 -0.5130 -0.2263  0.8239
 2494TIP3    H128973   3.594   6.195  17.265  0.4118 -2.0354 -0.1745
 2494TIP3    H228974   3.660   6.217  17.131 -0.0002  2.6948  0.2457
 2495TIP3   OH228975   3.745   6.567  13.391 -0.5580 -0.4016  0.2578
 2495TIP3    H128976   3.698   6.636  13.437 -0.4878 -1.1622  1.4914
 2495TIP3    H228977   3.785   6.612  13.316 -2.3631  0.4554 -0.2583
 2496TIP3   OH228978   5.403   1.166  14.416  0.2086  0.3174  0.3583
 2496TIP3    H128979   5.324   1.190  14.366 -0.2930 -2.3855 -0.2736
 2496TIP3    H228980   5.472   1.162  14.350  0.1172 -0.6530  0.3107
 2497TIP3   OH228981   4.685   3.948  14.595 -0.5080 -0.2333 -0.5880
 2497TIP3    H128982   4.611   3.934  14.536 -2.0091 -1.0982  1.3393
 2497TIP3    H228983   4.648   4.002  14.666  1.0448  0.2743 -0.1345
 2498TIP3   OH228984   2.938   4.532   4.919 -0.0995  0.1648 -0.1467
 2498TIP3    H128985   2.958   4.561   5.008  0.2657  0.7236 -0.4029
 2498TIP3    H228986   2.989   4.452   4.908 -0.8424 -0.4048  0.4471
 2499TIP3   OH228987   0.603   5.617  15.710 -0.1829 -0.6473 -0.2374
 2499TIP3    H128988   0.676   5.649  15.764 -2.6525  3.5475  1.0817
 2499TIP3    H228989   0.551   5.563  15.770 -0.1890 -0.3264  0.0535
 2500TIP3   OH228990   2.267   2.784  12.671 -0.5004  0.2476 -0.4614
 2500TIP3    H128991   2.261   2.879  12.669  0.0981  0.4130  2.0452
 2500TIP3    H228992   2.220   2.758  12.750  1.6029 -1.2389  0.4171
 2501TIP3   OH228993   1.230   5.702  10.941 -0.4166 -0.2441 -0.3882
 2501TIP3    H128994   1.320   5.694  10.970 -0.4415 -3.4276 -0.7910
 2501TIP3    H228995   1.237   5.723  10.847 -0.0828 -0.8565 -0.5017
 2502TIP3   OH228996   0.936   4.722  10.755  0.0140 -0.4780  0.4539
 2502TIP3    H128997   0.974   4.739  10.841  1.3774 -0.0368 -0.2075
 2502TIP3    H228998   0.983   4.780  10.695 -1.1501 -0.5155 -0.5473
 2503TIP3   OH228999   5.223   6.744  14.496  0.7365 -0.1994 -0.1803
 2503TIP3    H129000   5.197   6.808  14.429  3.0421 -0.1811 -1.1361
 2503TIP3    H229001   5.181   6.775  14.576  0.4654  1.5860 -0.9587
 2504TIP3   OH229002   5.459   3.667  14.323  0.0976  0.1846  0.8040
 2504TIP3    H129003   5.434   3.751  14.362  2.5909  1.8979 -1.0426
 2504TIP3    H229004   5.538   3.641  14.370  1.3702  0.7245 -0.9481
 2505TIP3   OH229005   5.840   4.214   1.971  0.5523  0.0057  0.1212
 2505TIP3    H129006   5.893   4.194   2.049  0.1708 -0.4825  0.2626
 2505TIP3    H229007   5.900   4.261   1.913  0.8989  0.2019  0.6281
 2506TIP3   OH229008   2.741   2.965  12.571  0.3053 -0.1584 -0.0710
 2506TIP3    H129009   2.682   2.903  12.613  1.8917 -0.6913  1.5180
 2506TIP3    H229010   2.828   2.943  12.606  1.0622  2.3616 -0.1406
 2507TIP3   OH229011   5.119   4.991   3.351 -0.5569 -0.3032 -0.0736
 2507TIP3    H129012   5.102   5.041   3.431  0.4993  1.2213 -0.7365
 2507TIP3    H229013   5.209   4.959   3.361 -0.5979 -0.5397 -0.4242
 2508TIP3   OH229014   1.204   3.561   2.741 -0.4371  0.4456 -0.6797
 2508TIP3    H129015   1.213   3.654   2.723  2.3748  0.4196  0.0784
 2508TIP3    H229016   1.144   3.529   2.673 -0.7710  2.6227 -1.4946
 2509TIP3   OH229017   2.538   0.274   5.536  0.3188 -0.0730 -0.5842
 2509TIP3    H129018   2.527   0.302   5.446 -2.5324 -0.8144 -0.5583
 2509TIP3    H229019   2.609   0.328   5.570  1.1343  0.5397 -3.1038
 2510TIP3   OH229020   6.230   4.876  12.105 -0.2311  0.2164 -0.6086
 2510TIP3    H129021   6.232   4.801  12.164 -1.8505 -0.8604 -1.8243
 2510TIP3    H229022   6.138   4.885  12.081 -0.4332  3.6995  0.8025
 2511TIP3   OH229023   4.745   1.225  16.549 -0.0450 -0.0831 -0.7649
 2511TIP3    H129024   4.811   1.267  16.604 -0.8987 -0.4894  0.6254
 2511TIP3    H229025   4.735   1.284  16.474  1.6047  0.1656 -0.8295
 2512TIP3   OH229026   5.732   2.675  10.448 -0.4993 -0.2507 -0.6019
 2512TIP3    H129027   5.814   2.725  10.449  0.0212 -1.0894 -0.6507
 2512TIP3    H229028   5.664   2.742  10.456  0.0896  0.6599 -2.4846
 2513TIP3   OH229029   6.336   0.319   0.653 -0.2947  0.1198  0.3366
 2513TIP3    H129030   6.373   0.251   0.709  1.1855 -0.2214 -0.9992
 2513TIP3    H229031   6.281   0.271   0.591 -0.3843  0.2934  0.2813
 2514TIP3   OH229032   6.198   5.403  14.962 -0.0778  0.0646 -0.3621
 2514TIP3    H129033   6.201   5.491  14.925 -0.4192  0.3073  0.1831
 2514TIP3    H229034   6.186   5.416  15.056 -1.9396 -0.5791 -0.4802
 2515TIP3   OH229035   1.682   2.257   4.298 -0.6259 -0.4080 -0.5465
 2515TIP3    H129036   1.750   2.320   4.321 -1.3578  0.9650 -1.9876
 2515TIP3    H229037   1.672   2.202   4.376  2.3518 -0.8919 -0.3994
 2516TIP3   OH229038   6.305   1.906   4.528  0.3017 -0.2575 -0.5510
 2516TIP3    H129039   6.285   1.994   4.560 -1.7682 -0.2473 -1.6774
 2516TIP3    H229040   6.303   1.914   4.433  2.8766 -0.9983 -0.7375
 2517TIP3   OH229041   2.915   0.817   5.922  0.0196  1.1783  0.1214
 2517TIP3    H129042   2.977   0.887   5.941 -0.3228  1.6992 -0.6175
 2517TIP3    H229043   2.864   0.850   5.848 -0.7665  0.5286  0.3582
 2518TIP3   OH229044   1.240   0.815  17.158  0.4155 -0.2366 -0.5381
 2518TIP3    H129045   1.246   0.786  17.067 -0.8568 -0.6401 -0.5142
 2518TIP3    H229046   1.228   0.910  17.153  2.3779  0.0510 -0.6906
 2519TIP3   OH229047   5.752   3.841  11.724 -0.4284  0.0764 -0.3026
 2519TIP3    H129048   5.764   3.820  11.816 -1.0280  0.4198 -0.1409
 2519TIP3    H229049   5.663   3.876  11.719 -0.8359 -1.0312 -1.1978
 2520TIP3   OH229050   4.887   1.730  12.237  0.1761  0.1670  0.1020
 2520TIP3    H129051   4.841   1.800  12.191 -2.3766 -0.9990  0.6755
 2520TIP3    H229052   4.930   1.680  12.167 -1.9256 -0.3865 -0.9013
 2521TIP3   OH229053   4.490   5.490   1.726 -0.1599 -0.4856  0.5786
 2521TIP3    H129054   4.562   5.455   1.779  1.5989  0.2265 -1.2208
 2521TIP3    H229055   4.444   5.412   1.694  0.4210 -0.9814  0.9394
 2522TIP3   OH229056   0.631   2.564   2.462 -0.2629 -0.2462  0.0635
 2522TIP3    H129057   0.537   2.550   2.450 -0.2765  0.8368 -1.4786
 2522TIP3    H229058   0.641   2.660   2.460  0.9973 -0.3731 -1.0441
 2523TIP3   OH229059   5.945   4.004   3.651  0.1403  0.0938 -0.0112
 2523TIP3    H129060   5.909   4.075   3.598 -0.9722 -1.1163 -0.9475
 2523TIP3    H229061   6.006   3.959   3.593  1.0305  0.4056  0.6553
 2524TIP3   OH229062   2.121   0.882  15.236 -0.2477  0.0236 -0.0344
 2524TIP3    H129063   2.126   0.790  15.263  0.9753  0.2420  0.5462
 2524TIP3    H229064   2.039   0.914  15.273 -0.2820 -0.6157  0.4507
 2525TIP3   OH229065   0.277   4.020  15.561 -0.1846 -0.6937  0.6430
 2525TIP3    H129066   0.308   3.935  15.594  0.6282 -0.6629 -0.0084
 2525TIP3    H229067   0.266   4.073  15.640  0.6149 -0.9842  0.9654
 2526TIP3   OH229068   5.100   3.593   6.243 -0.1183  0.3090 -0.1300
 2526TIP3    H129069   5.083   3.517   6.299 -1.2319 -0.2907 -1.2296
 2526TIP3    H229070   5.019   3.643   6.244  0.0609  0.6274 -0.6840
 2527TIP3   OH229071   3.948   4.136  11.677  0.0930 -0.3601 -0.2056
 2527TIP3    H129072   4.012   4.110  11.611  0.8996 -0.1339  0.4687
 2527TIP3    H229073   3.989   4.209  11.724 -1.1892  0.6285 -0.5706
 2528TIP3   OH229074   3.828   1.040   5.724 -0.3611  0.9274 -0.5955
 2528TIP3    H129075   3.829   0.976   5.796 -2.0784 -0.1046 -1.4252
 2528TIP3    H229076   3.833   1.125   5.767 -0.0433  0.2979  0.6620
 2529TIP3   OH229077   2.788   3.990   0.349 -0.1345  0.5813 -0.0288
 2529TIP3    H129078   2.884   3.988   0.348 -0.1399 -0.2896 -1.3098
 2529TIP3    H229079   2.765   4.077   0.318  0.2169  1.5618  2.2980
 2530TIP3   OH229080   0.716   3.743  15.601 -0.4613  0.4001  0.2807
 2530TIP3    H129081   0.805   3.752  15.637  0.2682 -2.3795 -0.5330
 2530TIP3    H229082   0.660   3.783  15.667  1.2889  0.8867  1.5726
 2531TIP3   OH229083   2.359   4.221  12.189 -0.0455  0.8652  0.0562
 2531TIP3    H129084   2.367   4.213  12.094 -0.2115  2.1565 -0.0858
 2531TIP3    H229085   2.436   4.176  12.223 -0.1823  0.0683 -0.6708
 2532TIP3   OH229086   5.389   2.101  11.955  0.0534  0.7936 -0.4096
 2532TIP3    H129087   5.334   2.049  12.013  0.7664 -0.2136 -0.5888
 2532TIP3    H229088   5.477   2.095  11.995  0.3701  0.8488 -1.0888
 2533TIP3   OH229089   0.188   1.401   4.739  0.0896  0.4199  0.1720
 2533TIP3    H129090   0.273   1.423   4.701 -0.5579  0.0204 -1.5867
 2533TIP3    H229091   0.133   1.477   4.721 -0.3925 -0.0174 -0.2159
 2534TIP3   OH229092   2.648   2.911  13.256  0.1925  0.0102  0.1477
 2534TIP3    H129093   2.671   2.819  13.256  0.9811  0.1906  1.2167
 2534TIP3    H229094   2.662   2.939  13.165 -0.9036 -1.0915 -0.4000
 2535TIP3   OH229095   2.914   3.568  17.029 -0.2845 -0.1167 -0.5469
 2535TIP3    H129096   2.976   3.633  17.061  0.2674 -0.1043 -1.6172
 2535TIP3    H229097   2.964   3.486  17.024 -0.4291 -0.1730 -1.1386
 2536TIP3   OH229098   5.264   5.318  14.896  0.1980 -0.7224 -0.4377
 2536TIP3    H129099   5.290   5.381  14.829 -1.8488  2.0637  1.1306
 2536TIP3    H229100   5.207   5.256  14.851  0.0745  0.1840 -1.5682
 2537TIP3   OH229101   1.849   1.424  10.954  0.0616 -0.8629  0.4184
 2537TIP3    H129102   1.888   1.363  11.017 -0.1824 -0.8826  0.5507
 2537TIP3    H229103   1.910   1.497  10.951 -0.5021 -0.3085  1.5769
 2538TIP3   OH229104   4.326   4.716  14.296  0.5916  0.0790  0.3271
 2538TIP3    H129105   4.416   4.736  14.324  1.0914 -0.9000 -0.4890
 2538TIP3    H229106   4.292   4.659  14.366  0.2039  1.3000  1.1704
 2539TIP3   OH229107   4.458   0.587  12.112  0.2069  0.1572  0.5844
 2539TIP3    H129108   4.511   0.660  12.144  3.2669 -1.6221 -0.0001
 2539TIP3    H229109   4.419   0.550  12.191  2.3847 -0.2566  1.5495
 2540TIP3   OH229110   6.570   3.409   5.232  0.3047  0.2671  0.0419
 2540TIP3    H129111   6.525   3.458   5.164  1.5316 -0.1356 -1.0860
 2540TIP3    H229112   6.593   3.325   5.191 -0.5921 -0.7665  1.5254
 2541TIP3   OH229113   2.451   6.114   5.160  0.0965  0.0785 -0.6550
 2541TIP3    H129114   2.396   6.088   5.234 -1.7725 -0.8837 -2.3331
 2541TIP3    H229115   2.455   6.210   5.167 -3.2919  0.3974 -1.4159
 2542TIP3   OH229116   4.614   5.383   2.336 -0.4623  0.4771  0.5655
 2542TIP3    H129117   4.659   5.325   2.275 -1.7938 -0.0300  0.0274
 2542TIP3    H229118   4.522   5.378   2.311 -0.5064  4.2159 -0.6803
 2543TIP3   OH229119   3.675   1.099   2.112  0.2331 -0.2542 -0.3290
 2543TIP3    H129120   3.669   1.004   2.104  0.4710 -0.3460  0.4506
 2543TIP3    H229121   3.763   1.114   2.147  0.1468  0.2427 -0.3215
 2544TIP3   OH229122   4.744   4.726   3.192  0.8636 -0.5449  0.1669
 2544TIP3    H129123   4.776   4.640   3.164 -1.0161 -0.8869 -1.1506
 2544TIP3    H229124   4.659   4.735   3.149  0.0524  1.0884  1.9472
 2545TIP3   OH229125   6.119   6.008  15.208  0.6095  0.0960 -0.1518
 2545TIP3    H129126   6.190   5.997  15.144  1.0140  0.8985  0.1405
 2545TIP3    H229127   6.074   6.088  15.179  0.9951  0.6509  0.7311
 2546TIP3   OH229128   4.272   6.385  15.969 -0.4315 -0.0492 -0.2505
 2546TIP3    H129129   4.203   6.323  15.945 -0.7331  0.3447 -0.4095
 2546TIP3    H229130   4.347   6.330  15.990 -0.4447 -0.4411 -1.1918
 2547TIP3   OH229131   5.493   1.160   2.051 -0.6490 -0.5772 -0.0693
 2547TIP3    H129132   5.543   1.118   2.121 -0.8805 -2.2932 -0.8854
 2547TIP3    H229133   5.450   1.234   2.094  0.2910 -0.7640  1.2833
 2548TIP3   OH229134   5.006   6.625   2.321  0.0549  0.0259  0.0371
 2548TIP3    H129135   5.001   6.710   2.278 -1.6751  0.8391  1.7198
 2548TIP3    H229136   5.082   6.632   2.378  0.7804 -0.1156 -0.8808
 2549TIP3   OH229137   5.702   0.458   1.782 -0.0476  0.2151 -0.0823
 2549TIP3    H129138   5.775   0.396   1.786  0.0573  0.2704 -0.8550
 2549TIP3    H229139   5.656   0.435   1.701 -0.3910  0.7255 -0.0386
 2550TIP3   OH229140   2.867   1.045   3.013  0.0748  0.1636 -0.3800
 2550TIP3    H129141   2.832   1.000   2.936 -1.1756 -0.1891  0.3565
 2550TIP3    H229142   2.892   1.132   2.982 -0.5169  0.0617 -1.1611
 2551TIP3   OH229143   0.185   5.024  15.085  0.0297  0.7944  0.9596
 2551TIP3    H129144   0.192   5.112  15.121 -0.8741  0.9349  0.8121
 2551TIP3    H229145   0.145   5.035  15.000  0.1807  0.2608  0.8122
 2552TIP3   OH229146   2.984   1.078   3.334 -0.0922 -0.2988  0.7498
 2552TIP3    H129147   2.914   1.014   3.326  0.2909 -0.6765  0.4138
 2552TIP3    H229148   2.945   1.160   3.303 -0.0446 -0.7492 -0.5433
 2553TIP3   OH229149   2.488   6.548  13.911 -0.2137 -0.4121 -0.4849
 2553TIP3    H129150   2.505   6.545  14.005  1.8795  0.6231 -0.7703
 2553TIP3    H229151   2.467   6.640  13.893 -1.0063 -0.6824 -0.9789
 2554TIP3   OH229152   0.675   0.730   0.901  0.0989 -0.2656 -0.0004
 2554TIP3    H129153   0.717   0.796   0.956 -1.2854 -0.0599  0.8672
 2554TIP3    H229154   0.682   0.764   0.812 -0.2565  0.8885  0.3947
 2555TIP3   OH229155   1.527   4.448  14.114  0.4152  0.1084 -0.3254
 2555TIP3    H129156   1.516   4.538  14.085  1.5077 -0.0368 -1.2967
 2555TIP3    H229157   1.475   4.441  14.194 -2.2386  0.7257 -1.8681
 2556TIP3   OH229158   6.143   0.761   1.598  0.2188 -0.2620 -0.3704
 2556TIP3    H129159   6.095   0.827   1.649  0.0396  0.2289 -1.1675
 2556TIP3    H229160   6.100   0.678   1.621  1.8414 -0.4620  2.3521
 2557TIP3   OH229161   0.665   6.190  16.239 -0.7644  0.2155 -0.3159
 2557TIP3    H129162   0.572   6.173  16.224 -0.6724  0.0791 -0.7608
 2557TIP3    H229163   0.673   6.195  16.334 -0.7267 -2.7303 -0.0701
 2558TIP3   OH229164   1.185   0.881  14.341  0.0781 -0.1548 -0.7578
 2558TIP3    H129165   1.221   0.964  14.310  1.0438 -1.2467 -2.7203
 2558TIP3    H229166   1.208   0.818  14.273 -1.1686 -1.9248  0.3858
 2559TIP3   OH229167   6.318   4.366  16.527  0.4976 -0.4731 -0.2598
 2559TIP3    H129168   6.370   4.404  16.598  0.6886  0.7324 -1.0167
 2559TIP3    H229169   6.233   4.410  16.533 -0.5757 -2.5805  1.1028
 2560TIP3   OH229170   6.347   0.794  12.816 -0.6067  0.1175  0.1338
 2560TIP3    H129171   6.403   0.842  12.755 -0.8131 -0.3720 -0.4472
 2560TIP3    H229172   6.392   0.711  12.830 -1.3354 -0.4101 -0.5865
 2561TIP3   OH229173   2.799   4.137  11.622 -0.5977  0.2788  0.3494
 2561TIP3    H129174   2.868   4.141  11.557 -0.5049  0.7688  0.4774
 2561TIP3    H229175   2.785   4.043  11.636 -1.2675  0.1441 -1.0568
 2562TIP3   OH229176   4.740   4.498  16.563 -0.4775 -0.8254  0.0257
 2562TIP3    H129177   4.775   4.447  16.490  2.8032  1.1135  0.0664
 2562TIP3    H229178   4.759   4.445  16.640  1.3143 -0.4011 -0.0830
 2563TIP3   OH229179   5.742   5.080  11.445 -0.3276 -0.3868 -0.0938
 2563TIP3    H129180   5.795   5.156  11.472  1.7149 -1.3191 -1.2334
 2563TIP3    H229181   5.658   5.118  11.421  0.0311  1.2824  1.0307
 2564TIP3   OH229182   2.168   2.274  14.407 -0.0556  0.1762 -0.0245
 2564TIP3    H129183   2.149   2.221  14.331  2.3521  0.0792 -0.6288
 2564TIP3    H229184   2.173   2.364  14.373 -0.9063  0.3940  0.3996
 2565TIP3   OH229185   0.941   2.606   1.139  0.4299  0.6124 -0.1390
 2565TIP3    H129186   0.981   2.587   1.054  0.5472  0.6652 -0.0971
 2565TIP3    H229187   1.016   2.625   1.196  0.3813  0.1043  0.0969
 2566TIP3   OH229188   5.143   5.105   1.801 -0.4189  0.2289  0.4645
 2566TIP3    H129189   5.089   5.077   1.727 -0.2085 -1.6449  0.9799
 2566TIP3    H229190   5.192   5.180   1.767 -1.1682  0.1276 -0.9261
 2567TIP3   OH229191   6.346   4.089  16.793 -0.2285 -0.0012  0.1942
 2567TIP3    H129192   6.385   4.072  16.878 -0.9551  0.4926  0.6364
 2567TIP3    H229193   6.321   4.003  16.760  0.6034 -0.2537  0.1978
 2568TIP3   OH229194   4.523   0.507   1.223 -0.1143  0.1273 -0.1535
 2568TIP3    H129195   4.600   0.542   1.268 -0.6097  1.0979 -0.0364
 2568TIP3    H229196   4.459   0.492   1.293 -0.7314  1.2187 -0.4643
 2569TIP3   OH229197   1.719   0.199  12.180 -0.0303  0.1480 -0.1987
 2569TIP3    H129198   1.629   0.228  12.162 -1.0131 -2.9693 -0.8888
 2569TIP3    H229199   1.709   0.113  12.220  2.6761  0.0986  0.5878
 2570TIP3   OH229200   3.911   4.952  11.364  0.3807  0.1484 -0.3679
 2570TIP3    H129201   3.999   4.979  11.338  0.2440 -0.1039 -1.1103
 2570TIP3    H229202   3.914   4.856  11.363 -0.0399  0.1353 -0.8942
 2571TIP3   OH229203   3.122   4.423   1.900  0.0417 -0.2246 -0.1328
 2571TIP3    H129204   3.118   4.339   1.855 -0.7163 -1.2660  1.7562
 2571TIP3    H229205   3.066   4.412   1.977 -1.0165  2.4028 -0.4175
 2572TIP3   OH229206   1.969   5.306  16.963 -0.1745  0.4512 -0.1975
 2572TIP3    H129207   1.979   5.395  16.928 -1.3194  0.8333  0.3859
 2572TIP3    H229208   1.922   5.259  16.895  1.4472 -0.0539 -0.9985
 2573TIP3   OH229209   3.581   3.028  13.021 -0.2051 -1.0021 -0.2414
 2573TIP3    H129210   3.558   3.119  13.043  0.0307 -1.2799  1.2267
 2573TIP3    H229211   3.672   3.033  12.991 -0.2033 -0.7486 -0.1995
 2574TIP3   OH229212   3.942   6.691   1.734 -0.2489  0.0958 -0.4199
 2574TIP3    H129213   3.874   6.748   1.697 -0.7465 -0.9474 -1.1835
 2574TIP3    H229214   3.918   6.683   1.826 -0.5770  0.5557 -0.4595
 2575TIP3   OH229215   5.911   6.544  13.089 -0.0413  0.1782  0.4405
 2575TIP3    H129216   5.964   6.477  13.133 -1.7275 -1.2800  0.3676
 2575TIP3    H229217   5.929   6.531  12.996  1.3366  1.3598  0.5125
 2576TIP3   OH229218   0.713   5.474  11.576 -0.4208  0.2424  0.1292
 2576TIP3    H129219   0.669   5.523  11.506 -0.7489  0.6806  0.6356
 2576TIP3    H229220   0.804   5.467  11.547 -0.1845  1.8229  0.4001
 2577TIP3   OH229221   4.940   1.664   5.537 -0.1429 -0.4861 -0.5444
 2577TIP3    H129222   4.942   1.708   5.452 -2.8383 -2.5523 -1.8383
 2577TIP3    H229223   4.850   1.677   5.568  0.1107 -1.7926  0.8548
 2578TIP3   OH229224   0.966   5.805  10.974  0.2216 -0.1772 -0.0987
 2578TIP3    H129225   1.051   5.760  10.978  0.1412 -0.3033  0.2114
 2578TIP3    H229226   0.980   5.886  11.024  0.5155  0.3980 -1.0797
 2579TIP3   OH229227   6.488   0.972   1.473  0.6987 -0.2208  0.1834
 2579TIP3    H129228   6.522   1.051   1.515  1.3408 -0.7655  0.7114
 2579TIP3    H229229   6.510   0.983   1.380  1.1844  0.0130  0.3223
 2580TIP3   OH229230   2.862   6.503   0.980  1.0697  0.0528  0.2222
 2580TIP3    H129231   2.948   6.480   1.015  2.0835  2.2413 -0.6785
 2580TIP3    H229232   2.869   6.486   0.886  0.7480  0.8659  0.0503
 2581TIP3   OH229233   2.098   0.615  15.357  0.4158  0.0368  0.1004
 2581TIP3    H129234   2.074   0.562  15.280 -1.1938  1.0006 -0.1102
 2581TIP3    H229235   2.047   0.577  15.428 -0.1949  0.8247  0.0982
 2582TIP3   OH229236   6.782   2.715   5.877 -0.0210 -0.2746  0.3219
 2582TIP3    H129237   6.857   2.754   5.830 -0.4717  0.2455  0.0171
 2582TIP3    H229238   6.820   2.681   5.958  0.7179 -0.8976 -0.2713
 2583TIP3   OH229239   0.243   5.808   1.558  0.0496 -0.1829  0.1002
 2583TIP3    H129240   0.201   5.722   1.555 -1.2035  0.4315 -0.5735
 2583TIP3    H229241   0.185   5.865   1.508  2.0946  0.5322 -1.6556
 2584TIP3   OH229242   0.812   4.790   4.800 -0.9174 -0.1637  0.2806
 2584TIP3    H129243   0.904   4.814   4.812 -0.4170 -2.4237  1.5215
 2584TIP3    H229244   0.765   4.874   4.799  1.0441  0.9938  0.4941
 2585TIP3   OH229245   1.330   6.195  13.329 -0.1469 -0.1622 -0.9657
 2585TIP3    H129246   1.368   6.219  13.414  3.6752  0.3955 -2.6201
 2585TIP3    H229247   1.328   6.278  13.280 -2.6925 -0.3960 -1.3705
 2586TIP3   OH229248   6.459   4.159  14.935 -0.2683 -0.3094 -0.3868
 2586TIP3    H129249   6.421   4.244  14.960 -1.0221 -0.1545 -1.9181
 2586TIP3    H229250   6.398   4.095  14.971  0.0169 -0.1896  0.3214
 2587TIP3   OH229251   4.238   1.283  12.495 -1.0796 -0.5601 -0.1717
 2587TIP3    H129252   4.316   1.308  12.545  0.0233 -1.2951 -1.4766
 2587TIP3    H229253   4.199   1.366  12.468  0.4808 -0.1754 -1.3390
 2588TIP3   OH229254   3.543   1.340   0.669 -0.1880  0.2179  0.2207
 2588TIP3    H129255   3.486   1.278   0.623  0.5801 -0.5885  0.3382
 2588TIP3    H229256   3.591   1.287   0.733  0.2831  0.9785  0.5220
 2589TIP3   OH229257   1.941   4.361  16.370 -0.7517  0.3690 -0.1917
 2589TIP3    H129258   1.988   4.289  16.412 -0.5026  1.1272  0.8724
 2589TIP3    H229259   1.850   4.332  16.368 -0.9071  0.6308  1.6357
 2590TIP3   OH229260   0.822   2.758  13.354  0.1831 -0.0715  0.1382
 2590TIP3    H129261   0.886   2.802  13.299 -0.4510  0.5783 -0.1052
 2590TIP3    H229262   0.872   2.695  13.406  1.0055  0.4422 -0.0288
 2591TIP3   OH229263   4.781   1.174   4.115  0.0260 -0.1977 -0.5495
 2591TIP3    H129264   4.804   1.082   4.126  1.2023  0.0111 -1.0784
 2591TIP3    H229265   4.722   1.175   4.039 -1.3826 -0.6775  0.4890
 2592TIP3   OH229266   3.217   2.472  12.822  0.2376 -0.8963 -0.4684
 2592TIP3    H129267   3.229   2.499  12.913 -0.7874 -0.9153 -0.3147
 2592TIP3    H229268   3.277   2.398  12.811 -0.2739 -1.4752  0.4712
 2593TIP3   OH229269   0.513   4.905   6.343  0.1896  0.2343  0.2869
 2593TIP3    H129270   0.541   4.994   6.364  0.7178  0.2446 -0.4254
 2593TIP3    H229271   0.588   4.851   6.366 -0.0106  0.0094  0.4102
 2594TIP3   OH229272   1.482   0.447  13.248 -0.3628 -0.0702  0.1620
 2594TIP3    H129273   1.558   0.480  13.200 -0.1988 -1.2382 -0.4102
 2594TIP3    H229274   1.488   0.490  13.333  1.7243 -1.1585  0.6319
 2595TIP3   OH229275   1.741   0.788   0.349  0.1305 -0.2837  0.1919
 2595TIP3    H129276   1.772   0.730   0.280 -1.3113 -0.9134  0.0389
 2595TIP3    H229277   1.799   0.865   0.344  0.6264 -0.7155 -1.0937
 2596TIP3   OH229278   6.293   4.404   1.798  0.0744  0.0095 -0.1289
 2596TIP3    H129279   6.318   4.313   1.815 -0.3909  0.1804  1.7726
 2596TIP3    H229280   6.231   4.425   1.868  0.1076  1.7705 -0.5717
 2597TIP3   OH229281   1.297   0.908  12.385  0.3927 -0.4454 -0.0654
 2597TIP3    H129282   1.261   0.832  12.339  0.7432 -0.4375 -0.3549
 2597TIP3    H229283   1.388   0.912  12.358  0.4986 -0.1932  0.3118
 2598TIP3   OH229284   5.662   0.661   3.084  0.3603  0.2147 -0.2454
 2598TIP3    H129285   5.591   0.683   3.143  1.0817 -2.4613  1.8036
 2598TIP3    H229286   5.733   0.722   3.107 -0.6994  1.9122 -1.2928
 2599TIP3   OH229287   6.350   6.512   5.229  0.3032 -0.3103  0.4993
 2599TIP3    H129288   6.441   6.539   5.233  0.0180  0.5689  2.0109
 2599TIP3    H229289   6.330   6.505   5.136  1.7361  0.0846  0.1459
 2600TIP3   OH229290   4.911   5.909   3.355 -0.5865 -0.2660 -0.3369
 2600TIP3    H129291   4.921   5.916   3.260 -0.5701  1.0054 -0.2539
 2600TIP3    H229292   4.880   5.995   3.383 -1.6014 -0.9376  0.6982
 2601TIP3   OH229293   2.677   3.652  12.787 -0.9163  0.0885 -0.3996
 2601TIP3    H129294   2.751   3.681  12.840 -0.3806 -0.3575 -0.8965
 2601TIP3    H229295   2.658   3.727  12.730 -1.6674  0.6706  0.5837
 2602TIP3   OH229296   2.718   4.478   5.973  0.2120  0.0537  0.3830
 2602TIP3    H129297   2.650   4.454   5.910 -0.9479  1.1276  1.1745
 2602TIP3    H229298   2.695   4.430   6.053  1.2130 -0.6618  0.2778
 2603TIP3   OH229299   5.120   2.894   6.178 -0.0695 -0.4242 -0.2904
 2603TIP3    H129300   5.160   2.923   6.260  0.4893  0.5495 -0.8760
 2603TIP3    H229301   5.048   2.955   6.164 -0.0032 -0.4263 -0.6447
 2604TIP3   OH229302   4.368   4.831  16.769  0.2503 -0.3681  0.2540
 2604TIP3    H129303   4.439   4.767  16.761 -0.0592 -0.5645 -1.2350
 2604TIP3    H229304   4.377   4.886  16.692 -2.5019 -1.7486 -1.2307
 2605TIP3   OH229305   5.423   2.488   3.938  0.1434  0.2357 -0.4907
 2605TIP3    H129306   5.491   2.423   3.957 -0.7375 -0.0652  2.1076
 2605TIP3    H229307   5.345   2.454   3.983 -0.5756  2.6224  0.1975
 2606TIP3   OH229308   3.248   5.544  15.584  0.3796 -0.0709 -0.4829
 2606TIP3    H129309   3.247   5.502  15.498 -0.4445  0.3566 -0.7008
 2606TIP3    H229310   3.340   5.552  15.606  0.5728 -1.1146 -0.8662
 2607TIP3   OH229311   0.196   6.061   5.630  1.0369  0.4566  0.0720
 2607TIP3    H129312   0.191   5.998   5.701  3.2841  0.2166  0.0793
 2607TIP3    H229313   0.106   6.090   5.617  0.4148 -0.3888  2.1881
 2608TIP3   OH229314   1.150   0.347   0.376 -0.2877  0.3904 -0.2239
 2608TIP3    H129315   1.108   0.304   0.302  0.8392  0.3887 -0.8854
 2608TIP3    H229316   1.220   0.288   0.402 -2.7822 -1.3538  3.1876
 2609TIP3   OH229317   4.426   1.370   0.050 -0.3167 -0.2085 -0.7135
 2609TIP3    H129318   4.332   1.369   0.065 -0.1156 -0.5690  0.6205
 2609TIP3    H229319   4.463   1.413   0.127  0.5673  0.5622 -1.5418
 2610TIP3   OH229320   0.933   3.757   3.110 -0.4343 -0.1365  0.4996
 2610TIP3    H129321   0.988   3.828   3.076 -0.2671  0.0199  1.0938
 2610TIP3    H229322   0.988   3.679   3.102 -0.4845 -0.1433  0.1911
 2611TIP3   OH229323   2.171   5.980   3.695  0.3080  0.4163 -0.0423
 2611TIP3    H129324   2.121   6.005   3.617 -1.0855 -1.0291  0.3296
 2611TIP3    H229325   2.221   5.903   3.667  1.1165  0.9024  0.0380
 2612TIP3   OH229326   0.886   2.684   1.464 -0.3311  0.1875 -0.3287
 2612TIP3    H129327   0.974   2.653   1.487 -0.4345  0.8958  1.1587
 2612TIP3    H229328   0.880   2.671   1.370  0.9233 -0.9909 -0.2803
 2613TIP3   OH229329   1.839   3.759   3.895 -0.0859 -0.2000 -0.0727
 2613TIP3    H129330   1.803   3.671   3.898 -0.0887 -0.2468 -1.2778
 2613TIP3    H229331   1.930   3.749   3.921  0.5487 -0.9281 -2.3905
 2614TIP3   OH229332   6.171   6.268   0.490 -0.0855 -0.2476 -0.3034
 2614TIP3    H129333   6.144   6.326   0.419  2.2042 -0.1230 -1.1800
 2614TIP3    H229334   6.133   6.183   0.469 -3.6958  0.8404  1.1221
 2615TIP3   OH229335   5.348   0.057   2.650  0.1778  0.4266  0.6898
 2615TIP3    H129336   5.292   0.124   2.690 -1.1480 -0.7187  0.8543
 2615TIP3    H229337   5.390   0.102   2.576 -0.4601  1.5037  0.9548
 2616TIP3   OH229338   4.387   1.685  12.598  0.0516  0.1716  0.6474
 2616TIP3    H129339   4.360   1.631  12.524  1.7441  0.0058  0.1174
 2616TIP3    H229340   4.455   1.743  12.563  2.5130 -1.4130  2.4644
 2617TIP3   OH229341   6.173   2.348  13.518 -0.4750 -0.0448  0.3077
 2617TIP3    H129342   6.135   2.404  13.450  0.7081 -0.4684 -0.7268
 2617TIP3    H229343   6.098   2.319  13.570 -1.1995  1.8829  0.4191
 2618TIP3   OH229344   6.621   6.474  14.201 -0.0388  0.1841 -0.4751
 2618TIP3    H129345   6.627   6.557  14.248  1.4931  0.8889 -1.8251
 2618TIP3    H229346   6.558   6.422  14.252  0.7633  1.2588  1.7453
 2619TIP3   OH229347   2.041   2.438  13.821 -0.4883 -0.8077 -0.4800
 2619TIP3    H129348   2.084   2.520  13.797  2.0339 -2.1655 -0.9766
 2619TIP3    H229349   1.952   2.447  13.788 -0.4375  1.9078 -0.0478
 2620TIP3   OH229350   2.077   1.749  13.355  0.5949 -0.2117 -0.3998
 2620TIP3    H129351   2.158   1.779  13.396  0.0870  0.6278  0.0311
 2620TIP3    H229352   2.009   1.774  13.417  0.0674 -1.6595 -0.3616
 2621TIP3   OH229353   3.045   5.723  10.407  0.3074  0.6393 -0.7511
 2621TIP3    H129354   2.973   5.673  10.443  1.4975 -1.3424 -0.9859
 2621TIP3    H229355   3.098   5.748  10.482 -2.4730  5.6135 -0.0015
 2622TIP3   OH229356   6.405   6.509  11.973 -0.0888  0.1177 -0.9731
 2622TIP3    H129357   6.483   6.456  11.959 -0.5391 -0.3389 -1.7869
 2622TIP3    H229358   6.333   6.459  11.934 -1.0162 -0.0732  0.8644
 2623TIP3   OH229359   1.488   0.679  14.487 -0.2857  1.3400 -0.1920
 2623TIP3    H129360   1.404   0.634  14.484  0.6116 -0.4414 -0.0179
 2623TIP3    H229361   1.476   0.756  14.432 -1.4428  0.0762 -1.8095
 2624TIP3   OH229362   6.599   3.632  14.095  0.2707 -0.8407 -0.7641
 2624TIP3    H129363   6.669   3.600  14.039 -0.7422 -4.1855 -0.3311
 2624TIP3    H229364   6.527   3.569  14.083 -1.8901  1.2175  0.4177
 2625TIP3   OH229365   2.158   3.442   6.551  0.2187  0.0064 -0.7197
 2625TIP3    H129366   2.138   3.378   6.619  0.5911 -1.2781 -1.7873
 2625TIP3    H229367   2.246   3.473   6.573  0.6764 -1.0097 -1.0418
 2626TIP3   OH229368   5.457   3.110   0.040  0.1864  0.4399 -0.4088
 2626TIP3    H129369   5.531   3.052   0.024  0.5502  0.7754  0.0388
 2626TIP3    H229370   5.441   3.153  -0.043  1.0875  1.0512 -0.2692
 2627TIP3   OH229371   6.337   6.459  16.491 -0.4240 -0.0502  0.1895
 2627TIP3    H129372   6.380   6.486  16.410 -1.5333  0.4721 -0.2460
 2627TIP3    H229373   6.397   6.485  16.560  1.3403 -1.9916 -0.4935
 2628TIP3   OH229374   3.398   6.820   5.916 -0.0859 -0.0202  0.0330
 2628TIP3    H129375   3.473   6.872   5.947  1.4898 -2.2643  0.2178
 2628TIP3    H229376   3.427   6.784   5.833 -1.4890  0.0514 -0.5136
 2629TIP3   OH229377   5.601   5.126  13.018 -0.0241 -0.1339  0.1563
 2629TIP3    H129378   5.526   5.125  13.078  2.0831 -2.1602  3.0390
 2629TIP3    H229379   5.629   5.217  13.017 -0.8932  0.1744  1.2725
 2630TIP3   OH229380   4.180   1.531  12.387  0.6202  0.2724  0.4624
 2630TIP3    H129381   4.113   1.552  12.322 -0.1228 -2.9796  0.0262
 2630TIP3    H229382   4.262   1.564  12.349  0.2426 -1.6397 -2.3171
 2631TIP3   OH229383   5.514   3.980   2.078 -0.4851  0.3883  0.5141
 2631TIP3    H129384   5.573   3.940   2.142  0.8091  0.4920 -0.5638
 2631TIP3    H229385   5.572   4.031   2.021 -1.5676  0.1054 -0.8866
 2632TIP3   OH229386   2.387   5.628  15.849 -0.3338  0.1252  0.2420
 2632TIP3    H129387   2.376   5.689  15.921  1.4906  0.1624  0.5513
 2632TIP3    H229388   2.430   5.679  15.781 -1.6298 -0.0264 -0.7331
 2633TIP3   OH229389   1.968   1.976   0.433 -0.1098  0.0909  0.0803
 2633TIP3    H129390   1.904   1.906   0.423 -1.2432  0.7172  2.2917
 2633TIP3    H229391   2.048   1.932   0.459  0.7692 -0.7942 -3.5837
 2634TIP3   OH229392   0.871   5.289  14.718 -0.1224 -0.3142 -0.3167
 2634TIP3    H129393   0.839   5.260  14.632 -0.9159  0.3153 -0.2437
 2634TIP3    H229394   0.828   5.374  14.732  2.1189  0.9375 -0.5270
 2635TIP3   OH229395   5.989   0.982   4.898 -0.4206  0.0094  0.1798
 2635TIP3    H129396   6.075   0.970   4.859  0.1809  1.2154  1.0712
 2635TIP3    H229397   5.968   0.896   4.935 -0.3693 -0.7479 -1.4812
 2636TIP3   OH229398   2.281   4.654   4.782 -0.2198 -0.5557  1.0188
 2636TIP3    H129399   2.193   4.637   4.815 -1.4047 -0.7467 -1.9995
 2636TIP3    H229400   2.285   4.609   4.698  2.7421 -0.4216  0.9665
 2637TIP3   OH229401   0.245   1.913  14.308 -0.6791  0.5309  0.7730
 2637TIP3    H129402   0.192   1.923  14.387  0.5490  1.8261  1.4799
 2637TIP3    H229403   0.291   1.830  14.321 -1.0477  0.3685  1.0598
 2638TIP3   OH229404   0.208   2.291  15.476 -0.1227  0.0323  0.6256
 2638TIP3    H129405   0.148   2.347  15.427 -0.4562 -2.5602 -2.2448
 2638TIP3    H229406   0.153   2.220  15.509  1.0690 -1.9022 -1.2813
 2639TIP3   OH229407   0.302   2.860   0.372  0.0222 -0.2779  0.3404
 2639TIP3    H129408   0.347   2.840   0.454 -1.3522 -0.3947  1.1081
 2639TIP3    H229409   0.216   2.819   0.382  0.3955 -1.7856 -1.8717
 2640TIP3   OH229410   0.683   4.568  14.471 -0.1693 -0.1647  0.7632
 2640TIP3    H129411   0.618   4.531  14.532 -0.7604  0.0527  0.2770
 2640TIP3    H229412   0.662   4.527  14.387 -0.2290  0.5755  0.4176
 2641TIP3   OH229413   3.903   5.499  12.274 -0.2537  0.0457 -0.1045
 2641TIP3    H129414   3.945   5.585  12.275 -0.8478  0.3484  1.5410
 2641TIP3    H229415   3.963   5.441  12.320 -0.1735 -0.2702 -0.5965
 2642TIP3   OH229416   3.197   1.574  14.267 -0.6020  0.2267 -0.1559
 2642TIP3    H129417   3.271   1.577  14.328  0.4883 -0.9595 -1.3815
 2642TIP3    H229418   3.121   1.601  14.321  0.2812 -0.8924  1.7490
 2643TIP3   OH229419   2.439   2.794   3.777 -0.5983  0.2953 -0.2729
 2643TIP3    H129420   2.376   2.837   3.720 -0.1779  0.0731 -0.9090
 2643TIP3    H229421   2.409   2.815   3.866 -1.0662  0.9137 -0.5710
 2644TIP3   OH229422   4.974   1.024   2.034  0.6978  0.0588 -0.4742
 2644TIP3    H129423   5.039   0.954   2.039  1.2634  0.3361 -2.6829
 2644TIP3    H229424   5.010   1.095   2.086  0.0604 -1.2551  1.9107
 2645TIP3   OH229425   0.773   2.593  11.337  0.8824  0.0332 -0.4987
 2645TIP3    H129426   0.710   2.640  11.282 -1.4700 -2.3974 -0.1278
 2645TIP3    H229427   0.782   2.507  11.294  2.7367 -0.2551  0.3578
 2646TIP3   OH229428   4.594   5.975  16.994  0.0010 -0.1863 -0.4905
 2646TIP3    H129429   4.566   6.062  16.965  2.5603  0.6921 -0.6165
 2646TIP3    H229430   4.525   5.916  16.965 -1.4043  1.6993 -1.1553
 2647TIP3   OH229431   0.155   0.165  11.218 -0.9399  0.2324  0.0544
 2647TIP3    H129432   0.143   0.126  11.304 -0.9271 -0.8510 -0.4221
 2647TIP3    H229433   0.116   0.252  11.225  1.8075  1.4714  2.0945
 2648TIP3   OH229434   0.647   3.769   2.549 -0.4422  0.0863  0.0521
 2648TIP3    H129435   0.590   3.726   2.486  0.3971  0.3302 -0.9060
 2648TIP3    H229436   0.589   3.824   2.601 -0.7810  2.6998 -2.8629
 2649TIP3   OH229437   4.894   2.893   5.304  0.4960 -0.1953  0.0727
 2649TIP3    H129438   4.938   2.825   5.355  1.1002  1.1926  1.5172
 2649TIP3    H229439   4.955   2.968   5.307  0.0178  0.3127 -1.7541
 2650TIP3   OH229440   0.892   1.966  12.870 -0.0226  0.4928 -0.0696
 2650TIP3    H129441   0.977   1.981  12.910  0.3898  1.5168 -1.2863
 2650TIP3    H229442   0.911   1.941  12.780 -1.0094  2.2542 -0.8254
 2651TIP3   OH229443   5.337   0.960  14.877 -0.6094 -0.3230  0.2802
 2651TIP3    H129444   5.320   1.051  14.851  0.6255  0.3623  1.7127
 2651TIP3    H229445   5.412   0.934  14.825 -0.9188 -0.5128 -0.0773
 2652TIP3   OH229446   4.545   3.652   0.076 -0.2956  0.0364 -0.6904
 2652TIP3    H129447   4.562   3.562   0.048 -0.9945 -0.3519  0.0724
 2652TIP3    H229448   4.553   3.649   0.171 -0.5503  0.7340 -0.6413
 2653TIP3   OH229449   2.805   3.555   5.645 -0.2615  0.4658  0.1249
 2653TIP3    H129450   2.898   3.565   5.626 -0.3938  0.4662 -0.5490
 2653TIP3    H229451   2.791   3.461   5.648 -0.8723  0.3675 -3.1412
 2654TIP3   OH229452   5.527   5.647  10.204  0.0778  0.0859  0.9002
 2654TIP3    H129453   5.621   5.627  10.209  0.1191  0.0926  0.2484
 2654TIP3    H229454   5.508   5.646  10.111 -0.8169 -1.0804  1.0676
 2655TIP3   OH229455   1.831   5.725   0.693 -0.0864 -0.2403 -0.2656
 2655TIP3    H129456   1.922   5.752   0.681 -0.2646  0.1498 -0.7748
 2655TIP3    H229457   1.784   5.806   0.712  0.2157 -0.8105  3.6406
 2656TIP3   OH229458   1.103   6.715  13.025  0.1769  0.2886 -0.6108
 2656TIP3    H129459   1.107   6.630  13.069  0.5355 -0.1160 -1.3988
 2656TIP3    H229460   1.151   6.701  12.943 -0.8462  0.9036 -1.3283
 2657TIP3   OH229461   0.620   6.475  14.055 -0.5650 -0.2273 -0.6548
 2657TIP3    H129462   0.564   6.411  14.100 -0.9549  0.4361 -0.1711
 2657TIP3    H229463   0.562   6.517  13.991  0.3377 -2.1804 -2.8889
 2658TIP3   OH229464   5.754   0.393  11.170  1.0411  0.1446  0.1437
 2658TIP3    H129465   5.829   0.416  11.116  0.3527  1.1228 -0.4296
 2658TIP3    H229466   5.720   0.313  11.131 -0.5165  1.7576 -2.0795
 2659TIP3   OH229467   2.451   3.792  13.038  0.1886  0.2417  0.4196
 2659TIP3    H129468   2.445   3.732  12.964  0.8129  0.6898 -0.0040
 2659TIP3    H229469   2.542   3.786  13.066  0.4545  1.5646 -0.1150
 2660TIP3   OH229470   0.646   5.449  14.700  0.7366 -0.0404 -0.6102
 2660TIP3    H129471   0.631   5.481  14.611  0.3080  0.0075 -0.5237
 2660TIP3    H229472   0.618   5.522  14.756 -0.5408 -0.6603 -0.4056
 2661TIP3   OH229473   1.561   4.164   6.493  0.6185 -0.5086 -0.1726
 2661TIP3    H129474   1.621   4.226   6.534  0.9232 -1.8673  1.5642
 2661TIP3    H229475   1.475   4.203   6.505  0.6729 -0.9077  2.0161
 2662TIP3   OH229476   2.945   3.327  12.191  0.0289 -0.0731  0.0854
 2662TIP3    H129477   2.895   3.408  12.178  1.2510  0.6034 -0.4961
 2662TIP3    H229478   2.879   3.258  12.185 -1.0721  0.8725  0.7721
 2663TIP3   OH229479   4.026   2.094  12.451 -0.3698 -0.5184 -0.2138
 2663TIP3    H129480   4.059   2.010  12.421 -0.4365  0.0531 -1.9861
 2663TIP3    H229481   4.094   2.157  12.426 -0.6996  0.0715  0.3398
 2664TIP3   OH229482   6.615   3.656   3.435 -0.2732  0.6561 -0.2160
 2664TIP3    H129483   6.619   3.646   3.530  0.2736 -0.0290 -0.3077
 2664TIP3    H229484   6.706   3.655   3.406 -0.4250  1.0979 -0.7249
 2665TIP3   OH229485   1.773   6.100   1.482  0.1502  0.4416  0.6338
 2665TIP3    H129486   1.840   6.041   1.446 -2.0072 -2.2146  0.6526
 2665TIP3    H229487   1.818   6.147   1.552  1.8879 -1.7515  1.1150
 2666TIP3   OH229488   6.776   3.181   1.214 -0.0500 -0.2311  0.4263
 2666TIP3    H129489   6.842   3.205   1.279 -0.1352 -1.5049  1.0058
 2666TIP3    H229490   6.820   3.193   1.130  0.4383  0.3117  0.7498
 2667TIP3   OH229491   4.814   3.396  11.086 -0.0968  0.0598 -0.1461
 2667TIP3    H129492   4.774   3.339  11.152 -0.5078  2.1850  1.5179
 2667TIP3    H229493   4.908   3.383  11.098 -0.1818 -0.2449  0.2295
 2668TIP3   OH229494   2.218   5.172  13.857 -0.2568 -0.7685  0.0871
 2668TIP3    H129495   2.253   5.145  13.941 -0.7661 -2.4332 -0.2036
 2668TIP3    H229496   2.169   5.097  13.825 -1.7686  0.5099 -0.7928
 2669TIP3   OH229497   3.804   4.358   1.286 -0.1532 -0.1734  0.0351
 2669TIP3    H129498   3.742   4.428   1.308  1.0523  1.1267 -0.5354
 2669TIP3    H229499   3.890   4.397   1.301  0.5653 -1.4845 -0.5094
 2670TIP3   OH229500   3.586   3.118  12.391  0.2585  0.0118 -0.5043
 2670TIP3    H129501   3.509   3.122  12.334  0.1285 -0.3529 -0.3578
 2670TIP3    H229502   3.655   3.081  12.336 -0.3609 -2.1795  0.0794
 2671TIP3   OH229503   4.771   5.548   3.088  0.2428  0.1079 -0.8016
 2671TIP3    H129504   4.818   5.467   3.068  1.2362  0.9117 -1.8709
 2671TIP3    H229505   4.722   5.568   3.009  0.3848  0.7963 -0.7294
 2672TIP3   OH229506   5.586   3.173   5.888  1.1291  0.2875 -0.0184
 2672TIP3    H129507   5.513   3.231   5.911 -0.2751 -0.7748 -1.5606
 2672TIP3    H229508   5.566   3.091   5.932  1.2571 -0.0988 -0.6771
 2673TIP3   OH229509   0.036   0.862  15.110  0.4576  0.2721  0.8666
 2673TIP3    H129510  -0.014   0.817  15.178 -0.7711 -0.4647 -0.4643
 2673TIP3    H229511   0.063   0.792  15.050  1.1865  0.9395  0.4010
 2674TIP3   OH229512   1.531   0.128  14.420 -0.3508 -0.3251  0.2045
 2674TIP3    H129513   1.499   0.039  14.429 -0.9449 -0.1514 -0.1051
 2674TIP3    H229514   1.452   0.182  14.423  0.1032  0.2980  1.7086
 2675TIP3   OH229515   3.208   0.863   5.099  0.4556  0.0981 -0.0819
 2675TIP3    H129516   3.155   0.784   5.096 -0.2881  0.5915 -0.1101
 2675TIP3    H229517   3.196   0.904   5.014  0.7318  0.3042 -0.0241
 2676TIP3   OH229518   3.353   2.063  16.346  0.0123 -0.2537 -0.2043
 2676TIP3    H129519   3.395   2.083  16.262  0.1284 -0.7768 -0.2785
 2676TIP3    H229520   3.357   1.967  16.351  0.6336 -0.1857  0.7229
 2677TIP3   OH229521   2.172   1.529   2.004  0.6388  0.0367 -0.5421
 2677TIP3    H129522   2.078   1.511   2.005  0.4991  0.4309  2.3350
 2677TIP3    H229523   2.213   1.445   2.022  0.5651  0.4236  1.7965
 2678TIP3   OH229524   3.992   6.301  16.605  0.2590  0.2746  0.0901
 2678TIP3    H129525   3.900   6.315  16.581  0.9986  2.7936 -1.6440
 2678TIP3    H229526   4.011   6.212  16.575 -1.4276 -0.0788 -0.0515
 2679TIP3   OH229527   0.157   4.661   2.244 -0.3846 -0.2112  0.3296
 2679TIP3    H129528   0.066   4.684   2.265 -0.2847  0.6094 -0.1124
 2679TIP3    H229529   0.197   4.743   2.218  0.7645 -0.3853  1.4438
 2680TIP3   OH229530   5.776   0.454  14.477  0.4142 -0.1469  0.2742
 2680TIP3    H129531   5.774   0.370  14.430 -1.3044  0.2039 -0.3590
 2680TIP3    H229532   5.825   0.435  14.557  2.8155 -0.9518 -1.2648
 2681TIP3   OH229533   1.108   0.158  15.968 -0.0191 -0.6262 -0.2135
 2681TIP3    H129534   1.102   0.073  15.924  0.9710 -0.4943 -0.6517
 2681TIP3    H229535   1.019   0.178  15.996 -0.2924 -1.7282 -0.2573
 2682TIP3   OH229536   3.421   2.322   1.131 -0.1423  0.4038  0.2437
 2682TIP3    H129537   3.445   2.254   1.067  0.3617 -1.7901  2.5983
 2682TIP3    H229538   3.349   2.284   1.181  0.5121  1.3430  1.9975
 2683TIP3   OH229539   1.354   5.254  11.391 -0.1824 -0.1684  0.2910
 2683TIP3    H129540   1.429   5.268  11.333 -1.8509  2.7691 -1.3918
 2683TIP3    H229541   1.393   5.245  11.478  2.2387 -1.8772 -0.8644
 2684TIP3   OH229542   0.628   4.748  15.396  0.0858  0.1959 -0.3879
 2684TIP3    H129543   0.605   4.841  15.392  0.0051  0.2954  1.4422
 2684TIP3    H229544   0.572   4.713  15.466  0.5952 -1.0781 -0.6031
 2685TIP3   OH229545   5.619   2.718  13.262  0.8952 -0.0793 -0.0006
 2685TIP3    H129546   5.545   2.770  13.230  1.2273  1.0205  0.9505
 2685TIP3    H229547   5.676   2.709  13.186  2.1680  3.3606  0.3945
 2686TIP3   OH229548   6.321   6.319  13.222 -0.2234 -0.1771 -0.6844
 2686TIP3    H129549   6.364   6.313  13.308  0.8108  2.1323 -0.9706
 2686TIP3    H229550   6.281   6.232  13.209  0.5951 -0.9666  1.5798
 2687TIP3   OH229551   6.149   5.955   0.927 -0.1080  0.2027 -0.1754
 2687TIP3    H129552   6.145   6.050   0.930 -0.5847  0.1679  0.7354
 2687TIP3    H229553   6.127   5.933   0.836  3.1624  1.0493 -1.3108
 2688TIP3   OH229554   1.378   2.728  16.123 -0.4762  0.2029 -0.6383
 2688TIP3    H129555   1.460   2.752  16.167 -0.4349 -0.0997 -0.5464
 2688TIP3    H229556   1.380   2.632  16.120 -0.1366  0.2298 -1.9347
 2689TIP3   OH229557   6.757   5.092  11.136  0.3784 -0.0622  0.0268
 2689TIP3    H129558   6.829   5.054  11.186 -0.3007  0.4552  1.4522
 2689TIP3    H229559   6.688   5.107  11.201 -0.7897  0.0277 -1.1921
 2690TIP3   OH229560   0.112   1.999  12.125 -0.1103  0.0421 -0.2769
 2690TIP3    H129561   0.059   1.988  12.204 -0.4810  2.3000 -0.1548
 2690TIP3    H229562   0.203   1.996  12.156 -0.2499  0.6075  0.2006
 2691TIP3   OH229563   4.602   0.090   3.491 -0.1094 -0.0460 -0.0333
 2691TIP3    H129564   4.646   0.022   3.441  1.1415  0.5541  0.2279
 2691TIP3    H229565   4.524   0.047   3.526  1.5721 -1.9104  1.6521
 2692TIP3   OH229566   6.777   0.367  17.217 -0.2820 -0.2644  0.2726
 2692TIP3    H129567   6.782   0.390  17.125  1.1586  0.4328  0.5018
 2692TIP3    H229568   6.685   0.379  17.240 -0.4954  0.3674 -0.8695
 2693TIP3   OH229569   2.370   1.307   1.128  0.2875 -0.0847  0.1022
 2693TIP3    H129570   2.413   1.386   1.162  0.6743  0.1235 -0.8507
 2693TIP3    H229571   2.441   1.244   1.118 -0.1973 -1.0318  2.0971
 2694TIP3   OH229572   1.933   6.375   2.259  0.1737  0.0197 -0.6470
 2694TIP3    H129573   1.914   6.385   2.352 -0.8558  2.1724 -1.0134
 2694TIP3    H229574   1.864   6.426   2.215  1.3858  0.1407 -2.5120
 2695TIP3   OH229575   5.664   1.790   4.847 -0.3409  0.8660 -0.5944
 2695TIP3    H129576   5.674   1.745   4.930 -0.2824  1.2514 -0.3927
 2695TIP3    H229577   5.569   1.793   4.833 -0.4003  1.6221 -0.0864
 2696TIP3   OH229578   0.616   5.085  12.807  0.1231  0.0281 -0.2005
 2696TIP3    H129579   0.707   5.080  12.778 -0.2676  0.2635 -1.5581
 2696TIP3    H229580   0.617   5.150  12.878  1.2030 -0.9637  0.7379
 2697TIP3   OH229581   6.059   5.696  15.029 -0.2803 -0.5349  0.3605
 2697TIP3    H129582   6.147   5.699  14.991  0.2703 -1.6620  1.4674
 2697TIP3    H229583   6.003   5.736  14.963  0.6692 -2.1358 -1.5312
 2698TIP3   OH229584   4.945   5.455  15.477 -0.4771  0.2425 -0.1183
 2698TIP3    H129585   5.025   5.445  15.427 -0.4096  1.5328 -0.3165
 2698TIP3    H229586   4.903   5.533  15.440 -0.5643  1.0793  1.6095
 2699TIP3   OH229587   0.063   6.287   3.731 -0.2192  0.1843  0.1979
 2699TIP3    H129588   0.073   6.238   3.650 -1.2145  1.5022 -0.7610
 2699TIP3    H229589   0.153   6.311   3.755 -0.0068  1.3704 -1.5607
 2700TIP3   OH229590   3.827   2.768  12.157 -0.1056 -0.2669  0.4672
 2700TIP3    H129591   3.817   2.827  12.082 -0.0918  0.6331  1.1507
 2700TIP3    H229592   3.835   2.681  12.119  0.5426  0.2455 -0.6122
 2701TIP3   OH229593   3.879   4.280  12.373  0.6921  0.5569 -0.5169
 2701TIP3    H129594   3.906   4.362  12.414  0.3457  0.4215 -0.0021
 2701TIP3    H229595   3.873   4.218  12.445  3.4049 -0.6276 -1.1959
 2702TIP3   OH229596   6.151   6.060  15.669  0.6454 -0.3410 -0.3088
 2702TIP3    H129597   6.084   5.996  15.650 -1.3933  1.2796  1.0025
 2702TIP3    H229598   6.165   6.106  15.585  1.7165 -2.0269 -1.1060
 2703TIP3   OH229599   4.319   4.950  15.798  0.0360  0.0845  0.5250
 2703TIP3    H129600   4.267   4.991  15.729  0.1346 -0.3605  0.1741
 2703TIP3    H229601   4.404   4.933  15.756  0.1792  0.0413  0.8332
 2704TIP3   OH229602   4.752   2.671  11.734  0.7437 -0.1250 -0.3868
 2704TIP3    H129603   4.822   2.663  11.798  0.2520 -1.1960  0.0358
 2704TIP3    H229604   4.685   2.609  11.763 -1.0505  1.8655  0.0930
 2705TIP3   OH229605   1.213   3.757  11.140 -0.5718  0.1455  0.6421
 2705TIP3    H129606   1.143   3.813  11.108 -0.3831 -0.5332 -1.0578
 2705TIP3    H229607   1.174   3.670  11.147  0.5251 -0.7406 -2.4500
 2706TIP3   OH229608   0.092   3.317   1.409 -1.1112 -0.0838  0.1797
 2706TIP3    H129609   0.183   3.316   1.436 -1.6737 -0.5476  2.2674
 2706TIP3    H229610   0.070   3.410   1.401 -0.9642  0.1055  1.6777
 2707TIP3   OH229611   4.295   5.911  14.506  0.6320 -0.4632 -0.3198
 2707TIP3    H129612   4.377   5.958  14.521  0.5230  0.0843 -1.4092
 2707TIP3    H229613   4.320   5.838  14.449  0.4358 -0.5467 -0.2983
 2708TIP3   OH229614   1.504   2.602   2.516 -0.2412 -0.2490  0.0324
 2708TIP3    H129615   1.417   2.631   2.488 -0.7521 -1.8967 -0.2202
 2708TIP3    H229616   1.540   2.676   2.564 -2.1930  0.1244  1.0062
 2709TIP3   OH229617   6.208   0.590   0.093  0.5872 -0.1626 -0.3644
 2709TIP3    H129618   6.148   0.520   0.070 -1.8345  1.5050  0.4715
 2709TIP3    H229619   6.205   0.650   0.019  1.3211 -0.0800 -0.3426
 2710TIP3   OH229620   4.967   5.704   4.670 -0.0720  0.5859 -0.5287
 2710TIP3    H129621   5.030   5.688   4.601 -0.8976 -0.4168 -1.0902
 2710TIP3    H229622   4.898   5.756   4.629 -0.9429 -0.6629 -0.7078
 2711TIP3   OH229623   6.827   5.114  16.698 -0.1299 -0.0739  0.0739
 2711TIP3    H129624   6.885   5.156  16.635 -0.1794 -0.9952 -0.6053
 2711TIP3    H229625   6.746   5.098  16.649  0.4881 -2.5634 -0.2570
 2712TIP3   OH229626   4.388   0.923   2.854 -0.1582  0.2035  0.0184
 2712TIP3    H129627   4.383   0.982   2.779 -0.5454  1.0710  0.7165
 2712TIP3    H229628   4.306   0.872   2.850  0.2133 -0.3694 -0.6286
 2713TIP3   OH229629   3.014   0.606  16.726  0.0104 -0.2463  0.3070
 2713TIP3    H129630   3.073   0.572  16.792 -1.0799 -3.7283 -0.3169
 2713TIP3    H229631   2.945   0.650  16.775  0.2531 -1.0206  1.3588
 2714TIP3   OH229632   3.846   2.067   4.858 -0.6992  0.5881  0.2993
 2714TIP3    H129633   3.861   1.983   4.901 -1.2468  0.3662  0.0632
 2714TIP3    H229634   3.750   2.077   4.856 -0.6449  1.1890  0.2779
 2715TIP3   OH229635   0.520   6.220  17.115 -0.0885  0.2216 -0.1188
 2715TIP3    H129636   0.550   6.291  17.171 -2.6649  1.2426  0.1137
 2715TIP3    H229637   0.429   6.205  17.143 -0.7253 -0.7797 -2.5168
 2716TIP3   OH229638   3.404   4.427  16.088 -0.5763 -0.1516 -0.0269
 2716TIP3    H129639   3.479   4.455  16.141 -0.4124  0.0461 -0.3559
 2716TIP3    H229640   3.430   4.447  15.998 -0.7596 -0.6955 -0.2035
 2717TIP3   OH229641   1.343   1.161   1.810 -0.1846 -0.0282 -0.0977
 2717TIP3    H129642   1.325   1.154   1.904 -0.4503  1.0324 -0.0611
 2717TIP3    H229643   1.356   1.255   1.794  1.2661 -0.3265 -0.8763
 2718TIP3   OH229644   3.243   4.595  12.808 -0.0294  0.2009  0.4188
 2718TIP3    H129645   3.186   4.637  12.872 -1.4035  0.0300 -0.6314
 2718TIP3    H229646   3.183   4.546  12.751  1.1379  0.2375 -0.9085
 2719TIP3   OH229647   0.975   6.044   6.276  0.1931  0.6527  0.0851
 2719TIP3    H129648   1.046   5.991   6.313  0.3324 -0.4839 -1.6865
 2719TIP3    H229649   0.944   6.098   6.349  0.6976 -1.1832  1.7312
 2720TIP3   OH229650   1.055   3.112  11.827 -0.3222 -0.2057  0.8071
 2720TIP3    H129651   1.074   3.124  11.734 -1.6530 -1.1244  0.3879
 2720TIP3    H229652   1.042   3.201  11.860  1.0794  0.1953  0.3473
 2721TIP3   OH229653   3.942   1.047   1.414  0.0832 -0.0889  0.4824
 2721TIP3    H129654   3.848   1.025   1.415  0.3904 -1.5206  1.2240
 2721TIP3    H229655   3.986   0.962   1.406  1.3436  0.4390  1.5004
 2722TIP3   OH229656   2.375   0.716   5.012  0.1430 -0.2078 -0.1357
 2722TIP3    H129657   2.291   0.681   4.980 -0.1425  0.7657 -0.4925
 2722TIP3    H229658   2.378   0.805   4.977  2.0360 -0.7107 -1.3957
 2723TIP3   OH229659   4.635   0.204   2.200  0.4105 -0.5857  0.2230
 2723TIP3    H129660   4.634   0.293   2.165 -2.4740 -0.8345 -0.5940
 2723TIP3    H229661   4.595   0.212   2.286 -0.7129 -1.1795 -0.2247
 2724TIP3   OH229662   5.044   0.654   0.877 -0.3544 -0.3393 -0.0784
 2724TIP3    H129663   5.121   0.605   0.849  0.0586 -0.2631  0.9034
 2724TIP3    H229664   5.060   0.674   0.969  0.2594  3.0688 -0.8048
 2725TIP3   OH229665   1.933   6.573  11.237  0.1825  1.0067  0.0024
 2725TIP3    H129666   1.875   6.626  11.183 -0.2059  0.9259  0.3379
 2725TIP3    H229667   1.952   6.627  11.313  0.2514  0.8873  0.0711
 2726TIP3   OH229668   0.007   3.027   2.511  0.4239  0.3348  0.2581
 2726TIP3    H129669   0.010   3.021   2.415  2.0701 -1.0453  0.3434
 2726TIP3    H229670   0.025   2.938   2.541 -0.9215  0.5682  1.8748
 2727TIP3   OH229671   4.089   5.253   4.236 -0.0842  0.3539  0.4888
 2727TIP3    H129672   4.148   5.257   4.161 -1.5293  1.7801 -0.6582
 2727TIP3    H229673   4.138   5.206   4.303  2.2017  1.1799 -0.5030
 2728TIP3   OH229674   1.966   6.684   1.028 -0.5213 -0.2496 -0.1190
 2728TIP3    H129675   2.025   6.629   1.079 -0.0368  0.7734  0.4604
 2728TIP3    H229676   2.019   6.715   0.955 -0.3912  0.4985  0.2850
 2729TIP3   OH229677   2.133   6.585   3.130  0.8346  0.0936  0.1553
 2729TIP3    H129678   2.142   6.519   3.062  2.7229  0.2516  0.1937
 2729TIP3    H229679   2.223   6.602   3.159  0.1335  0.4352  2.2948
 2730TIP3   OH229680   1.555   3.703   0.297  0.4978 -0.3928 -0.4616
 2730TIP3    H129681   1.535   3.794   0.277 -1.2768 -0.7772 -0.6689
 2730TIP3    H229682   1.476   3.671   0.342  2.0385 -1.1687  1.8751
 2731TIP3   OH229683   1.111   0.587  11.916 -0.2266 -0.3627  0.5708
 2731TIP3    H129684   1.020   0.609  11.939 -0.3106  0.6388 -0.5937
 2731TIP3    H229685   1.123   0.499  11.950 -1.8304 -0.7455  0.2480
 2732TIP3   OH229686   6.746   2.148  15.143  0.0860  0.0439  0.7040
 2732TIP3    H129687   6.786   2.070  15.182  0.4434  0.2805  0.8125
 2732TIP3    H229688   6.799   2.221  15.175  2.0384  0.0720 -2.2950
 2733TIP3   OH229689   5.102   4.308   5.947  0.2097  0.6268  0.2714
 2733TIP3    H129690   5.050   4.262   5.881 -0.2931 -1.3099  1.9336
 2733TIP3    H229691   5.193   4.291   5.922  0.0221 -0.4629  0.3008
 2734TIP3   OH229692   4.347   5.214  16.328 -0.1745  0.5546 -0.7228
 2734TIP3    H129693   4.398   5.170  16.396  0.0005  1.7495 -0.0682
 2734TIP3    H229694   4.411   5.231  16.258  0.3946  2.1258  0.1291
 2735TIP3   OH229695   4.479   4.899   0.465 -0.1117  0.2965  0.5262
 2735TIP3    H129696   4.466   4.901   0.370  0.3852 -1.4166  0.4001
 2735TIP3    H229697   4.401   4.856   0.500  1.0782 -1.9627  0.5662
 2736TIP3   OH229698   2.599   5.420   1.633 -0.1322  0.3442  0.0496
 2736TIP3    H129699   2.585   5.353   1.567 -1.0118  0.9866 -0.4306
 2736TIP3    H229700   2.646   5.490   1.588 -1.0591  0.9437 -0.0171
 2737TIP3   OH229701   1.149   4.677   2.931 -0.4232 -0.0234 -0.0944
 2737TIP3    H129702   1.236   4.703   2.960  0.4516  0.4232 -2.8287
 2737TIP3    H229703   1.123   4.608   2.992  1.2371  0.7694  1.6085
 2738TIP3   OH229704   6.665   5.529  11.888 -0.3119  0.1099  0.1060
 2738TIP3    H129705   6.674   5.444  11.930 -0.4861 -0.3100 -0.6743
 2738TIP3    H229706   6.592   5.571  11.933 -0.6432 -0.4214  0.0680
 2739TIP3   OH229707   5.994   3.194  14.698 -0.3572  0.3675 -0.2254
 2739TIP3    H129708   6.061   3.136  14.662  1.2517  1.8910  0.2038
 2739TIP3    H229709   5.918   3.179  14.643  0.3237 -1.3657 -0.7771
 2740TIP3   OH229710   4.844   6.551   4.285  0.2055  0.2285 -0.1392
 2740TIP3    H129711   4.758   6.556   4.243 -0.0966  0.8541  0.5465
 2740TIP3    H229712   4.902   6.600   4.227  0.3393 -1.0554 -1.1455
 2741TIP3   OH229713   4.169   3.395  13.007  0.0652 -0.3206  0.0581
 2741TIP3    H129714   4.263   3.393  12.992 -0.0240  2.4829 -1.6965
 2741TIP3    H229715   4.153   3.480  13.050 -1.7259 -0.3436 -0.4694
 2742TIP3   OH229716   2.780   2.843   4.413 -0.0437 -0.3297 -0.4398
 2742TIP3    H129717   2.702   2.878   4.456  0.0301  1.1983 -1.4929
 2742TIP3    H229718   2.851   2.899   4.443  0.9441 -2.4882  1.5273
 2743TIP3   OH229719   2.587   6.682   0.402  0.6359 -0.0865  0.0010
 2743TIP3    H129720   2.519   6.661   0.465  0.4289  1.6217  0.4070
 2743TIP3    H229721   2.669   6.671   0.449  0.5829 -0.9157 -0.0990
 2744TIP3   OH229722   4.961   3.901   2.337  0.3267  0.3398 -0.2437
 2744TIP3    H129723   4.952   3.817   2.383  1.5039  1.3968  2.0812
 2744TIP3    H229724   5.046   3.894   2.292  0.3421  0.2156 -0.1972
 2745TIP3   OH229725   6.648   3.043   1.829  0.1213  0.1215 -0.0839
 2745TIP3    H129726   6.660   2.951   1.852 -0.8614  0.4904  2.2703
 2745TIP3    H229727   6.592   3.042   1.751  1.7981 -1.2480 -1.3362
 2746TIP3   OH229728   5.981   5.577  10.524 -0.2240 -0.0901 -0.2758
 2746TIP3    H129729   6.023   5.493  10.545 -0.7072 -0.2986 -0.1154
 2746TIP3    H229730   5.894   5.570  10.564 -0.5290  0.1988 -0.8774
 2747TIP3   OH229731   2.977   1.234  16.274 -0.3599 -0.4499 -0.0431
 2747TIP3    H129732   3.057   1.245  16.325 -0.3429 -1.5735  0.1972
 2747TIP3    H229733   3.003   1.180  16.200 -0.1505  2.0250 -1.8618
 2748TIP3   OH229734   4.110   4.741  13.518  0.3127 -0.4849 -0.5469
 2748TIP3    H129735   4.154   4.659  13.495 -0.7890 -1.2415 -0.0694
 2748TIP3    H229736   4.025   4.736  13.475  0.0435  0.1847 -0.1128
 2749TIP3   OH229737   3.728   6.812  13.687 -0.1730 -0.3161  0.6365
 2749TIP3    H129738   3.662   6.881  13.696  1.5294  2.0311 -2.5264
 2749TIP3    H229739   3.789   6.828  13.759 -1.0190 -0.0202  1.3017
 2750TIP3   OH229740   1.114   2.127   2.331 -0.2348  0.4818 -0.0790
 2750TIP3    H129741   1.021   2.107   2.342 -0.2321  0.6670  0.2742
 2750TIP3    H229742   1.118   2.222   2.327 -0.2254  0.4490 -1.5896
 2751TIP3   OH229743   6.083   5.003   3.099 -0.6528 -0.2568  0.3536
 2751TIP3    H129744   6.116   4.920   3.134  0.0039 -0.2178 -0.1496
 2751TIP3    H229745   5.997   4.983   3.063  0.1562 -1.0714 -1.1779
 2752TIP3   OH229746   1.635   6.146   2.107  0.0377 -0.3078  0.1302
 2752TIP3    H129747   1.615   6.238   2.087 -0.0029 -0.6374 -1.5336
 2752TIP3    H229748   1.558   6.115   2.155 -0.8545  0.0202 -1.0330
 2753TIP3   OH229749   0.973   0.656  16.567 -0.2606  0.4567  1.0104
 2753TIP3    H129750   1.041   0.595  16.539  0.8838  2.3994 -0.7689
 2753TIP3    H229751   0.972   0.650  16.662  0.9732 -1.0876  0.9496
 2754TIP3   OH229752   1.199   0.686  13.336  0.2681 -0.2633 -0.6098
 2754TIP3    H129753   1.143   0.719  13.406  2.3923 -0.4618  1.2897
 2754TIP3    H229754   1.158   0.603  13.309 -0.1449 -0.6194  1.0323
 2755TIP3   OH229755   3.333   5.867  14.311  0.0474  0.3523 -0.0475
 2755TIP3    H129756   3.365   5.801  14.249  0.1791 -1.5734  1.9216
 2755TIP3    H229757   3.244   5.838  14.332 -0.0746  1.0888  0.4793
 2756TIP3   OH229758   0.048   5.227   0.518  0.6663  0.2781  0.4918
 2756TIP3    H129759   0.117   5.276   0.474  0.0901  0.8568  0.2234
 2756TIP3    H229760  -0.029   5.283   0.513  0.3474 -0.0572  1.4075
 2757TIP3   OH229761   5.091   5.509   0.873  0.1777 -0.1075  0.4013
 2757TIP3    H129762   5.125   5.537   0.958  1.3976 -1.2424  0.3265
 2757TIP3    H229763   5.003   5.476   0.891  0.1239  0.3909  1.0768
 2758TIP3   OH229764   6.634   3.202  11.359 -0.7105 -0.3794 -0.2967
 2758TIP3    H129765   6.585   3.283  11.348 -1.7220 -1.2357 -3.0947
 2758TIP3    H229766   6.709   3.213  11.300 -0.7550 -1.3960 -0.5466
 2759TIP3   OH229767   2.971   4.838  13.032  0.0044  0.6053 -0.7187
 2759TIP3    H129768   3.052   4.793  13.054  0.0555  1.5721  1.4196
 2759TIP3    H229769   2.918   4.774  12.985  1.1591 -0.7404 -0.2262
 2760TIP3   OH229770   4.667   5.224  15.644 -0.3687  0.0447 -0.3585
 2760TIP3    H129771   4.643   5.210  15.735 -0.1036  2.2783  0.1247
 2760TIP3    H229772   4.661   5.319  15.632  2.3726  0.1536 -1.8291
 2761TIP3   OH229773   3.483   6.510  17.169 -0.0555 -0.3301 -0.5677
 2761TIP3    H129774   3.471   6.415  17.165 -1.5049 -0.1453 -1.2369
 2761TIP3    H229775   3.501   6.536  17.079 -0.0708  0.0793 -0.4565
 2762TIP3   OH229776   3.129   4.483   5.606  0.0363 -0.0016  0.1405
 2762TIP3    H129777   3.202   4.423   5.622  0.6714  0.6902 -0.1164
 2762TIP3    H229778   3.163   4.546   5.543 -0.3793  1.0736  0.9651
 2763TIP3   OH229779   3.525   0.129   1.510 -0.2215  0.2221  0.2070
 2763TIP3    H129780   3.481   0.044   1.504 -0.2190  0.2364  0.0002
 2763TIP3    H229781   3.479   0.174   1.581 -0.4106  0.1591  0.1254
 2764TIP3   OH229782   2.629   5.527   4.135  0.3054 -0.1422  0.3529
 2764TIP3    H129783   2.697   5.547   4.070 -0.1157 -1.3821 -0.5067
 2764TIP3    H229784   2.665   5.455   4.186  0.8520  1.1679  1.8903
 2765TIP3   OH229785   3.007   6.418   4.385  0.4132  0.3498 -0.8338
 2765TIP3    H129786   3.018   6.335   4.431 -1.5952 -0.5633 -1.9102
 2765TIP3    H229787   2.922   6.452   4.416  1.6587  2.5875  0.4149
 2766TIP3   OH229788   5.507   5.387   9.984 -0.2124 -0.2833  0.6731
 2766TIP3    H129789   5.437   5.325  10.003 -0.1598 -1.0570 -1.4087
 2766TIP3    H229790   5.463   5.460   9.942  0.0389 -0.0329  0.8462
 2767TIP3   OH229791   2.943   2.068   4.999 -0.0631  0.5131  0.2365
 2767TIP3    H129792   2.956   2.011   4.923  0.5675  0.8092  0.1079
 2767TIP3    H229793   2.897   2.144   4.964  1.3302  1.2243 -0.1354
 2768TIP3   OH229794   2.512   1.613  15.890 -0.5157  0.0284  0.3016
 2768TIP3    H129795   2.531   1.522  15.910 -2.0015 -0.1238  1.1177
 2768TIP3    H229796   2.548   1.626  15.802 -0.0083 -1.2340  0.3021
 2769TIP3   OH229797   1.716   4.277  15.609  0.1659 -0.3088 -0.1822
 2769TIP3    H129798   1.662   4.237  15.677  0.4504 -2.6513 -1.2465
 2769TIP3    H229799   1.656   4.290  15.536 -0.2190  2.5025  0.5248
 2770TIP3   OH229800   6.055   2.027   0.584 -0.3695 -0.2789  0.2963
 2770TIP3    H129801   5.970   2.069   0.594  0.2653  0.9679  0.7090
 2770TIP3    H229802   6.035   1.936   0.564 -1.7976 -0.0929  0.7721
 2771TIP3   OH229803   5.295   5.102  12.463 -0.0697 -0.0322 -0.1493
 2771TIP3    H129804   5.382   5.089  12.424  0.5629 -1.0397  1.4678
 2771TIP3    H229805   5.311   5.095  12.558 -1.6040  1.7284  0.2921
 2772TIP3   OH229806   5.861   5.923  15.050  0.1996  0.2578  0.1981
 2772TIP3    H129807   5.883   6.011  15.021 -0.8186  1.1493  1.9139
 2772TIP3    H229808   5.943   5.889  15.087  1.0369 -0.2217 -1.9889
 2773TIP3   OH229809   6.003   3.559   0.382 -0.0072  0.1592 -0.0836
 2773TIP3    H129810   5.948   3.580   0.457  1.4515 -1.6646  1.6295
 2773TIP3    H229811   6.078   3.619   0.390  0.6833 -0.7613  0.6266
 2774TIP3   OH229812   5.246   4.304  12.539  0.3435  0.1739 -0.4320
 2774TIP3    H129813   5.206   4.382  12.576 -0.0081  0.7722 -1.9898
 2774TIP3    H229814   5.340   4.316  12.551  0.2535  0.5374 -0.1047
 2775TIP3   OH229815   3.619   5.380   4.137  0.0318 -0.2396  0.0087
 2775TIP3    H129816   3.701   5.392   4.089 -0.2355  0.2636 -0.3339
 2775TIP3    H229817   3.642   5.397   4.228  0.0128  1.3822 -0.2615
 2776TIP3   OH229818   1.972   4.586  16.546 -0.1814 -0.2865 -0.1750
 2776TIP3    H129819   2.028   4.558  16.618 -3.5159  1.3027  3.4219
 2776TIP3    H229820   1.940   4.505  16.508  0.8186 -1.2173  0.8759
 2777TIP3   OH229821   0.943   1.197  13.052 -0.1006 -0.1844  0.0098
 2777TIP3    H129822   1.023   1.235  13.089 -0.8877 -0.3361  1.9629
 2777TIP3    H229823   0.971   1.111  13.021  0.2354 -0.9179  2.1511
 2778TIP3   OH229824   0.183   0.915   3.420  0.1923  0.0345 -0.5948
 2778TIP3    H129825   0.116   0.967   3.465 -0.0772 -1.6876  1.1014
 2778TIP3    H229826   0.151   0.909   3.329 -0.4414  1.6518 -0.5197
 2779TIP3   OH229827   5.223   1.146  14.209  0.0117  0.1869  0.1352
 2779TIP3    H129828   5.253   1.077  14.149 -1.2630  1.2361 -1.8172
 2779TIP3    H229829   5.196   1.217  14.152 -2.1586  0.9103  1.9171
 2780TIP3   OH229830   2.771   3.283   2.584 -0.6556 -0.3753 -0.3559
 2780TIP3    H129831   2.752   3.296   2.676 -1.9472  0.0122 -0.6641
 2780TIP3    H229832   2.749   3.192   2.567  0.3257 -0.6698 -0.1215
 2781TIP3   OH229833   4.984   1.340  13.480 -0.4303  0.5997 -0.1339
 2781TIP3    H129834   5.069   1.383  13.491  0.0926 -0.3108 -0.4584
 2781TIP3    H229835   4.945   1.339  13.567 -0.0852  0.9763  0.0266
 2782TIP3   OH229836   1.938   4.354   0.479  0.0449 -0.3052 -0.2342
 2782TIP3    H129837   1.868   4.364   0.415  0.4312 -1.5456 -0.8778
 2782TIP3    H229838   1.934   4.435   0.531 -0.8169  0.3474 -1.2630
 2783TIP3   OH229839   1.982   4.356   3.952  0.0106 -0.1391  0.1971
 2783TIP3    H129840   2.008   4.355   3.860 -0.1923 -1.0563  0.1479
 2783TIP3    H229841   1.999   4.267   3.983 -1.1459 -0.2007  0.6996
 2784TIP3   OH229842   2.921   5.032  10.778 -0.5697  0.3337  0.3275
 2784TIP3    H129843   2.911   4.979  10.857  1.0524  0.6937  0.8288
 2784TIP3    H229844   2.956   4.971  10.713  1.5075  0.7613  0.9675
 2785TIP3   OH229845   4.747   0.538   1.664 -0.1057  0.0359  0.4304
 2785TIP3    H129846   4.660   0.530   1.626 -0.2540 -0.1326  0.7960
 2785TIP3    H229847   4.783   0.449   1.661  0.8909  0.4550 -1.6399
 2786TIP3   OH229848   3.009   5.515   0.397  0.6435  0.0020 -0.0054
 2786TIP3    H129849   3.097   5.552   0.405  0.7634  0.3644 -2.2026
 2786TIP3    H229850   2.990   5.520   0.303  0.0492 -4.1554 -0.2740
 2787TIP3   OH229851   1.977   2.886  14.363  0.5375 -0.0119  0.2969
 2787TIP3    H129852   1.969   2.907  14.270  4.7075 -1.2740 -0.5693
 2787TIP3    H229853   1.941   2.962  14.408  0.4292  1.6694 -2.3997
 2788TIP3   OH229854   4.601   5.742  12.562 -0.2207  0.0964  0.9660
 2788TIP3    H129855   4.669   5.693  12.608  0.8770  0.5200 -0.1516
 2788TIP3    H229856   4.526   5.739  12.621  0.8444 -0.1518  2.3770
 2789TIP3   OH229857   6.477   0.911   3.797 -0.0404  0.2460 -0.0913
 2789TIP3    H129858   6.423   0.904   3.718 -0.5430  0.4720  0.2216
 2789TIP3    H229859   6.518   0.825   3.806  0.1035  0.2530 -0.6549
 2790TIP3   OH229860   4.633   4.107  12.058 -0.4771  0.0615 -0.0852
 2790TIP3    H129861   4.703   4.067  12.006 -1.9567  0.5416 -2.6156
 2790TIP3    H229862   4.582   4.033  12.091  0.6311 -0.2595  0.9600
 2791TIP3   OH229863   5.264   5.310  11.655 -0.1722  0.0961  0.0265
 2791TIP3    H129864   5.300   5.347  11.736  1.3550 -1.6600  0.2119
 2791TIP3    H229865   5.254   5.386  11.597  1.1807  1.0482  0.9715
 2792TIP3   OH229866   1.219   5.727  16.429  0.1599 -0.3886 -0.2920
 2792TIP3    H129867   1.137   5.749  16.473  0.7795  0.5247  0.4538
 2792TIP3    H229868   1.255   5.812  16.404  1.0224 -0.7674 -0.3458
 2793TIP3   OH229869   2.839   3.851   1.841  0.2164 -0.3344 -0.0121
 2793TIP3    H129870   2.868   3.763   1.816  0.9023 -1.0358  2.8523
 2793TIP3    H229871   2.763   3.836   1.898 -0.2106  1.0110 -0.1869
 2794TIP3   OH229872   6.590   5.123   3.041  0.1264  0.7699  0.3831
 2794TIP3    H129873   6.646   5.069   2.986 -0.9831 -0.5199  0.4728
 2794TIP3    H229874   6.545   5.061   3.099 -0.9812  1.7974  0.6772
 2795TIP3   OH229875   0.331   1.151   0.272 -0.4303 -0.5227 -0.0707
 2795TIP3    H129876   0.422   1.156   0.300 -0.5620 -0.0095  0.2727
 2795TIP3    H229877   0.329   1.079   0.208 -0.3683 -2.5806  2.1211
 2796TIP3   OH229878   1.877   0.414  16.403  0.5648  0.6215 -0.6642
 2796TIP3    H129879   1.891   0.485  16.465  0.3084  0.7390 -0.7406
 2796TIP3    H229880   1.823   0.351  16.451  0.9329  0.3999 -0.5379
 2797TIP3   OH229881   6.493   5.514  12.994  0.0569  0.3719  0.0298
 2797TIP3    H129882   6.562   5.454  12.965  1.8106  1.7307  1.1855
 2797TIP3    H229883   6.450   5.540  12.913 -0.1541 -1.6773 -0.5825
 2798TIP3   OH229884   2.463   2.485  14.526 -0.0037 -0.0012 -0.3236
 2798TIP3    H129885   2.524   2.546  14.568  1.0011 -1.0944 -0.1286
 2798TIP3    H229886   2.461   2.512  14.434  0.5157  0.2579 -0.2621
 2799TIP3   OH229887   4.820   6.693   3.664  0.1264  0.5843  0.1791
 2799TIP3    H129888   4.867   6.768   3.628  0.8091 -0.3649 -0.9492
 2799TIP3    H229889   4.770   6.729   3.737  0.4467  2.1317 -0.3402
 2800TIP3   OH229890   5.361   4.301   1.798  0.3423  0.0490 -0.5384
 2800TIP3    H129891   5.348   4.295   1.892  2.0017 -2.8913 -0.3765
 2800TIP3    H229892   5.281   4.342   1.765  0.4998  3.0282  2.2234
 2801TIP3   OH229893   2.095   6.486  13.772 -0.2613  0.7281  0.2664
 2801TIP3    H129894   2.000   6.479  13.765 -0.1395  0.2009 -1.5866
 2801TIP3    H229895   2.113   6.492  13.866 -2.1328  1.2266  0.6234
 2802TIP3   OH229896   4.937   5.339  12.219  0.0966  0.0166 -0.4271
 2802TIP3    H129897   4.864   5.325  12.160 -0.4131  1.1711 -0.1012
 2802TIP3    H229898   4.933   5.432  12.241  1.2162 -0.0573  0.1830
 2803TIP3   OH229899   0.289   6.378   5.541 -0.1716  0.0135  0.8690
 2803TIP3    H129900   0.254   6.403   5.626 -2.1256 -3.3644  1.2500
 2803TIP3    H229901   0.339   6.298   5.558 -2.4200 -2.0523 -1.2876
 2804TIP3   OH229902   5.488   0.498   1.014 -0.0649  0.4023 -0.0844
 2804TIP3    H129903   5.457   0.546   1.091  0.4685 -0.5486  0.7460
 2804TIP3    H229904   5.476   0.406   1.037  2.2804  0.0187 -0.1658
 2805TIP3   OH229905   1.795   3.330   3.616 -0.4948 -0.2264 -0.3191
 2805TIP3    H129906   1.851   3.255   3.634 -0.3962  0.1669  1.1669
 2805TIP3    H229907   1.727   3.297   3.557 -0.2129 -1.3566 -0.0193
 2806TIP3   OH229908   2.718   1.450   2.609  0.1480 -0.2282  0.3377
 2806TIP3    H129909   2.645   1.427   2.666 -0.2140 -1.8177 -0.7190
 2806TIP3    H229910   2.765   1.518   2.658 -2.1813  1.1044  0.8966
 2807TIP3   OH229911   2.706   5.525   0.207 -0.2918 -0.2022  0.3395
 2807TIP3    H129912   2.648   5.584   0.255 -1.0396 -0.3109 -0.4023
 2807TIP3    H229913   2.664   5.439   0.213  0.1801 -0.4315  0.4189
 2808TIP3   OH229914   1.096   1.472  16.036  0.6286  0.0383  0.0641
 2808TIP3    H129915   1.140   1.557  16.033  1.3212 -0.3263 -0.7530
 2808TIP3    H229916   1.099   1.441  15.945  0.3814 -0.8513  0.3532
 2809TIP3   OH229917   3.702   0.787  15.948 -0.3616  0.8949 -0.4780
 2809TIP3    H129918   3.617   0.788  15.992 -0.8943 -0.6194 -1.3961
 2809TIP3    H229919   3.682   0.763  15.857  1.1983 -1.7073 -0.2273
 2810TIP3   OH229920   2.038   4.765   4.338  0.3838 -0.0752 -0.9471
 2810TIP3    H129921   2.029   4.670   4.343 -0.4993  0.0078 -0.8819
 2810TIP3    H229922   2.121   4.783   4.383 -0.0281 -0.7106  0.0935
 2811TIP3   OH229923   1.748   6.650   0.183 -0.0719 -0.0432  0.2762
 2811TIP3    H129924   1.793   6.602   0.253  0.3564 -0.8977 -0.5549
 2811TIP3    H229925   1.658   6.616   0.185 -0.0102 -0.2069  0.2877
 2812TIP3   OH229926   3.299   0.978  17.114 -0.0861  0.4091 -0.0218
 2812TIP3    H129927   3.304   1.060  17.163  0.7076  0.2520  0.1636
 2812TIP3    H229928   3.369   0.924  17.149  0.0083  0.0049 -0.8009
 2813TIP3   OH229929   1.108   5.116  13.578  0.1173 -0.4108  0.2921
 2813TIP3    H129930   1.037   5.079  13.526  0.1376  0.4538 -0.3601
 2813TIP3    H229931   1.160   5.167  13.516  0.3883  0.2908  1.0770
 2814TIP3   OH229932   3.853   4.100  12.562 -0.0470  0.8349 -0.1891
 2814TIP3    H129933   3.834   4.131  12.650 -0.3890  0.8055 -0.2489
 2814TIP3    H229934   3.916   4.029  12.574 -1.1569 -0.1301  0.1548
 2815TIP3   OH229935   4.289   1.556   0.285  0.1771 -0.0805 -0.3250
 2815TIP3    H129936   4.250   1.476   0.320 -0.3282  0.9745  1.6239
 2815TIP3    H229937   4.360   1.577   0.345 -0.1767  1.3466 -0.3728
 2816TIP3   OH229938   3.820   5.145   4.552 -0.1342  0.0887 -0.2633
 2816TIP3    H129939   3.772   5.105   4.625  2.4986 -1.4589  0.7407
 2816TIP3    H229940   3.879   5.077   4.521  0.6486  1.5452 -2.1737
 2817TIP3   OH229941   6.781   6.710  12.512 -0.1198  0.5559 -0.0261
 2817TIP3    H129942   6.721   6.636  12.500 -1.4558  1.7141 -0.7969
 2817TIP3    H229943   6.807   6.705  12.604 -1.7778  0.2656  0.4613
 2818TIP3   OH229944   6.520   4.926   1.943 -0.0583  0.4756 -0.2083
 2818TIP3    H129945   6.551   4.883   1.863  1.1583 -0.4932  0.7425
 2818TIP3    H229946   6.530   4.859   2.011  0.5457  1.8055  1.0640
 2819TIP3   OH229947   1.692   2.933  13.790  0.2695 -0.4555  0.0108
 2819TIP3    H129948   1.765   2.991  13.767  0.8913 -0.6830  1.3384
 2819TIP3    H229949   1.731   2.846  13.795 -0.5640 -0.9390 -1.4781
 2820TIP3   OH229950   0.920   6.056  13.185 -0.1982  0.7229  0.2922
 2820TIP3    H129951   0.849   6.111  13.152  0.4600  0.7363 -1.1802
 2820TIP3    H229952   0.960   6.108  13.255  0.2260  2.0146 -0.8674
 2821TIP3   OH229953   4.108   5.513   5.876  0.3614  0.7154 -0.3116
 2821TIP3    H129954   4.117   5.542   5.785  0.1801  2.4338  0.1832
 2821TIP3    H229955   4.197   5.506   5.909  0.5085 -1.2990 -0.9815
 2822TIP3   OH229956   3.190   6.814   5.425 -0.2546 -0.0422 -0.4027
 2822TIP3    H129957   3.106   6.805   5.469  1.0134 -1.7201  1.8951
 2822TIP3    H229958   3.238   6.878   5.477  0.5205 -0.4296 -0.6205
 2823TIP3   OH229959   1.505   4.789  12.255 -0.7610  0.2889 -0.2192
 2823TIP3    H129960   1.529   4.880  12.236 -1.6642  0.4927 -0.4252
 2823TIP3    H229961   1.459   4.793  12.339 -1.0038  0.0535 -0.3399
 2824TIP3   OH229962   5.965   5.500  16.735 -0.2714 -0.0530  0.7947
 2824TIP3    H129963   5.921   5.467  16.656 -2.2149  0.1381  1.7530
 2824TIP3    H229964   5.973   5.423  16.792 -0.7857  0.2196  1.2436
 2825TIP3   OH229965   3.318   5.086  12.165 -0.2976 -0.0972  0.4695
 2825TIP3    H129966   3.376   5.154  12.200  1.2777 -0.6920 -0.8857
 2825TIP3    H229967   3.330   5.091  12.070 -0.9025 -1.6224  0.2905
 2826TIP3   OH229968   6.176   0.945   0.438  0.9100 -0.0433 -0.3152
 2826TIP3    H129969   6.227   0.864   0.439  1.1965  0.0917 -1.7325
 2826TIP3    H229970   6.240   1.014   0.425  0.5882  0.3519  0.1681
 2827TIP3   OH229971   1.537   6.239  11.250  0.6522  0.5120 -0.1778
 2827TIP3    H129972   1.511   6.275  11.335  1.3934  0.0235  0.2675
 2827TIP3    H229973   1.505   6.302  11.186 -0.1098  0.7740  0.4497
 2828TIP3   OH229974   0.640   0.778  15.036  0.1280  0.1323 -0.3716
 2828TIP3    H129975   0.588   0.844  15.082  0.6378  1.8566 -2.1202
 2828TIP3    H229976   0.716   0.764  15.093 -0.0247  1.0033  0.0698
 2829TIP3   OH229977   3.291   0.673  13.951  0.2811 -0.0205 -0.1006
 2829TIP3    H129978   3.275   0.762  13.920  0.7639  0.4748  1.0138
 2829TIP3    H229979   3.304   0.682  14.046  0.2718 -1.2838  0.0424
 2830TIP3   OH229980   2.800   1.859  16.928  0.4255  0.1297  0.5334
 2830TIP3    H129981   2.781   1.786  16.869  1.6010 -0.7097  1.1492
 2830TIP3    H229982   2.791   1.821  17.016 -0.4934  1.1466  0.8984
 2831TIP3   OH229983   4.182   3.400  16.245  0.1023  0.0331  0.5035
 2831TIP3    H129984   4.174   3.306  16.261  2.4913 -0.3170  0.0648
 2831TIP3    H229985   4.220   3.436  16.325  0.6426  0.3388  0.1231
 2832TIP3   OH229986   4.450   2.843  12.951  0.0248 -0.0416  0.2211
 2832TIP3    H129987   4.507   2.916  12.975 -1.1708  1.2278 -0.5822
 2832TIP3    H229988   4.383   2.842  13.020 -1.7510  1.7377 -1.3145
 2833TIP3   OH229989   0.957   5.413  12.597  0.0123  0.2335  0.1703
 2833TIP3    H129990   0.932   5.335  12.647 -0.4746 -0.1370 -0.6302
 2833TIP3    H229991   1.029   5.451  12.647  1.3487 -1.6187 -0.2466
 2834TIP3   OH229992   0.919   5.124   2.962 -0.0869 -0.1420 -0.0416
 2834TIP3    H129993   0.934   5.213   2.995 -1.4848  0.0202  0.1949
 2834TIP3    H229994   0.833   5.100   2.995  0.7430 -2.0525  0.8473
 2835TIP3   OH229995   6.583   1.785   0.652 -0.4011  0.7367  0.4010
 2835TIP3    H129996   6.610   1.831   0.732 -0.2760  0.7240  0.3653
 2835TIP3    H229997   6.494   1.818   0.635 -0.5677  0.4658  0.7484
 2836TIP3   OH229998   2.175   3.967   0.800 -0.2774  0.0393  0.3661
 2836TIP3    H129999   2.169   3.951   0.895 -0.0108  0.5367  0.4654
 2836TIP3    H230000   2.183   3.879   0.763 -1.9329 -0.2944  0.6766
 2837TIP3   OH230001   6.193   5.495  11.591  0.0727 -0.3148  0.5664
 2837TIP3    H130002   6.234   5.502  11.504 -2.0168  0.1049 -0.4439
 2837TIP3    H230003   6.229   5.415  11.628 -0.3075 -1.4914 -1.4541
 2838TIP3   OH230004   5.643   5.377   1.789 -0.3302  0.3316  0.1408
 2838TIP3    H130005   5.594   5.296   1.803 -0.4150  0.5856  1.4673
 2838TIP3    H230006   5.632   5.396   1.696 -0.8765 -0.8134 -0.0459
 2839TIP3   OH230007   0.402   3.329   5.064 -0.0782  0.1095 -0.0428
 2839TIP3    H130008   0.388   3.300   5.154 -0.6750 -0.9468 -0.4650
 2839TIP3    H230009   0.383   3.253   5.010  0.2939  0.7168 -1.0784
 2840TIP3   OH230010   6.229   1.306   0.801 -0.4460  0.6190 -0.7308
 2840TIP3    H130011   6.180   1.320   0.720 -1.0760  0.1265 -0.4467
 2840TIP3    H230012   6.198   1.221   0.834  0.9655  0.0429 -0.7898
 2841TIP3   OH230013   4.571   3.214  11.469  0.0693 -0.4368 -0.2443
 2841TIP3    H130014   4.511   3.192  11.540 -1.0923 -0.3967 -1.1830
 2841TIP3    H230015   4.576   3.310  11.470 -0.2200 -0.4195 -0.4324
 2842TIP3   OH230016   6.189   1.361   3.033 -0.7068  0.1929  0.0746
 2842TIP3    H130017   6.173   1.455   3.039 -0.8064  0.1402  0.6406
 2842TIP3    H230018   6.253   1.352   2.962  0.1224  0.7862  0.7323
 2843TIP3   OH230019   2.121   3.078   3.448  0.2868 -0.3785 -0.3318
 2843TIP3    H130020   2.057   3.108   3.512  0.6196 -0.5872  0.1028
 2843TIP3    H230021   2.153   3.158   3.407  0.5493 -0.1881  0.2285
 2844TIP3   OH230022   3.903   0.482  12.694  0.2140 -0.3285 -0.3659
 2844TIP3    H130023   3.970   0.442  12.750  0.0725  0.6974  0.5716
 2844TIP3    H230024   3.840   0.519  12.755 -0.5831 -0.2309 -1.2338
 2845TIP3   OH230025   0.013   4.555   3.175 -0.1183 -0.1083  0.0692
 2845TIP3    H130026  -0.001   4.465   3.145 -0.4775  0.4643 -1.5722
 2845TIP3    H230027   0.106   4.559   3.198  0.3170 -0.4376 -1.5485
 2846TIP3   OH230028   6.771   6.093  14.607  0.2922 -0.2782 -0.1301
 2846TIP3    H130029   6.733   6.061  14.525  0.2571 -0.0669 -0.1958
 2846TIP3    H230030   6.796   6.013  14.654  0.6748 -0.3890 -0.5171
 2847TIP3   OH230031   0.421   2.461  12.928 -0.1362  0.4239  0.7395
 2847TIP3    H130032   0.344   2.511  12.955  0.9262  3.9350 -1.9804
 2847TIP3    H230033   0.482   2.526  12.894  2.7150 -2.5077 -0.3391
 2848TIP3   OH230034   6.576   6.804  16.094  0.2560  0.2377 -0.0058
 2848TIP3    H130035   6.550   6.784  16.184  2.3079 -2.3374  0.1152
 2848TIP3    H230036   6.635   6.879  16.103  0.9105 -0.3661  0.8762
 2849TIP3   OH230037   1.750   3.676  13.236 -0.5591  0.0865  0.5103
 2849TIP3    H130038   1.812   3.674  13.163 -0.5733  1.1084  0.4540
 2849TIP3    H230039   1.737   3.584  13.259 -0.7102 -0.2693 -0.9053
 2850TIP3   OH230040   5.688   3.584  14.457  0.1773 -0.1057 -0.0589
 2850TIP3    H130041   5.632   3.564  14.532 -0.7305  1.3170 -0.3140
 2850TIP3    H230042   5.777   3.568  14.489 -0.1634  0.8129  1.4502
 2851TIP3   OH230043   3.942   3.752   2.556 -0.4467  0.0885  0.3007
 2851TIP3    H130044   3.959   3.845   2.571  0.5659 -0.2153  1.1556
 2851TIP3    H230045   3.992   3.731   2.477 -1.0050  0.3520 -0.1299
 2852TIP3   OH230046   0.913   0.761   0.005 -0.1082  0.9331  0.7062
 2852TIP3    H130047   0.856   0.838   0.011 -0.2294  0.7418  2.7548
 2852TIP3    H230048   0.963   0.774  -0.075 -1.7594  1.9936 -0.2026
 2853TIP3   OH230049   3.791   2.025  12.038 -0.1575 -0.0446 -0.3570
 2853TIP3    H130050   3.738   1.959  12.083 -0.3381  0.0952 -0.3637
 2853TIP3    H230051   3.794   2.099  12.098  1.7575 -0.7878  0.5687
 2854TIP3   OH230052   0.119   5.148  15.400 -0.1968  0.3589 -0.0798
 2854TIP3    H130053   0.087   5.083  15.337  0.5569 -0.1975  0.1088
 2854TIP3    H230054   0.208   5.122  15.419  0.8040  2.4912 -1.4034
 2855TIP3   OH230055   1.653   4.317   5.799 -0.2048 -0.2089  0.0771
 2855TIP3    H130056   1.594   4.281   5.733  0.1021  3.2841 -2.3863
 2855TIP3    H230057   1.603   4.388   5.840  0.7964 -0.1001  1.1770
 2856TIP3   OH230058   4.560   0.700   3.918 -0.2952  0.2362 -0.8608
 2856TIP3    H130059   4.647   0.662   3.908 -0.0670  0.5746 -0.1901
 2856TIP3    H230060   4.503   0.644   3.865 -0.2035 -1.7913  1.0729
 2857TIP3   OH230061   2.582   3.523  11.542 -0.6336  0.2990 -0.2773
 2857TIP3    H130062   2.543   3.448  11.497  0.0880 -0.0712 -0.3099
 2857TIP3    H230063   2.550   3.515  11.632  0.2820 -0.6829 -0.0153
 2858TIP3   OH230064   3.142   6.714   4.864  0.0097 -0.2967  0.0352
 2858TIP3    H130065   3.126   6.796   4.911  0.6420 -1.3797  2.2784
 2858TIP3    H230066   3.236   6.712   4.849  0.3511 -1.4857  1.9036
 2859TIP3   OH230067   2.203   2.828   3.608  0.1088  0.3220 -0.1411
 2859TIP3    H130068   2.191   2.903   3.549 -0.3663 -0.4316 -1.0426
 2859TIP3    H230069   2.198   2.752   3.550  0.7428 -0.4073  0.7317
 2860TIP3   OH230070   6.032   3.514  16.966  0.2572 -0.4576 -0.6256
 2860TIP3    H130071   6.029   3.525  17.061 -0.5425 -1.3384 -0.5319
 2860TIP3    H230072   5.965   3.447  16.948  0.8453 -0.7616 -1.7342
 2861TIP3   OH230073   2.479   1.543   2.455  0.5793 -0.2119  0.4203
 2861TIP3    H130074   2.402   1.493   2.426  1.1689 -1.8357  1.4815
 2861TIP3    H230075   2.535   1.477   2.496  2.6087  0.9201 -0.4400
 2862TIP3   OH230076   3.541   1.951  13.931  0.0428 -0.3491  0.2506
 2862TIP3    H130077   3.537   1.937  14.025 -0.3805 -0.3147  0.2377
 2862TIP3    H230078   3.618   2.007  13.918  0.7231 -1.2141  0.4671
 2863TIP3   OH230079   1.594   3.680  15.156  0.7081 -0.0430 -0.1488
 2863TIP3    H130080   1.669   3.707  15.209  1.4842 -1.6173 -0.3910
 2863TIP3    H230081   1.519   3.688  15.216  1.1476  0.8533  0.3139
 2864TIP3   OH230082   5.443   0.628   3.537 -0.2795  0.2153 -0.3189
 2864TIP3    H130083   5.465   0.707   3.585  0.7970  0.9327 -1.8785
 2864TIP3    H230084   5.447   0.558   3.602  1.5901  1.0714  0.5708
 2865TIP3   OH230085   2.605   2.599   3.631  0.4910  0.6645  0.2048
 2865TIP3    H130086   2.528   2.652   3.651 -0.0074 -0.2353  0.7337
 2865TIP3    H230087   2.619   2.610   3.537 -1.6779 -0.9490 -0.3701
 2866TIP3   OH230088   4.868   4.793  11.766 -0.1455  0.5939 -0.1109
 2866TIP3    H130089   4.906   4.880  11.757  0.8821  0.3120  1.2041
 2866TIP3    H230090   4.938   4.740  11.804 -1.2700 -0.4043  0.6639
 2867TIP3   OH230091   0.555   3.596   1.070 -0.5839 -0.0082 -0.1240
 2867TIP3    H130092   0.535   3.516   1.020 -1.7878  0.9223 -1.1826
 2867TIP3    H230093   0.547   3.667   1.006 -0.8247  1.0939  1.0909
 2868TIP3   OH230094   5.695   0.832   2.008  0.1893  0.0160  0.2165
 2868TIP3    H130095   5.709   0.738   2.013 -0.4768 -0.5220 -4.2491
 2868TIP3    H230096   5.779   0.871   2.033  0.7155 -1.7209  1.3195
 2869TIP3   OH230097   2.913   0.453  14.780  0.5749 -0.0797 -0.4112
 2869TIP3    H130098   2.820   0.467  14.759  0.9781 -0.2380 -2.5459
 2869TIP3    H230099   2.912   0.409  14.865 -1.3406 -0.8074 -0.7522
 2870TIP3   OH230100   3.262   0.633   4.859 -0.1784  0.2884 -0.1022
 2870TIP3    H130101   3.325   0.695   4.822  0.6914  1.0827  2.4990
 2870TIP3    H230102   3.177   0.668   4.833  0.3204  2.2518  0.7409
 2871TIP3   OH230103   0.915   4.457  11.132  0.3356 -0.1282  0.6098
 2871TIP3    H130104   0.894   4.442  11.224  0.3481 -1.3339  0.4290
 2871TIP3    H230105   0.979   4.389  11.110 -0.2944 -0.3915 -0.5014
 2872TIP3   OH230106   5.934   0.470  16.153 -0.1226 -0.4865  0.5212
 2872TIP3    H130107   5.897   0.463  16.065 -0.8523  1.8167  0.5623
 2872TIP3    H230108   5.861   0.498  16.208  0.7883  0.2271  1.4172
 2873TIP3   OH230109   2.714   1.731  12.520 -0.0537 -0.0041  0.2722
 2873TIP3    H130110   2.759   1.768  12.596  0.7136  1.3238 -0.7677
 2873TIP3    H230111   2.783   1.720  12.454 -0.8175 -0.4360 -0.4755
 2874TIP3   OH230112   0.254   1.386  14.167 -0.3099  0.2994  0.0665
 2874TIP3    H130113   0.277   1.295  14.183 -0.3469  0.1412 -0.7450
 2874TIP3    H230114   0.190   1.383  14.096 -2.1837  0.7934  1.6418
 2875TIP3   OH230115   4.007   4.972   5.566 -0.0392  0.4421 -0.2280
 2875TIP3    H130116   4.078   4.914   5.593 -0.7408 -0.1126  0.4680
 2875TIP3    H230117   4.050   5.045   5.522  0.9783  0.2684  0.4678
 2876TIP3   OH230118   1.656   5.528  10.664 -1.2364 -0.1716  0.5860
 2876TIP3    H130119   1.564   5.502  10.657 -1.0388 -0.7908  0.2765
 2876TIP3    H230120   1.691   5.520  10.575 -0.4172 -1.7206  1.0021
 2877TIP3   OH230121   4.719   2.111   2.246  0.3757 -0.5637  0.2737
 2877TIP3    H130122   4.742   2.187   2.300 -2.9565 -0.2708  1.4802
 2877TIP3    H230123   4.786   2.046   2.267  1.9608  1.2067  0.9939
 2878TIP3   OH230124   3.312   5.572  12.661  0.2286  0.0869  0.1631
 2878TIP3    H130125   3.317   5.619  12.744 -1.1274 -1.7235  1.3527
 2878TIP3    H230126   3.291   5.481  12.685  0.4599 -0.6569 -2.1225
 2879TIP3   OH230127   0.326   4.247  16.940 -0.0611 -0.5033 -0.6501
 2879TIP3    H130128   0.289   4.211  17.020  0.8225 -0.2149 -0.0945
 2879TIP3    H230129   0.251   4.263  16.883 -0.6713 -0.9920  0.0036
 2880TIP3   OH230130   6.722   0.830   0.039  0.1347  0.1504  0.1804
 2880TIP3    H130131   6.789   0.868  -0.017  0.8201  1.4823  1.7963
 2880TIP3    H230132   6.639   0.856  -0.001  0.5971  0.6664 -0.4624
 2881TIP3   OH230133   1.637   5.241   1.471 -0.0954  0.8788 -0.0778
 2881TIP3    H130134   1.677   5.166   1.426 -0.4266  0.9056 -0.4226
 2881TIP3    H230135   1.711   5.290   1.506  0.0704 -0.8759  2.2725
 2882TIP3   OH230136   0.649   0.176  17.053  0.6747  0.5398 -0.6946
 2882TIP3    H130137   0.687   0.142  17.134 -0.1652  0.0276 -0.5064
 2882TIP3    H230138   0.558   0.149  17.056  0.2003  2.0383 -0.9850
 2883TIP3   OH230139   5.988   6.616  11.839  0.5375  0.1042 -0.0683
 2883TIP3    H130140   5.930   6.540  11.838  0.5713 -0.0051  2.2198
 2883TIP3    H230141   5.930   6.691  11.824 -0.5101  0.1165  3.3008
 2884TIP3   OH230142   5.528   6.692   4.459 -0.0941  0.3167  0.9888
 2884TIP3    H130143   5.607   6.729   4.420 -0.5995 -0.0774 -0.4613
 2884TIP3    H230144   5.508   6.751   4.532  0.1086  1.8903 -0.1796
 2885TIP3   OH230145   4.667   2.573   3.255 -0.1604 -0.1481  0.2053
 2885TIP3    H130146   4.729   2.633   3.212  1.0370  0.0532  2.0587
 2885TIP3    H230147   4.632   2.625   3.328  0.6837 -1.5613  1.6782
 2886TIP3   OH230148   3.905   3.776  13.128 -0.4094 -0.2219  0.3933
 2886TIP3    H130149   3.896   3.740  13.040  1.5306  0.1150  0.0124
 2886TIP3    H230150   3.955   3.710  13.176 -1.0451 -0.1921  1.1306
 2887TIP3   OH230151   4.003   2.786  13.028  0.0191  0.2418  0.0959
 2887TIP3    H130152   3.941   2.848  13.067  0.2628 -0.4760  1.7155
 2887TIP3    H230153   3.948   2.715  12.994 -0.0891 -0.1389  1.0532
 2888TIP3   OH230154   0.073   2.984   1.593 -0.0994 -0.1375 -0.2557
 2888TIP3    H130155  -0.012   2.941   1.583 -0.5893  0.9378 -0.9189
 2888TIP3    H230156   0.107   2.990   1.504  0.2945  0.1802 -0.0874
 2889TIP3   OH230157   4.724   6.554  17.151  0.0494 -0.1188  0.1656
 2889TIP3    H130158   4.675   6.627  17.190 -0.5714  0.6584 -1.9372
 2889TIP3    H230159   4.795   6.537  17.212 -1.7874 -0.0890  2.4562
 2890TIP3   OH230160   2.767   0.156  12.329  0.1811  0.2574 -0.6731
 2890TIP3    H130161   2.730   0.225  12.384  1.0294  0.7266 -0.6767
 2890TIP3    H230162   2.861   0.176  12.324  0.2498 -0.2206 -1.6472
 2891TIP3   OH230163   2.272   3.409   2.261 -0.6075 -0.8013  0.5243
 2891TIP3    H130164   2.354   3.400   2.309 -0.3520 -0.9375  0.0670
 2891TIP3    H230165   2.213   3.452   2.323 -0.2350 -0.8253  0.9032
 2892TIP3   OH230166   4.256   3.654   4.782 -0.5478 -0.2236  0.1116
 2892TIP3    H130167   4.188   3.647   4.715 -0.6767  0.0291  0.2163
 2892TIP3    H230168   4.218   3.709   4.850 -0.0872  0.2586 -0.0207
 2893TIP3   OH230169   4.937   2.570  10.489  0.0627  0.2913  0.6960
 2893TIP3    H130170   4.941   2.597  10.580  1.6150 -0.6524  0.9458
 2893TIP3    H230171   4.873   2.499  10.487 -0.2024  0.5219  0.9928
 2894TIP3   OH230172   2.455   3.257  11.815 -0.1619 -0.4743 -0.6307
 2894TIP3    H130173   2.408   3.233  11.895  0.3486 -0.2727 -0.2652
 2894TIP3    H230174   2.396   3.318  11.770 -0.6587 -0.9584 -0.6496
 2895TIP3   OH230175   6.647   6.327  16.361  0.2154  0.0095 -0.2392
 2895TIP3    H130176   6.705   6.391  16.318 -1.9934  1.2555 -1.5409
 2895TIP3    H230177   6.621   6.268  16.290  1.1959 -1.6115  0.6898
 2896TIP3   OH230178   0.413   2.835  17.155 -0.2560  0.0988  0.2013
 2896TIP3    H130179   0.475   2.884  17.100 -0.4569  1.9067  1.5124
 2896TIP3    H230180   0.442   2.744  17.147  1.3243  0.6345 -0.8073
 2897TIP3   OH230181   5.076   6.756  13.862 -0.2219  0.6651 -0.2158
 2897TIP3    H130182   5.099   6.844  13.833  0.9850  0.2783 -0.5038
 2897TIP3    H230183   5.158   6.707  13.856 -1.0029 -0.6388 -0.6588
 2898TIP3   OH230184   5.041   1.568  12.071 -0.0105  0.3003 -0.1610
 2898TIP3    H130185   5.034   1.526  11.986  1.0625 -0.5429  0.1380
 2898TIP3    H230186   5.135   1.584  12.083 -0.2251  1.1772  0.5016
 2899TIP3   OH230187   4.474   2.308   1.621  0.2572  0.3416  0.2171
 2899TIP3    H130188   4.480   2.233   1.562  2.6174 -0.5754  1.5093
 2899TIP3    H230189   4.504   2.383   1.569 -1.8833  0.4584 -1.0015
 2900TIP3   OH230190   1.305   4.421   2.840 -0.1913 -0.6168  0.0536
 2900TIP3    H130191   1.363   4.497   2.840 -0.4436 -0.4197  0.1311
 2900TIP3    H230192   1.229   4.449   2.892  0.2623 -1.3489  1.1463
 2901TIP3   OH230193   3.417   2.129   2.588 -0.3035  0.5474  0.0638
 2901TIP3    H130194   3.488   2.110   2.527 -0.3930 -1.6889  0.5981
 2901TIP3    H230195   3.461   2.144   2.672 -0.4162 -0.6892  0.3617
 2902TIP3   OH230196   6.520   3.247  11.962  0.0978 -0.2769  0.1743
 2902TIP3    H130197   6.431   3.213  11.956  0.1274 -0.1577 -1.6181
 2902TIP3    H230198   6.574   3.169  11.979 -0.2594 -0.4894  0.3344
 2903TIP3   OH230199   3.713   1.968  11.766  0.3933  0.1322  0.8218
 2903TIP3    H130200   3.727   1.991  11.858 -0.1688  2.0071  0.4944
 2903TIP3    H230201   3.787   2.006  11.720 -0.4620  1.2028  0.2719
 2904TIP3   OH230202   5.493   6.325  12.114  0.1911  0.2888  0.5397
 2904TIP3    H130203   5.516   6.250  12.059  0.6547  1.8955 -1.5935
 2904TIP3    H230204   5.398   6.332  12.108  0.2705  0.6701 -0.4041
 2905TIP3   OH230205   6.507   2.957   0.889  0.0750  0.9008  0.1327
 2905TIP3    H130206   6.505   2.877   0.942 -1.2742  0.9655  0.2252
 2905TIP3    H230207   6.428   3.005   0.916  0.7769  2.1921 -0.0290
 2906TIP3   OH230208   4.125   2.315   0.087  0.1018  0.1449 -0.7627
 2906TIP3    H130209   4.091   2.292   0.000 -2.5872 -0.4614  0.3387
 2906TIP3    H230210   4.187   2.245   0.108  1.5723  0.8388 -2.5437
 2907TIP3   OH230211   4.745   6.363   4.934  0.6531  0.4727 -0.3078
 2907TIP3    H130212   4.753   6.336   5.026  0.1653 -0.9754 -0.6689
 2907TIP3    H230213   4.655   6.341   4.911  0.7248  0.9877 -1.0930
 2908TIP3   OH230214   0.609   3.838  14.282  0.2829 -0.1781 -0.5458
 2908TIP3    H130215   0.658   3.834  14.365  1.1957  0.9049 -0.9995
 2908TIP3    H230216   0.562   3.755  14.278 -1.3089  0.4900  1.9629
 2909TIP3   OH230217   1.843   4.225   2.041  0.1327  0.0044  0.1550
 2909TIP3    H130218   1.913   4.289   2.049  0.3402 -0.2649  0.5088
 2909TIP3    H230219   1.778   4.267   1.984  1.8934 -0.8581 -2.7290
 2910TIP3   OH230220   2.780   5.264   1.391  0.2185  0.1738  0.4800
 2910TIP3    H130221   2.858   5.209   1.394  2.4279  2.6865 -3.0480
 2910TIP3    H230222   2.748   5.255   1.301 -2.6961  0.4569  1.3901
 2911TIP3   OH230223   4.250   5.136   2.120  0.2330  0.0759  0.5394
 2911TIP3    H130224   4.176   5.141   2.181  1.0555  0.7597  1.5048
 2911TIP3    H230225   4.210   5.144   2.034 -0.8507  0.1310  1.0271
 2912TIP3   OH230226   5.194   3.974   6.115 -0.2633  0.0963 -0.5403
 2912TIP3    H130227   5.235   3.888   6.131  0.3301  0.0817 -1.9877
 2912TIP3    H230228   5.235   4.032   6.179  0.6843 -0.3148 -0.7628
 2913TIP3   OH230229   2.718   2.956   6.073 -0.2335  0.2103 -0.4508
 2913TIP3    H130230   2.720   3.038   6.023  0.0828  1.1445  1.0387
 2913TIP3    H230231   2.788   2.965   6.137 -1.9764 -0.0025  1.5834
 2914TIP3   OH230232   3.229   1.789  11.534 -0.5776  0.0693  0.0353
 2914TIP3    H130233   3.209   1.855  11.601  0.3881 -0.1468  0.5529
 2914TIP3    H230234   3.264   1.715  11.584 -1.1644 -0.6362 -0.5902
 2915TIP3   OH230235   5.830   5.550   1.598 -0.2489 -0.3526 -0.0502
 2915TIP3    H130236   5.806   5.524   1.509 -0.3267 -2.0095  0.4328
 2915TIP3    H230237   5.901   5.490   1.622  1.0093  1.2371  0.3779
 2916TIP3   OH230238   0.517   4.437  15.973 -0.3085  0.1981 -0.4887
 2916TIP3    H130239   0.516   4.515  15.917 -2.3292 -1.0468 -2.3419
 2916TIP3    H230240   0.427   4.405  15.972 -0.1323 -0.6995  2.4349
 2917TIP3   OH230241   2.883   1.654  14.131  0.2102 -0.4003  0.1452
 2917TIP3    H130242   2.874   1.675  14.223 -0.1481  2.0623 -0.3747
 2917TIP3    H230243   2.852   1.564  14.123  3.0665 -1.8017  2.8455
 2918TIP3   OH230244   3.695   4.734  12.243  0.0614 -0.3897  0.0554
 2918TIP3    H130245   3.619   4.792  12.250 -0.7219 -1.5510  1.8366
 2918TIP3    H230246   3.659   4.648  12.222  1.0670 -0.6084 -0.9038
 2919TIP3   OH230247   1.221   4.179  17.195 -0.2722  0.5688 -0.1958
 2919TIP3    H130248   1.185   4.265  17.219 -2.1344 -0.4719  1.0685
 2919TIP3    H230249   1.152   4.139  17.141 -0.4395 -0.9316  1.0632
 2920TIP3   OH230250   2.862   0.549   1.140 -0.5779  0.7216 -0.4289
 2920TIP3    H130251   2.805   0.568   1.214  1.5245  0.5020  1.3358
 2920TIP3    H230252   2.822   0.473   1.098 -1.7252  0.7409  0.5882
 2921TIP3   OH230253   3.421   3.220   4.609  0.1044  0.0525  0.3231
 2921TIP3    H130254   3.392   3.277   4.680  0.5997  0.4249  0.2306
 2921TIP3    H230255   3.342   3.203   4.558 -0.2422 -0.1586  0.9173
 2922TIP3   OH230256   3.570   6.728  11.307 -0.1278 -0.1952 -0.0346
 2922TIP3    H130257   3.505   6.727  11.237 -0.0120 -0.7703 -0.1346
 2922TIP3    H230258   3.655   6.720  11.262  0.0557  1.0020  0.0587
 2923TIP3   OH230259   2.541   2.444  11.393  0.2109  0.5352 -0.2004
 2923TIP3    H130260   2.467   2.401  11.350 -0.2618  1.5558 -0.4389
 2923TIP3    H230261   2.618   2.394  11.365 -0.1916  0.6104 -1.4797
 2924TIP3   OH230262   3.199   0.342  12.741  0.3159 -0.4119  0.3649
 2924TIP3    H130263   3.205   0.295  12.824  0.9786 -0.9235  0.0425
 2924TIP3    H230264   3.159   0.426  12.763 -2.6359 -1.7716  0.6710
 2925TIP3   OH230265   5.122   5.656  14.420 -0.4719 -0.0733 -0.3117
 2925TIP3    H130266   5.209   5.688  14.396 -0.1866 -1.1889 -0.8247
 2925TIP3    H230267   5.070   5.735  14.430  0.2148  0.5609 -1.4830
 2926TIP3   OH230268   3.216   1.812   5.703  0.0795  0.6958  0.3858
 2926TIP3    H130269   3.143   1.765   5.661 -1.4001  1.1778  2.2391
 2926TIP3    H230270   3.295   1.771   5.667 -1.1162 -0.9052 -0.5770
 2927TIP3   OH230271   6.821   1.375  16.044 -0.5779  0.3605 -0.3374
 2927TIP3    H130272   6.889   1.442  16.059  0.0385  0.1677 -2.0390
 2927TIP3    H230273   6.748   1.423  16.005 -0.3746  0.1457 -0.9885
 2928TIP3   OH230274   2.730   0.142  11.450  0.3257  0.7163 -0.1823
 2928TIP3    H130275   2.648   0.101  11.422 -0.1861 -0.9571  3.2476
 2928TIP3    H230276   2.703   0.207  11.515  1.6589  0.7992  0.3215
 2929TIP3   OH230277   2.899   6.729   2.840 -0.2501 -0.1479  0.4370
 2929TIP3    H130278   2.957   6.801   2.816 -0.5112  0.7120  2.1917
 2929TIP3    H230279   2.868   6.694   2.757  1.4052  0.4910 -0.5026
 2930TIP3   OH230280   2.069   2.993  16.941 -0.0225 -0.3167  0.6326
 2930TIP3    H130281   2.053   2.921  17.002  1.4694 -0.1912  1.2174
 2930TIP3    H230282   2.082   2.950  16.856 -0.7514 -0.5899  0.6458
 2931TIP3   OH230283   3.852   2.785  10.596 -0.2349 -0.1146 -0.5005
 2931TIP3    H130284   3.795   2.851  10.556  0.9886  1.1545 -0.2335
 2931TIP3    H230285   3.889   2.830  10.672 -0.1939 -1.4853  0.3077
 2932TIP3   OH230286   4.544   2.403   4.484 -0.1242 -0.0817  0.0794
 2932TIP3    H130287   4.454   2.420   4.459 -0.0359 -0.5735 -0.6113
 2932TIP3    H230288   4.537   2.347   4.561 -0.4547 -2.0757 -1.3229
 2933TIP3   OH230289   2.892   2.750   2.523  0.1512 -0.3392  0.3630
 2933TIP3    H130290   2.940   2.721   2.445  2.8490  0.9040  1.4376
 2933TIP3    H230291   2.899   2.677   2.584 -0.5219 -0.6714  0.0522
 2934TIP3   OH230292   4.046   6.632  11.656  0.0771 -0.3066 -0.3502
 2934TIP3    H130293   4.123   6.669  11.699 -1.0599  1.8584 -0.0419
 2934TIP3    H230294   4.070   6.627  11.563  0.2580  1.3289 -0.4156
 2935TIP3   OH230295   5.737   2.215  12.966  0.0412 -0.3593  0.1804
 2935TIP3    H130296   5.716   2.263  13.046  0.0420 -0.2907  0.1399
 2935TIP3    H230297   5.773   2.132  12.996 -1.8875 -1.2242  0.2963
 2936TIP3   OH230298   2.357   2.378   3.129 -0.4630 -0.5951 -0.0094
 2936TIP3    H130299   2.412   2.309   3.094 -2.1908 -2.2969  0.4708
 2936TIP3    H230300   2.307   2.410   3.054  1.2346  1.0961 -0.4877
 2937TIP3   OH230301   2.539   3.003  17.014  0.1347 -0.0186 -0.6489
 2937TIP3    H130302   2.456   3.047  17.035 -1.1126 -1.6552 -1.8466
 2937TIP3    H230303   2.546   2.933  17.079  1.9862  1.6686  1.1025
 2938TIP3   OH230304   4.261   4.637   2.774  0.3921  0.2296  0.0629
 2938TIP3    H130305   4.300   4.550   2.769 -0.0767  0.0606 -1.0316
 2938TIP3    H230306   4.334   4.697   2.764  0.4952 -0.0718 -1.1251
 2939TIP3   OH230307   0.448   6.661  14.361 -0.0488  0.0739 -0.1515
 2939TIP3    H130308   0.424   6.745  14.321  1.5395  1.4528  1.6376
 2939TIP3    H230309   0.543   6.664  14.369  0.4986 -3.3193 -2.9093
 2940TIP3   OH230310   1.291   5.106   5.928 -0.4590 -0.2858 -0.2277
 2940TIP3    H130311   1.265   5.198   5.933  0.3045 -0.0732  0.0705
 2940TIP3    H230312   1.266   5.079   5.839 -1.2480  0.0257 -0.1069
 2941TIP3   OH230313   2.786   2.164  15.961  0.2677 -0.2797 -0.3064
 2941TIP3    H130314   2.828   2.089  16.002  1.0342 -0.9802 -2.2835
 2941TIP3    H230315   2.822   2.240  16.008  3.4671 -0.8663 -1.5843
 2942TIP3   OH230316   4.213   3.570   1.319 -0.3725 -0.0418 -0.1015
 2942TIP3    H130317   4.288   3.535   1.368 -1.7500 -0.7640  1.5671
 2942TIP3    H230318   4.148   3.500   1.320 -0.9153  0.3507 -2.0227
 2943TIP3   OH230319   2.670   6.225  11.375  0.9629 -0.0883 -0.5397
 2943TIP3    H130320   2.687   6.312  11.339 -0.0171 -0.1791 -1.2745
 2943TIP3    H230321   2.575   6.215  11.371  1.0929 -1.4734 -1.1943
 2944TIP3   OH230322   5.587   1.935   2.970 -0.9794  0.0418  0.2985
 2944TIP3    H130323   5.573   1.861   2.910 -0.7318  0.2583 -0.0299
 2944TIP3    H230324   5.653   1.904   3.032  0.7898  0.7196 -1.1632
 2945TIP3   OH230325   4.516   5.165  11.798 -0.5681  0.3240 -0.1215
 2945TIP3    H130326   4.424   5.184  11.779  0.0279  2.0122 -1.5355
 2945TIP3    H230327   4.558   5.250  11.802  0.5838 -0.2352  2.8607
 2946TIP3   OH230328   4.372   2.161   0.055 -0.5071  0.4195  0.3273
 2946TIP3    H130329   4.402   2.179  -0.034 -2.6223  0.6677 -0.3967
 2946TIP3    H230330   4.445   2.188   0.111 -0.1689  2.9516 -1.1846
 2947TIP3   OH230331   3.838   0.586   0.305 -0.4546 -0.4017 -0.3615
 2947TIP3    H130332   3.802   0.542   0.383 -0.2659 -2.7881 -1.5132
 2947TIP3    H230333   3.799   0.538   0.231  0.9614  0.4535 -1.7127
 2948TIP3   OH230334   1.632   6.410   3.163  0.0278 -0.3199  0.4702
 2948TIP3    H130335   1.691   6.359   3.220  0.2930  1.5478  1.9689
 2948TIP3    H230336   1.687   6.438   3.090  0.5737 -0.0253  0.9807
 2949TIP3   OH230337   4.513   6.662  16.424 -0.0534  0.4289  0.1561
 2949TIP3    H130338   4.449   6.726  16.454  1.2776  2.7532 -1.6334
 2949TIP3    H230339   4.531   6.686  16.333  0.9981 -2.1352 -0.4017
 2950TIP3   OH230340   6.417   1.772   5.221  0.6098 -0.3230  0.1491
 2950TIP3    H130341   6.488   1.793   5.281 -0.3990  0.5324  1.0873
 2950TIP3    H230342   6.455   1.785   5.134  1.8196 -0.6576  0.6042
 2951TIP3   OH230343   0.429   1.830  11.283  0.2738 -0.7431  0.4646
 2951TIP3    H130344   0.446   1.909  11.232 -0.5479 -0.4958  0.5640
 2951TIP3    H230345   0.509   1.778  11.273 -0.0081 -0.8756 -1.3605
 2952TIP3   OH230346   6.626   0.643  11.566  0.0530 -0.2586 -0.1909
 2952TIP3    H130347   6.622   0.576  11.497 -0.0596  1.9792 -2.5283
 2952TIP3    H230348   6.697   0.614  11.624 -1.3368 -3.3947  0.1477
 2953TIP3   OH230349   5.466   5.495  14.529 -0.2718  0.4063 -0.6424
 2953TIP3    H130350   5.472   5.526  14.439 -1.5008  1.8154 -0.2701
 2953TIP3    H230351   5.553   5.510  14.566 -0.0881  0.8999 -1.2602
 2954TIP3   OH230352   5.617   2.535   4.382  0.4884 -0.0461  0.0948
 2954TIP3    H130353   5.567   2.586   4.317  1.4121 -0.4414 -0.9650
 2954TIP3    H230354   5.700   2.582   4.390 -0.1363  0.8052  2.1050
 2955TIP3   OH230355   1.465   3.019   1.488  0.4439 -0.4519  0.0666
 2955TIP3    H130356   1.371   3.011   1.474 -0.0408  0.2458  2.4212
 2955TIP3    H230357   1.485   3.111   1.470  0.2160 -0.0690  1.6122
 2956TIP3   OH230358   2.579   5.872  14.203 -0.1840 -0.0657 -0.7060
 2956TIP3    H130359   2.635   5.795  14.192  2.1313  1.3385  0.5172
 2956TIP3    H230360   2.561   5.875  14.297  1.0708  1.7126 -0.4874
 2957TIP3   OH230361   2.350   5.426   0.388 -0.4235  0.2474 -0.2462
 2957TIP3    H130362   2.371   5.436   0.480 -0.7245 -0.0458 -0.1431
 2957TIP3    H230363   2.414   5.364   0.354 -0.5282  0.0905 -0.1555
 2958TIP3   OH230364   4.738   1.992   3.474  0.0511 -0.0217 -0.1566
 2958TIP3    H130365   4.807   2.029   3.530  0.8889 -0.1752 -1.0549
 2958TIP3    H230366   4.781   1.980   3.389 -0.3948 -2.3043 -0.1210
 2959TIP3   OH230367   0.975   4.774  11.044 -0.1221  0.0924  0.4227
 2959TIP3    H130368   0.948   4.687  11.072  0.8942 -0.4086 -0.1369
 2959TIP3    H230369   1.066   4.782  11.071  0.4455  0.1550 -1.3902
 2960TIP3   OH230370   1.681   0.252  15.263 -0.3917  0.1855  0.5035
 2960TIP3    H130371   1.713   0.335  15.228  0.2062 -0.2090  0.1021
 2960TIP3    H230372   1.677   0.194  15.187 -1.3921  0.0180  0.6698
 2961TIP3   OH230373   0.781   3.391  11.800  0.2464 -0.1478  0.3624
 2961TIP3    H130374   0.829   3.324  11.752  1.4448 -0.1703  1.5571
 2961TIP3    H230375   0.736   3.343  11.870  0.2330  0.1562  0.5640
 2962TIP3   OH230376   1.329   5.622  15.600 -0.1907 -0.2577 -0.3582
 2962TIP3    H130377   1.253   5.661  15.556  0.5106  0.2509 -1.1367
 2962TIP3    H230378   1.337   5.535  15.561  0.5977  0.2912 -1.4945
 2963TIP3   OH230379   4.712   3.889   4.612 -0.0828 -0.4356 -0.3252
 2963TIP3    H130380   4.753   3.844   4.686 -0.1856  0.1057  0.0565
 2963TIP3    H230381   4.623   3.908   4.641 -0.5848 -1.4625 -1.0973
 2964TIP3   OH230382   0.637   2.007   5.105  0.0960  0.8621 -0.3303
 2964TIP3    H130383   0.652   1.934   5.166  0.7708  1.2419 -0.0363
 2964TIP3    H230384   0.549   1.991   5.071  0.2531 -0.1226 -0.3114
 2965TIP3   OH230385   3.867   6.271  14.521  0.0499  0.0048  0.7248
 2965TIP3    H130386   3.890   6.306  14.435  0.5915  0.5807  1.0959
 2965TIP3    H230387   3.857   6.177  14.507  2.9249 -0.3840  0.5468
 2966TIP3   OH230388   6.465   6.045  11.575  0.1132  0.6673  0.4414
 2966TIP3    H130389   6.533   6.077  11.516 -0.1909 -2.1875 -1.6984
 2966TIP3    H230390   6.512   5.991  11.639  0.0513 -0.1659 -0.1920
 2967TIP3   OH230391   2.456   1.727  11.561 -0.0394  0.0864 -0.2759
 2967TIP3    H130392   2.425   1.811  11.597 -0.1618  2.2873 -4.8203
 2967TIP3    H230393   2.382   1.668  11.571 -1.8421  2.0507 -1.2984
 2968TIP3   OH230394   0.795   0.229  12.210 -0.1104  0.2618 -0.3503
 2968TIP3    H130395   0.870   0.184  12.172  1.2191  1.3883  0.8244
 2968TIP3    H230396   0.774   0.299  12.147 -0.6742 -0.5078 -1.0358
 2969TIP3   OH230397   2.223   0.065  12.810 -0.6038 -0.3097 -0.4417
 2969TIP3    H130398   2.201   0.042  12.901 -2.4489 -2.7211 -1.3900
 2969TIP3    H230399   2.318   0.082  12.813 -0.8821  1.4114  2.1956
 2970TIP3   OH230400   3.270   5.829  15.692 -0.2764 -0.0386 -0.5774
 2970TIP3    H130401   3.226   5.896  15.639 -0.7568  0.4074  0.3653
 2970TIP3    H230402   3.259   5.748  15.642  0.5328  0.6052 -1.8569
 2971TIP3   OH230403   3.804   5.096  11.103 -0.2526 -0.3734  0.2519
 2971TIP3    H130404   3.800   5.038  11.179  0.1009 -0.4299  0.2269
 2971TIP3    H230405   3.803   5.037  11.028  0.1907 -0.3542  0.2277
 2972TIP3   OH230406   1.147   0.668  13.674 -1.2358 -0.2880 -0.1237
 2972TIP3    H130407   1.069   0.723  13.677 -0.7283  0.7739 -2.9157
 2972TIP3    H230408   1.114   0.579  13.672 -2.4104  0.1413 -1.0174
 2973TIP3   OH230409   5.388   1.702  14.109 -1.0953  0.1760  0.0081
 2973TIP3    H130410   5.347   1.777  14.152  0.1165  0.4252  0.7754
 2973TIP3    H230411   5.387   1.633  14.175 -0.7265  0.0310 -0.1331
 2974TIP3   OH230412   2.016   2.223   2.450 -0.4996 -0.3111  0.3972
 2974TIP3    H130413   1.978   2.168   2.381 -0.3930 -1.2501  1.0638
 2974TIP3    H230414   2.029   2.163   2.523  2.4862 -0.1200  0.1448
 2975TIP3   OH230415   3.711   3.260   2.278  0.4459  0.2386  0.5628
 2975TIP3    H130416   3.670   3.196   2.337 -0.6106  0.9569  0.6417
 2975TIP3    H230417   3.788   3.215   2.244  0.2239 -0.7514  1.3026
 2976TIP3   OH230418   3.956   1.966   0.590  0.1619  0.0403 -0.2754
 2976TIP3    H130419   4.025   1.928   0.535 -0.0873 -1.3504  0.3065
 2976TIP3    H230420   3.938   2.051   0.551  2.6204  0.7103 -0.0990
 2977TIP3   OH230421   0.585   4.649  12.455 -0.1863  0.1148 -0.9764
 2977TIP3    H130422   0.539   4.627  12.535  1.4058 -0.2851 -0.1224
 2977TIP3    H230423   0.564   4.578  12.394  2.4177 -2.3276  0.7344
 2978TIP3   OH230424   2.716   3.027  15.307 -0.3690  0.1239  0.4785
 2978TIP3    H130425   2.777   3.099  15.324  0.4168 -0.3706 -0.1954
 2978TIP3    H230426   2.663   3.057  15.233 -0.9690  0.5589  1.0723
 2979TIP3   OH230427   1.555   2.571   1.159  0.7351  0.5652  0.7887
 2979TIP3    H130428   1.601   2.614   1.231  0.6152 -2.8008  3.0981
 2979TIP3    H230429   1.473   2.540   1.198 -1.4618  2.3844 -2.0344
 2980TIP3   OH230430   3.466   5.087   3.350  0.0791 -0.7364  0.2629
 2980TIP3    H130431   3.480   5.030   3.275  0.0894  0.8900 -1.0383
 2980TIP3    H230432   3.375   5.117   3.341  0.1787 -0.2760  0.7158
 2981TIP3   OH230433   5.362   0.856  11.965 -0.2404 -1.0065  0.2023
 2981TIP3    H130434   5.409   0.910  11.901  0.3736 -1.4217  0.2920
 2981TIP3    H230435   5.326   0.784  11.913  0.9873 -1.8172  0.4295
 2982TIP3   OH230436   3.585   1.428   5.553  0.2896 -0.4306  0.2723
 2982TIP3    H130437   3.677   1.456   5.549  0.2540 -0.3810 -0.5319
 2982TIP3    H230438   3.553   1.460   5.637  0.6215  0.8136 -0.0455
 2983TIP3   OH230439   2.961   4.507   2.536 -0.2373 -0.3510  0.4346
 2983TIP3    H130440   2.975   4.486   2.629 -1.2654 -0.5083  0.5623
 2983TIP3    H230441   3.002   4.434   2.489 -1.2772 -1.1970  0.8141
 2984TIP3   OH230442   6.710   4.049   5.278  0.0421 -0.5010  0.0391
 2984TIP3    H130443   6.800   4.076   5.259  0.0019 -0.0886  0.4132
 2984TIP3    H230444   6.666   4.051   5.193  0.1251  0.3336  0.0024
 2985TIP3   OH230445   5.532   1.078  12.114 -0.6399  0.2275 -0.3767
 2985TIP3    H130446   5.491   1.124  12.041 -1.2230 -1.0678 -0.8965
 2985TIP3    H230447   5.618   1.052  12.080 -0.9542 -0.4704 -0.6524
 2986TIP3   OH230448   1.421   1.296   0.611  0.3628  0.0316  0.1177
 2986TIP3    H130449   1.393   1.206   0.627  0.3047 -0.1262 -0.8016
 2986TIP3    H230450   1.476   1.291   0.533 -1.0618  0.9982 -1.0218
 2987TIP3   OH230451   0.394   2.179  12.909 -0.1447  0.3668 -0.1626
 2987TIP3    H130452   0.395   2.271  12.933  0.7596  0.2857  0.1326
 2987TIP3    H230453   0.437   2.134  12.982 -0.8474 -0.3287 -0.1560
 2988TIP3   OH230454   5.149   3.799  12.881  0.4049 -0.3087 -0.3588
 2988TIP3    H130455   5.175   3.859  12.951 -0.8830  0.8551 -0.8188
 2988TIP3    H230456   5.178   3.841  12.801 -2.5264  0.9958 -0.8889
 2989TIP3   OH230457   4.816   6.397   1.690 -1.0116  0.0712  0.1206
 2989TIP3    H130458   4.861   6.475   1.722 -0.8763  0.0006  0.1059
 2989TIP3    H230459   4.731   6.399   1.733 -0.9986  0.2122  0.1420
 2990TIP3   OH230460   2.122   2.672  16.488 -0.0097  0.1222 -0.2639
 2990TIP3    H130461   2.101   2.721  16.567  0.0031  0.2613 -0.3460
 2990TIP3    H230462   2.210   2.637  16.503 -1.3067 -2.8556  1.2962
 2991TIP3   OH230463   3.550   0.971   2.634 -0.2271 -0.1645 -0.2227
 2991TIP3    H130464   3.511   1.045   2.586 -1.5800 -2.2868 -2.6234
 2991TIP3    H230465   3.479   0.938   2.690  0.2056 -0.0097  0.4289
 2992TIP3   OH230466   1.844   5.748   3.295 -0.1047 -0.7690  0.0383
 2992TIP3    H130467   1.851   5.790   3.381 -1.1272 -0.7136  0.1041
 2992TIP3    H230468   1.877   5.659   3.309  0.9800 -0.3566  0.1689
 2993TIP3   OH230469   1.908   3.245   3.897  0.0425 -0.2040  0.6477
 2993TIP3    H130470   1.944   3.332   3.911 -1.9773  0.5256  1.6418
 2993TIP3    H230471   1.820   3.260   3.863 -0.4861 -1.8481  1.1843
 2994TIP3   OH230472   3.824   0.433  16.894  0.2077 -0.1408  0.2292
 2994TIP3    H130473   3.751   0.379  16.863  1.2617 -1.9736  0.7451
 2994TIP3    H230474   3.868   0.463  16.815 -0.8378  0.6355 -0.0776
 2995TIP3   OH230475   4.496   5.567  16.258 -0.1342 -0.1436 -0.0846
 2995TIP3    H130476   4.488   5.524  16.343 -1.1392 -0.9404 -0.5693
 2995TIP3    H230477   4.557   5.512  16.209  0.1036  0.0769 -0.0431
 2996TIP3   OH230478   4.901   0.094   2.241 -0.1356  1.1075  0.0487
 2996TIP3    H130479   4.859   0.100   2.327 -0.7765  0.7867 -0.2343
 2996TIP3    H230480   4.844   0.143   2.183 -0.1027  0.6956 -0.3367
 2997TIP3   OH230481   3.931   2.481   1.276  0.0398  0.1003  0.1019
 2997TIP3    H130482   3.860   2.417   1.264 -0.0760  0.2753 -0.1813
 2997TIP3    H230483   3.990   2.440   1.339 -0.2884 -0.0709  0.3034
 2998TIP3   OH230484   6.780   3.003   0.198 -1.0347  0.3275 -0.5863
 2998TIP3    H130485   6.775   2.913   0.230 -0.2879  0.4684 -0.0299
 2998TIP3    H230486   6.689   3.031   0.190 -1.2771 -0.5626 -1.0352
 2999TIP3   OH230487   5.004   6.549   6.048 -0.0902  0.6127  0.5948
 2999TIP3    H130488   4.919   6.511   6.073  0.4211 -0.2990  1.0134
 2999TIP3    H230489   4.984   6.606   5.973 -1.1843  1.0198  1.1735
 3000TIP3   OH230490   5.056   3.884   0.435 -0.5254  1.0167  0.2977
 3000TIP3    H130491   4.981   3.863   0.380 -0.7628  0.3865  0.8462
 3000TIP3    H230492   5.095   3.799   0.456 -0.7626  1.2037  1.5509
 3001TIP3   OH230493   1.018   3.221  10.784 -0.0724 -0.1851  0.5478
 3001TIP3    H130494   0.963   3.187  10.713  0.7971  0.6296 -0.5582
 3001TIP3    H230495   1.003   3.315  10.783 -0.7885 -0.2569  2.1277
 3002TIP3   OH230496   6.345   5.096   4.324 -0.4967  0.2293  0.5306
 3002TIP3    H130497   6.410   5.050   4.270 -0.6599  2.4997 -1.8251
 3002TIP3    H230498   6.398   5.144   4.388  0.2062  1.4751 -0.8991
 3003TIP3   OH230499   0.604   4.083  12.984 -0.3216  0.0315 -0.3504
 3003TIP3    H130500   0.650   4.074  12.900 -0.1823  0.3828 -0.3134
 3003TIP3    H230501   0.660   4.141  13.036 -0.0501 -0.7635  0.2524
 3004TIP3   OH230502   4.464   2.883  16.297 -0.2966  0.1471 -0.9359
 3004TIP3    H130503   4.550   2.864  16.260  0.1546  2.3233 -1.1370
 3004TIP3    H230504   4.446   2.973  16.272 -1.4644  0.6195  1.3183
 3005TIP3   OH230505   0.253   4.728  12.316  0.3440 -0.6520 -0.0640
 3005TIP3    H130506   0.207   4.667  12.259  0.1584  1.0296 -1.8051
 3005TIP3    H230507   0.194   4.803  12.322  0.1400 -0.9149  2.7805
 3006TIP3   OH230508   5.566   4.303  15.025  0.5361 -0.1258 -0.0673
 3006TIP3    H130509   5.585   4.342  15.110 -1.1136  1.7706 -0.4842
 3006TIP3    H230510   5.599   4.214  15.031  1.3680  0.2772  2.1907
 3007TIP3   OH230511   2.634   2.957   0.405  0.6460  0.1797  0.2090
 3007TIP3    H130512   2.645   2.866   0.377  2.0516  0.2413  0.4814
 3007TIP3    H230513   2.548   2.959   0.447  0.6384 -1.0572  0.2943
 3008TIP3   OH230514   3.585   6.358   4.336 -0.2874  0.3725 -0.0133
 3008TIP3    H130515   3.603   6.371   4.429  0.3054  0.7755 -0.1833
 3008TIP3    H230516   3.489   6.350   4.332 -0.4468  1.6768  0.4783
 3009TIP3   OH230517   0.842   1.517   5.718  0.2571 -0.3344  0.3184
 3009TIP3    H130518   0.839   1.422   5.708 -2.1880 -0.2923  0.1334
 3009TIP3    H230519   0.765   1.538   5.770 -0.0068  1.6763 -0.7850
 3010TIP3   OH230520   6.434   2.529  11.441  0.3932 -0.6090  0.1279
 3010TIP3    H130521   6.416   2.483  11.522 -0.2503  0.8745  0.8712
 3010TIP3    H230522   6.370   2.494  11.378 -0.3086 -0.4909  0.7690
 3011TIP3   OH230523   2.314   3.389  13.057  0.1051  0.0962  0.0813
 3011TIP3    H130524   2.375   3.326  13.095  0.9337  0.4532 -0.6298
 3011TIP3    H230525   2.366   3.438  12.994 -0.8141  0.7155 -0.2171
 3012TIP3   OH230526   2.617   0.604   3.457  0.0354 -0.0627  0.1275
 3012TIP3    H130527   2.559   0.639   3.389  0.4001 -0.5134 -0.4250
 3012TIP3    H230528   2.630   0.677   3.517  1.2858  0.9851 -1.3271
 3013TIP3   OH230529   4.075   1.831   5.296 -1.0142 -0.3897 -0.1191
 3013TIP3    H130530   4.136   1.856   5.227 -0.9101  0.5646  0.3051
 3013TIP3    H230531   4.102   1.742   5.320 -0.5884 -0.4546 -0.7916
 3014TIP3   OH230532   5.725   0.297   0.429 -0.3049  0.0545 -0.5164
 3014TIP3    H130533   5.741   0.374   0.375  0.1697  0.9978  0.9287
 3014TIP3    H230534   5.801   0.292   0.488 -0.7812 -0.9667  0.0446
 3015TIP3   OH230535   3.502   1.725   3.032  0.1020 -0.4385  0.5123
 3015TIP3    H130536   3.411   1.731   3.060 -0.5175 -0.7161 -1.2942
 3015TIP3    H230537   3.542   1.807   3.061 -0.3751 -0.8250  2.3891
 3016TIP3   OH230538   3.966   6.556  12.941 -0.0692 -0.3437  0.5353
 3016TIP3    H130539   3.875   6.526  12.932 -0.2332 -0.0712  1.2172
 3016TIP3    H230540   4.014   6.479  12.970  0.0427 -0.6505 -0.4383
 3017TIP3   OH230541   0.462   0.941   0.523 -0.1036 -0.3004  0.0656
 3017TIP3    H130542   0.421   0.887   0.456 -1.2002 -0.8524  1.1392
 3017TIP3    H230543   0.440   1.031   0.499 -1.4594 -0.5540  0.2884
 3018TIP3   OH230544   0.475   5.586  13.250  0.0288  0.4190  0.3001
 3018TIP3    H130545   0.482   5.511  13.310 -0.5495 -0.3115 -0.5249
 3018TIP3    H230546   0.566   5.611  13.233  0.2484 -0.5368  0.0423
 3019TIP3   OH230547   2.936   0.097  15.527  0.3956 -0.1683  0.8052
 3019TIP3    H130548   2.998   0.148  15.475 -0.4209  1.1403  1.0538
 3019TIP3    H230549   2.990   0.033  15.574  1.3272 -0.2697 -0.3628
 3020TIP3   OH230550   1.167   4.234   5.189  0.0287  0.1561 -0.1755
 3020TIP3    H130551   1.256   4.268   5.184 -0.0930  0.3555 -1.1142
 3020TIP3    H230552   1.116   4.305   5.229 -0.1166  0.8941 -1.6176
 3021TIP3   OH230553   3.068   5.734  17.251  0.0842 -0.9381  0.1615
 3021TIP3    H130554   2.995   5.694  17.298 -0.3913  0.0034  0.2498
 3021TIP3    H230555   3.138   5.739  17.316 -0.4491  0.0222  0.6931
 3022TIP3   OH230556   3.438   0.508   0.830  0.7908 -0.9140  0.1916
 3022TIP3    H130557   3.353   0.490   0.870 -0.5346  1.4637 -1.3342
 3022TIP3    H230558   3.423   0.497   0.736  2.0472 -0.0391 -0.1345
 3023TIP3   OH230559   3.649   1.584  16.091 -0.4497 -0.0863 -0.1095
 3023TIP3    H130560   3.584   1.634  16.141 -0.4838  1.4887 -1.6229
 3023TIP3    H230561   3.729   1.589  16.143 -0.1866  2.4355 -0.5917
 3024TIP3   OH230562   3.734   4.909  13.150 -0.0898  0.2287 -0.4511
 3024TIP3    H130563   3.706   4.846  13.083 -0.3774  1.4382 -1.5197
 3024TIP3    H230564   3.793   4.969  13.103  1.5676 -0.2269  0.9409
 3025TIP3   OH230565   3.599   6.787  13.443 -0.2683  0.0079  0.4757
 3025TIP3    H130566   3.650   6.810  13.521  0.3156 -1.2029  0.4809
 3025TIP3    H230567   3.520   6.839  13.450  0.6912  1.4963  0.7940
 3026TIP3   OH230568   4.154   0.683   5.128  0.5347  0.1065  0.1614
 3026TIP3    H130569   4.122   0.687   5.038  1.3511 -1.3885 -0.2304
 3026TIP3    H230570   4.108   0.754   5.173 -1.2309 -0.2215 -1.0104
 3027TIP3   OH230571   3.987   3.351   4.207  0.1663  0.6650 -0.0721
 3027TIP3    H130572   4.056   3.348   4.141  1.4612 -0.4361  1.2621
 3027TIP3    H230573   3.955   3.261   4.213 -1.0357  1.0549 -0.2798
 3028TIP3   OH230574   2.503   2.536   3.931  0.3204 -0.2919 -0.4030
 3028TIP3    H130575   2.463   2.571   4.010  1.8943  0.0398  0.2973
 3028TIP3    H230576   2.464   2.586   3.859 -0.5210 -0.0259  0.2240
 3029TIP3   OH230577   4.021   5.247  11.176  0.3195  0.0619 -0.7622
 3029TIP3    H130578   3.939   5.200  11.164  0.2853 -0.2544  0.6084
 3029TIP3    H230579   4.039   5.285  11.090 -0.5064 -1.0617 -1.4518
 3030TIP3   OH230580   1.836   5.091  13.883  0.0913 -0.0945  0.3229
 3030TIP3    H130581   1.871   5.105  13.971  0.7172 -0.1318  0.0859
 3030TIP3    H230582   1.869   5.164  13.832  2.0382 -1.4977 -0.5325
 3031TIP3   OH230583   3.634   4.111   3.167 -0.0257 -0.6063  0.3204
 3031TIP3    H130584   3.711   4.119   3.223  0.2605 -1.9139  0.1598
 3031TIP3    H230585   3.581   4.188   3.187  0.8184 -0.2395  1.2197
 3032TIP3   OH230586   3.816   4.470  10.812  0.5085  0.4934 -0.3475
 3032TIP3    H130587   3.880   4.487  10.743  0.5584  1.8516  0.0113
 3032TIP3    H230588   3.737   4.517  10.783  0.5664  1.1695  0.5678
 3033TIP3   OH230589   4.599   6.499   4.158  0.0370 -0.0534 -0.3397
 3033TIP3    H130590   4.530   6.438   4.185 -1.0423  1.5084  0.6455
 3033TIP3    H230591   4.624   6.470   4.071 -3.3081  0.4338 -1.6333
 3034TIP3   OH230592   1.902   3.396   1.689  0.4049  0.1006  0.4470
 3034TIP3    H130593   1.972   3.351   1.642 -0.2459 -1.7681  1.1939
 3034TIP3    H230594   1.846   3.431   1.620 -0.2668 -2.1723 -0.2352
 3035TIP3   OH230595   1.584   4.704  11.540 -0.2380  0.2293 -0.5865
 3035TIP3    H130596   1.501   4.742  11.570 -1.4835 -1.1345 -2.1189
 3035TIP3    H230597   1.565   4.611  11.527  1.9903 -0.4599  0.4915
 3036TIP3   OH230598   6.341   0.116  15.891  0.1207  0.2731  0.6885
 3036TIP3    H130599   6.409   0.149  15.950  0.4017  1.3740 -0.2164
 3036TIP3    H230600   6.288   0.059  15.946  2.1448 -1.1707  1.2691
 3037TIP3   OH230601   0.340   2.878  14.683  0.4340 -1.0313 -0.4634
 3037TIP3    H130602   0.344   2.933  14.761  0.4584 -1.7297  0.0377
 3037TIP3    H230603   0.247   2.857  14.673  0.4365 -0.9825 -0.6012
 3038TIP3   OH230604   3.863   0.375  13.779 -0.1461  0.4033 -0.4482
 3038TIP3    H130605   3.873   0.458  13.825  1.0116  0.2514 -0.3832
 3038TIP3    H230606   3.861   0.400  13.686 -1.4311  0.6215 -0.3779
 3039TIP3   OH230607   3.788   1.016  13.949 -0.4013 -0.4340 -0.5126
 3039TIP3    H130608   3.782   1.109  13.927  0.9378  0.4279  2.2889
 3039TIP3    H230609   3.819   0.975  13.868 -1.4324  1.4433 -1.9506
 3040TIP3   OH230610   0.458   6.298  12.772 -0.4834 -0.2320  0.0062
 3040TIP3    H130611   0.535   6.250  12.740 -0.2904 -0.7097  1.1646
 3040TIP3    H230612   0.391   6.281  12.706  0.5777  0.7441 -1.3826
 3041TIP3   OH230613   0.797   4.427   2.443 -0.2501  0.3062  0.3540
 3041TIP3    H130614   0.851   4.498   2.409 -1.3360  1.0316  0.0726
 3041TIP3    H230615   0.713   4.468   2.461 -0.8819 -0.8997  0.2759
 3042TIP3   OH230616   3.025   4.609   3.544  0.0484 -0.2457  0.2939
 3042TIP3    H130617   3.058   4.675   3.604 -0.5661 -0.2907  0.6848
 3042TIP3    H230618   2.944   4.578   3.584 -0.6946  0.1543 -0.8552
 3043TIP3   OH230619   5.068   6.181  14.945 -0.2604 -0.2348  0.5234
 3043TIP3    H130620   5.004   6.122  14.905 -1.3668 -0.0983  2.0472
 3043TIP3    H230621   5.086   6.246  14.877  1.4976 -2.5735 -1.4927
 3044TIP3   OH230622   6.043   3.508   1.775 -0.6122 -0.4278  0.1706
 3044TIP3    H130623   6.088   3.590   1.794  0.5201 -0.3689 -2.4353
 3044TIP3    H230624   6.113   3.449   1.747 -1.8132 -1.2135 -1.2849
 3045TIP3   OH230625   4.321   0.925  13.045 -0.1289 -0.3151  0.4921
 3045TIP3    H130626   4.260   0.910  13.117 -0.1473 -2.1272  0.1399
 3045TIP3    H230627   4.402   0.882  13.072 -0.1323 -1.0096 -0.5466
 3046TIP3   OH230628   2.308   3.397  12.633 -0.5403  0.0271 -0.0969
 3046TIP3    H130629   2.392   3.443  12.637  0.1947 -1.1828 -1.0578
 3046TIP3    H230630   2.244   3.463  12.660  0.6276  1.1796 -0.0177
 3047TIP3   OH230631   6.246   4.518  10.951 -0.2193 -0.3862 -0.3429
 3047TIP3    H130632   6.190   4.552  11.020  0.0327 -1.5405  0.4596
 3047TIP3    H230633   6.329   4.564  10.962 -0.0429 -0.8677  0.4044
 3048TIP3   OH230634   3.932   2.153   4.124 -0.1416 -0.1367 -0.5669
 3048TIP3    H130635   3.839   2.133   4.116 -0.5909  1.6508 -0.2879
 3048TIP3    H230636   3.935   2.248   4.137  1.6772 -0.2706  0.2641
 3049TIP3   OH230637   4.937   0.920   3.041  0.2602  0.0936  0.3309
 3049TIP3    H130638   5.018   0.958   3.075  0.4975 -1.8497  2.1167
 3049TIP3    H230639   4.965   0.869   2.965  0.2931  1.3827 -0.5649
 3050TIP3   OH230640   0.207   5.237   5.396 -0.5766 -0.1534 -0.6061
 3050TIP3    H130641   0.253   5.320   5.381 -0.6090 -0.0717 -0.2750
 3050TIP3    H230642   0.248   5.201   5.475 -0.3410 -0.6165 -0.9391
 3051TIP3   OH230643   3.122   6.448   1.143  0.2193 -0.4071  0.3284
 3051TIP3    H130644   3.178   6.491   1.078  1.3329 -2.3740 -0.0981
 3051TIP3    H230645   3.173   6.449   1.224  0.1671 -0.7486  0.3656
 3052TIP3   OH230646   5.940   3.213   6.772  0.0133  0.3042  0.0531
 3052TIP3    H130647   5.853   3.178   6.756  0.8225 -1.7040 -0.2679
 3052TIP3    H230648   5.961   3.263   6.693 -0.1869 -0.6526 -0.6208
 3053TIP3   OH230649   6.491   6.441   5.962  0.0832  0.7010  0.2929
 3053TIP3    H130650   6.418   6.500   5.943 -1.2266 -0.6577  0.8597
 3053TIP3    H230651   6.466   6.398   6.044  0.2268 -1.7494 -0.8598
 3054TIP3   OH230652   3.768   2.360   5.838  0.5286 -1.0394  0.3991
 3054TIP3    H130653   3.752   2.348   5.931  1.9050 -0.0131  0.7984
 3054TIP3    H230654   3.859   2.332   5.825  0.1915 -1.6820 -0.7461
 3055TIP3   OH230655   6.004   5.184   1.759 -0.2648  0.4203  0.7707
 3055TIP3    H130656   6.001   5.091   1.779  1.6054  0.2892  0.5768
 3055TIP3    H230657   5.983   5.227   1.842  2.0653 -0.1759  1.7295
 3056TIP3   OH230658   3.786   0.857   0.268 -0.1358  0.2668 -0.0717
 3056TIP3    H130659   3.807   0.764   0.262 -0.5501  0.2311 -1.1916
 3056TIP3    H230660   3.710   0.861   0.327  0.4183  0.0010  0.6831
 3057TIP3   OH230661   1.865   4.396  14.205 -0.3543  0.1819 -0.0376
 3057TIP3    H130662   1.784   4.361  14.167  0.0909 -0.3036 -0.5636
 3057TIP3    H230663   1.926   4.402  14.131  0.0159  0.7758  0.3055
 3058TIP3   OH230664   5.841   3.278  13.173  0.1994 -0.3877 -0.2031
 3058TIP3    H130665   5.791   3.359  13.171 -1.1465 -1.1998 -0.9605
 3058TIP3    H230666   5.893   3.280  13.092  3.0958  1.4018  1.5155
 3059TIP3   OH230667   0.518   6.286  12.425  0.2244  0.1589 -0.5310
 3059TIP3    H130668   0.436   6.241  12.402  0.2561 -0.0237 -0.2944
 3059TIP3    H230669   0.563   6.296  12.342  0.4586 -0.7416 -0.5261
 3060TIP3   OH230670   1.398   3.387   4.246  0.5290  0.1187  0.1132
 3060TIP3    H130671   1.344   3.466   4.247 -0.1258 -0.3096  1.5204
 3060TIP3    H230672   1.488   3.420   4.240  0.4450  1.1625  2.9476
 3061TIP3   OH230673   5.418   4.826   3.097 -0.1675  0.1751 -0.1784
 3061TIP3    H130674   5.361   4.769   3.149 -0.1300 -0.2943 -0.6471
 3061TIP3    H230675   5.502   4.823   3.142 -0.4088  0.5888  0.3144
 3062TIP3   OH230676   4.902   0.153   4.552 -0.3902 -0.0907 -0.5532
 3062TIP3    H130677   4.831   0.109   4.505 -0.3132 -0.7264 -0.0878
 3062TIP3    H230678   4.872   0.243   4.561 -1.6423 -0.5819  0.5861
 3063TIP3   OH230679   1.393   5.505   0.641  0.3836 -0.2257 -0.6085
 3063TIP3    H130680   1.305   5.526   0.610 -0.5366  1.3474  2.6397
 3063TIP3    H230681   1.383   5.425   0.692  1.0014 -0.4764 -0.8694
 3064TIP3   OH230682   3.555   5.264  11.688 -0.4677 -0.4094 -0.1774
 3064TIP3    H130683   3.591   5.277  11.775 -4.4747 -1.2162  1.8482
 3064TIP3    H230684   3.593   5.182  11.658 -0.6065 -1.2680  1.8403
 3065TIP3   OH230685   6.139   3.161   1.348  0.4374 -0.2609 -0.0093
 3065TIP3    H130686   6.212   3.099   1.357 -0.4045 -1.2272  0.3281
 3065TIP3    H230687   6.177   3.245   1.375  1.2811 -0.8515  0.7447
 3066TIP3   OH230688   0.675   1.097   6.021  0.5080 -0.5206  0.1887
 3066TIP3    H130689   0.632   1.156   5.959  0.8955 -0.1649  0.2571
 3066TIP3    H230690   0.605   1.071   6.081  0.5197  0.5425  0.6681
 3067TIP3   OH230691   5.711   4.107  11.834  0.1199 -0.5661 -0.0805
 3067TIP3    H130692   5.796   4.103  11.879 -0.2145 -0.3236  0.5914
 3067TIP3    H230693   5.668   4.183  11.873 -0.3943 -0.6745 -0.4361
 3068TIP3   OH230694   5.513   5.078  12.312 -0.5252  0.4570 -0.8300
 3068TIP3    H130695   5.590   5.022  12.318 -0.0233  1.2139 -0.0328
 3068TIP3    H230696   5.493   5.080  12.218 -0.6243 -1.1234 -0.8722
 3069TIP3   OH230697   3.050   4.866   1.282  0.0527  0.5640 -0.3569
 3069TIP3    H130698   3.041   4.806   1.356  1.3923  0.0695 -0.5767
 3069TIP3    H230699   3.083   4.812   1.211  0.7639  1.4531 -0.7174
 3070TIP3   OH230700   0.823   2.304   4.136 -0.2551  0.3944  0.9749
 3070TIP3    H130701   0.760   2.247   4.093  1.1342 -1.3482  1.1442
 3070TIP3    H230702   0.792   2.393   4.117 -0.6584 -0.2909 -2.1806
 3071TIP3   OH230703   6.336   5.363  12.182  0.1110 -0.7552 -0.2623
 3071TIP3    H130704   6.302   5.391  12.267  0.5276 -2.4557  0.4924
 3071TIP3    H230705   6.259   5.328  12.136 -0.4422  1.5634 -1.2648
 3072TIP3   OH230706   5.678   0.360   2.384 -0.0764 -0.0187  0.1647
 3072TIP3    H130707   5.619   0.414   2.331 -2.0331 -1.1997  1.0347
 3072TIP3    H230708   5.707   0.418   2.455 -1.7028  0.0924  0.7736
 3073TIP3   OH230709   0.099   6.556   3.345 -0.0063 -0.2857 -0.0651
 3073TIP3    H130710   0.048   6.476   3.340 -0.8946  0.2557  0.1477
 3073TIP3    H230711   0.065   6.612   3.275  0.2928  0.0838  0.0741
 3074TIP3   OH230712   6.796   4.086  10.660  0.6193  0.3612 -0.7460
 3074TIP3    H130713   6.847   4.032  10.600  0.0771 -1.3214  0.2403
 3074TIP3    H230714   6.777   4.166  10.610  1.0446 -0.5460 -2.4339
 3075TIP3   OH230715   0.272   1.092  15.206  0.0495  0.0864  1.0237
 3075TIP3    H130716   0.199   1.092  15.144  0.1445 -0.7786  0.8989
 3075TIP3    H230717   0.238   1.137  15.283 -0.4985 -0.0002  0.8359
 3076TIP3   OH230718   0.345   4.780  16.384  0.0749  0.2582 -0.0846
 3076TIP3    H130719   0.293   4.790  16.463  1.9738 -0.9047  1.4222
 3076TIP3    H230720   0.429   4.820  16.406  0.2514  1.0247 -1.9833
 3077TIP3   OH230721   4.843   2.021  12.356  0.2896 -0.0001 -0.5420
 3077TIP3    H130722   4.807   1.945  12.403  1.3364  0.5354  1.1936
 3077TIP3    H230723   4.925   2.041  12.401  0.8217  1.2104 -1.9656
 3078TIP3   OH230724   4.949   5.140  10.362 -0.1130 -0.3490 -0.3856
 3078TIP3    H130725   5.014   5.079  10.396 -0.0727  0.5895  1.3052
 3078TIP3    H230726   4.872   5.085  10.343  0.4987 -1.1646 -0.5745
 3079TIP3   OH230727   6.245   3.052   2.724 -0.3286  0.2686 -0.2707
 3079TIP3    H130728   6.290   3.121   2.674 -3.0178  2.5771  0.2448
 3079TIP3    H230729   6.217   2.989   2.657  1.8730 -0.2775 -0.7875
 3080TIP3   OH230730   4.357   1.217  10.972  0.0488 -0.3126  0.0776
 3080TIP3    H130731   4.321   1.232  11.060  0.6031 -0.3396  0.3111
 3080TIP3    H230732   4.297   1.263  10.913 -0.0711  0.0900  0.5104
 3081TIP3   OH230733   4.837   1.133   2.474 -0.0465  0.2728 -0.3017
 3081TIP3    H130734   4.742   1.133   2.461 -0.0920  0.0569  0.0342
 3081TIP3    H230735   4.870   1.187   2.402 -0.2192 -1.6555 -1.9233
 3082TIP3   OH230736   4.808   5.321  10.538 -0.5433 -0.4599 -0.0716
 3082TIP3    H130737   4.838   5.281  10.456 -1.5035 -1.0414 -0.1543
 3082TIP3    H230738   4.779   5.247  10.591  1.3438 -0.2448  1.3701
 3083TIP3   OH230739   5.654   1.977   4.337  0.0380  0.4168  0.0175
 3083TIP3    H130740   5.742   1.938   4.334 -0.0543  0.2525 -1.4896
 3083TIP3    H230741   5.668   2.064   4.374  0.5330 -0.2993  1.6096
 3084TIP3   OH230742   0.548   1.144   2.327 -0.2314 -0.4731  0.7110
 3084TIP3    H130743   0.578   1.146   2.236 -0.0774 -0.1851  0.7684
 3084TIP3    H230744   0.626   1.123   2.378 -0.3482 -0.7890  0.7684
 3085TIP3   OH230745   3.318   4.833   2.523 -0.1821  0.0963 -0.9832
 3085TIP3    H130746   3.333   4.927   2.532  0.1853 -0.1117  0.9994
 3085TIP3    H230747   3.229   4.820   2.556  0.8149 -0.5751  1.7228
 3086TIP3   OH230748   0.138   6.162  16.007 -0.7190  0.3696 -0.3044
 3086TIP3    H130749   0.085   6.122  16.076 -0.8448 -0.9940 -1.1384
 3086TIP3    H230750   0.074   6.186  15.940 -0.7321  2.7085  0.4665
 3087TIP3   OH230751   1.335   3.225   4.003 -0.0128 -0.3232  0.0765
 3087TIP3    H130752   1.264   3.163   4.020 -1.9330  1.8540  0.4879
 3087TIP3    H230753   1.361   3.256   4.089  1.4326 -1.0132 -0.0811
 3088TIP3   OH230754   3.986   1.545   5.984 -0.4164 -0.0808 -0.4369
 3088TIP3    H130755   4.074   1.519   5.959 -0.3982 -0.5674  0.1105
 3088TIP3    H230756   3.978   1.518   6.076 -0.1396  2.5290  0.4225
 3089TIP3   OH230757   4.140   5.465  13.096 -0.4462 -0.0602 -0.3721
 3089TIP3    H130758   4.069   5.507  13.049  0.9580  1.7412 -1.0133
 3089TIP3    H230759   4.119   5.479  13.189 -1.9565 -1.4590 -0.4486
 3090TIP3   OH230760   2.358   3.248   3.313 -0.5548  0.6029 -0.2740
 3090TIP3    H130761   2.391   3.324   3.360 -1.0375 -0.3083  1.6340
 3090TIP3    H230762   2.413   3.176   3.343 -0.4419  0.0794 -1.6575
 3091TIP3   OH230763   3.057   4.348   0.295 -0.3848 -0.0834  0.2154
 3091TIP3    H130764   3.078   4.363   0.203  0.4658 -2.7020 -0.0823
 3091TIP3    H230765   2.979   4.293   0.294  0.1957 -0.9592  1.0028
 3092TIP3   OH230766   3.775   5.956  10.912 -0.2506 -0.4234 -0.0262
 3092TIP3    H130767   3.781   6.028  10.974 -1.2168 -0.3513  0.0104
 3092TIP3    H230768   3.684   5.959  10.881 -0.1669 -1.3129 -0.3940
 3093TIP3   OH230769   0.104   2.419   2.321 -1.0457  0.1910 -0.1901
 3093TIP3    H130770   0.119   2.357   2.249 -2.4968  0.8269 -1.0911
 3093TIP3    H230771   0.159   2.494   2.300 -0.7132 -0.0279 -0.1025
 3094TIP3   OH230772   5.682   6.743  12.902  0.2422  0.1305 -0.1582
 3094TIP3    H130773   5.702   6.794  12.824 -1.5686 -0.6069 -1.1557
 3094TIP3    H230774   5.692   6.651  12.874 -0.5491 -0.1429  0.4167
 3095TIP3   OH230775   5.935   2.213  15.479 -0.7233  0.0504 -0.2019
 3095TIP3    H130776   5.855   2.165  15.498 -0.0871 -0.9377  0.0367
 3095TIP3    H230777   5.905   2.298  15.445 -1.8553  0.0761  0.8278
 3096TIP3   OH230778   6.045   1.151   3.158 -0.2055  0.6270  0.1118
 3096TIP3    H130779   6.075   1.228   3.111 -1.0215  1.0757  0.3229
 3096TIP3    H230780   6.010   1.094   3.090  0.7570  0.2492 -0.0945
 3097TIP3   OH230781   5.007   3.982   5.877 -0.0953  0.4929  0.1894
 3097TIP3    H130782   5.078   4.020   5.929  0.3916  1.6263 -1.2348
 3097TIP3    H230783   4.975   3.910   5.931  0.8305  1.1684  1.7427
 3098TIP3   OH230784   1.723   1.696  11.271 -0.0688  0.0616 -0.3403
 3098TIP3    H130785   1.709   1.729  11.182  1.7394  0.5992 -0.4605
 3098TIP3    H230786   1.747   1.774  11.322  2.4046 -0.7144 -0.2058
 3099TIP3   OH230787   4.326   5.985   1.331  0.0289  0.3257  0.4800
 3099TIP3    H130788   4.420   5.985   1.349  0.0471  0.1038  0.3861
 3099TIP3    H230789   4.309   5.899   1.292  0.0506  0.8989 -0.8630
 3100TIP3   OH230790   0.944   2.083  15.049  0.0804 -0.0405  0.0405
 3100TIP3    H130791   1.015   2.063  15.110  0.2468  1.7729  0.5008
 3100TIP3    H230792   0.870   2.106  15.105 -0.3663 -0.2781 -0.4432
 3101TIP3   OH230793   4.047   4.463  16.210 -0.7210  0.0923  0.1088
 3101TIP3    H130794   4.109   4.422  16.149 -1.3645 -0.7604  0.0088
 3101TIP3    H230795   4.100   4.482  16.288  0.2492  1.7201 -0.8920
 3102TIP3   OH230796   5.440   5.845   3.658 -0.3712  0.1714 -0.3920
 3102TIP3    H130797   5.414   5.859   3.749 -0.7090 -0.7159 -0.3371
 3102TIP3    H230798   5.515   5.902   3.645  1.2479 -1.4528  1.1947
 3103TIP3   OH230799   1.680   6.625  16.989  0.1977 -0.4661  0.2913
 3103TIP3    H130800   1.627   6.656  16.915  0.3474  0.1096  0.4278
 3103TIP3    H230801   1.727   6.702  17.019  0.8869 -0.9136  0.3653
 3104TIP3   OH230802   0.278   4.272   5.862  0.1228 -0.2865  0.6695
 3104TIP3    H130803   0.201   4.254   5.915 -1.4620  1.2213 -0.9930
 3104TIP3    H230804   0.351   4.273   5.924 -1.4840  0.3353  2.6301
 3105TIP3   OH230805   6.349   5.503   3.424 -0.3378 -0.3901  0.1738
 3105TIP3    H130806   6.338   5.554   3.504  0.0525  0.1676 -0.1294
 3105TIP3    H230807   6.301   5.552   3.357 -1.6012 -1.4146  0.2808
 3106TIP3   OH230808   1.874   3.928   4.984  0.2044  0.0509  0.2198
 3106TIP3    H130809   1.945   3.928   5.048  0.5368 -0.9620 -0.1166
 3106TIP3    H230810   1.860   3.835   4.964 -0.0971  0.3235 -0.9290
 3107TIP3   OH230811   6.419   6.367  14.341 -0.0552  0.1968 -0.5730
 3107TIP3    H130812   6.374   6.286  14.366  3.8894 -1.7082  1.2724
 3107TIP3    H230813   6.387   6.432  14.404 -0.0094 -1.1671  0.9324
 3108TIP3   OH230814   5.952   6.137  12.636  0.2613 -0.1106  0.3651
 3108TIP3    H130815   6.004   6.113  12.559  1.5706  1.4948  0.6965
 3108TIP3    H230816   5.884   6.194  12.601  0.8658  0.6325  0.3699
 3109TIP3   OH230817   6.816   3.948  13.479  0.3495 -0.2318  0.0956
 3109TIP3    H130818   6.879   4.012  13.448  0.8504 -0.2900  0.9565
 3109TIP3    H230819   6.867   3.869  13.494  0.1987 -0.1243  1.3073
 3110TIP3   OH230820   0.759   6.394   1.413 -0.4691 -0.3000  0.2805
 3110TIP3    H130821   0.791   6.478   1.381 -0.8485 -0.0221  0.6288
 3110TIP3    H230822   0.728   6.349   1.334  4.2140 -2.2042 -0.8044
 3111TIP3   OH230823   0.453   3.827   1.271  0.6184  0.2416  0.1795
 3111TIP3    H130824   0.472   3.737   1.300  0.0311  0.1894  0.4195
 3111TIP3    H230825   0.460   3.880   1.350 -1.4353  0.0318  0.5613
 3112TIP3   OH230826   6.679   4.895  15.275  0.3802  0.0855 -0.9622
 3112TIP3    H130827   6.640   4.975  15.310 -0.0211 -0.3760 -0.3270
 3112TIP3    H230828   6.630   4.878  15.194 -1.3770 -0.9535  0.2558
 3113TIP3   OH230829   4.859   6.385  13.439  0.3526  0.4177 -0.6624
 3113TIP3    H130830   4.849   6.400  13.345 -0.0404  1.1970 -0.5078
 3113TIP3    H230831   4.809   6.456  13.480  1.6846  0.9207  0.1425
 3114TIP3   OH230832   4.943   2.653  12.768  0.2781 -0.4642  0.2340
 3114TIP3    H130833   4.860   2.644  12.722  1.0814  1.0234 -1.6786
 3114TIP3    H230834   4.927   2.722  12.833  0.2337  0.5308 -0.8013
 3115TIP3   OH230835   3.929   2.091   5.314 -0.0702  0.4804 -0.6392
 3115TIP3    H130836   3.845   2.049   5.295  0.0708 -0.5289  0.8903
 3115TIP3    H230837   3.982   2.023   5.356  0.7633  1.6952  0.3452
 3116TIP3   OH230838   3.980   0.728  16.970  0.4143 -0.0862 -0.3700
 3116TIP3    H130839   4.022   0.796  17.022  0.4788 -0.5058  0.1338
 3116TIP3    H230840   4.028   0.648  16.991 -0.6553 -0.5868  0.2548
 3117TIP3   OH230841   6.167   0.243  15.689  0.2159 -0.2746 -0.0599
 3117TIP3    H130842   6.128   0.319  15.732  1.7471  0.4839  0.0588
 3117TIP3    H230843   6.252   0.232  15.732  0.0906 -1.9695 -0.1809
 3118TIP3   OH230844   5.164   5.101  13.338  0.1900 -0.2061 -0.6860
 3118TIP3    H130845   5.107   5.153  13.395 -1.0581 -0.6633 -1.4487
 3118TIP3    H230846   5.162   5.014  13.376  0.6397 -0.1566 -0.5461
 3119TIP3   OH230847   4.583   1.856  15.669 -0.1783  0.2206 -0.1416
 3119TIP3    H130848   4.513   1.836  15.731  1.0090  0.0350  1.1773
 3119TIP3    H230849   4.574   1.950  15.652 -0.3430  0.3309  0.5417
 3120TIP3   OH230850   0.569   0.098   0.635 -0.2192 -0.3834 -0.3548
 3120TIP3    H130851   0.576   0.004   0.618 -1.8913 -1.3696  3.3347
 3120TIP3    H230852   0.492   0.126   0.585 -0.6660 -1.3823 -0.2481
 3121TIP3   OH230853   3.034   3.645  14.208  0.0445  0.1305 -0.0762
 3121TIP3    H130854   3.041   3.552  14.230  0.4798 -0.0529 -0.9498
 3121TIP3    H230855   2.964   3.677  14.265 -1.5356 -1.1953 -1.1704
 3122TIP3   OH230856   0.225   1.401   4.248  0.3802 -0.4069 -0.0848
 3122TIP3    H130857   0.264   1.395   4.161  1.0728  0.9393  0.1012
 3122TIP3    H230858   0.134   1.426   4.232  0.3192 -0.8547 -0.4441
 3123TIP3   OH230859   2.889   3.021   2.527  0.1294  0.1353  0.3645
 3123TIP3    H130860   2.875   2.929   2.550 -2.4696  0.9534  2.6041
 3123TIP3    H230861   2.982   3.035   2.545  0.3027 -1.7349  1.2935
 3124TIP3   OH230862   6.209   5.461  12.382 -0.4033  0.5445 -0.3376
 3124TIP3    H130863   6.122   5.449  12.344 -0.8824 -3.5513  1.4982
 3124TIP3    H230864   6.197   5.447  12.476  2.2830 -0.5356 -0.0550
 3125TIP3   OH230865   2.068   5.093   4.021 -0.0969  0.0584  0.6490
 3125TIP3    H130866   2.162   5.079   4.032 -0.2683 -1.3525  0.6121
 3125TIP3    H230867   2.028   5.013   4.056 -1.1625 -0.2807 -1.1974
 3126TIP3   OH230868   2.491   1.766   2.300  0.4159 -0.0266 -0.5534
 3126TIP3    H130869   2.507   1.690   2.356  0.1524  0.6125  0.3955
 3126TIP3    H230870   2.534   1.839   2.345 -0.1606  0.5753 -0.9661
 3127TIP3   OH230871   5.147   4.363  12.968  0.5194  0.2834 -0.9115
 3127TIP3    H130872   5.127   4.456  12.971 -1.4732 -0.0243 -2.3547
 3127TIP3    H230873   5.091   4.324  13.035  0.6142  0.0277 -0.9792
 3128TIP3   OH230874   1.255   0.638  14.189  0.0991  0.1112 -0.1695
 3128TIP3    H130875   1.319   0.682  14.133 -0.5571 -0.0267 -1.0513
 3128TIP3    H230876   1.289   0.549  14.199  0.2897  0.1756 -0.2402
 3129TIP3   OH230877   6.675   2.776  12.373  0.1976 -0.3440 -0.0207
 3129TIP3    H130878   6.765   2.750  12.352 -0.1357 -1.0258 -0.6866
 3129TIP3    H230879   6.661   2.744  12.462  0.6673 -0.0841  0.1509
 3130TIP3   OH230880   3.127   4.944   4.911  0.3042  0.1199 -0.1327
 3130TIP3    H130881   3.158   5.034   4.922  0.9458 -0.2142  0.9258
 3130TIP3    H230882   3.160   4.898   4.988 -0.6667 -0.8490 -0.2744
 3131TIP3   OH230883   2.575   0.348   2.554 -0.1393 -0.0159  0.1675
 3131TIP3    H130884   2.616   0.323   2.471 -0.3291  1.7404 -0.4866
 3131TIP3    H230885   2.507   0.282   2.568 -0.9633  0.3831 -1.7385
 3132TIP3   OH230886   4.633   2.105  12.180  0.7185 -0.1074  0.3388
 3132TIP3    H130887   4.686   2.080  12.256  1.6208  0.0640 -0.2246
 3132TIP3    H230888   4.549   2.132  12.218  1.0298 -0.3738  1.2479
 3133TIP3   OH230889   3.968   4.964   5.212 -0.0780  0.0761  0.0480
 3133TIP3    H130890   4.037   5.000   5.267 -0.8747  0.2400  0.9850
 3133TIP3    H230891   3.899   4.940   5.274 -1.4601  1.2796 -0.9607
 3134TIP3   OH230892   4.050   1.484  13.839  0.6968 -0.4422 -0.6392
 3134TIP3    H130893   4.009   1.435  13.910 -1.0508 -0.9564 -1.9327
 3134TIP3    H230894   4.082   1.565  13.880 -1.7901  0.0674  0.4502
 3135TIP3   OH230895   5.601   1.349   0.311  0.4873  0.1084 -0.0536
 3135TIP3    H130896   5.515   1.308   0.309  0.7154 -0.4244  0.7983
 3135TIP3    H230897   5.592   1.426   0.255 -0.7461  0.4710  0.6288
 3136TIP3   OH230898   1.117   1.809   4.566  0.0545  0.5578  0.2657
 3136TIP3    H130899   1.102   1.873   4.496  3.2446  1.1394 -0.0759
 3136TIP3    H230900   1.103   1.858   4.647  0.4191  1.1232 -0.0026
 3137TIP3   OH230901   2.836   4.576  16.181  0.0369 -0.0760  0.2019
 3137TIP3    H130902   2.834   4.574  16.086  1.1335 -1.2660  0.1710
 3137TIP3    H230903   2.929   4.567  16.203 -0.1683  0.4252  1.3876
 3138TIP3   OH230904   6.695   0.309  15.746 -0.2486  0.9989 -0.6373
 3138TIP3    H130905   6.735   0.222  15.744 -1.9268  0.1791 -1.0614
 3138TIP3    H230906   6.643   0.313  15.666  1.9212  3.5426 -2.0783
 3139TIP3   OH230907   0.758   6.656   2.181  0.3648 -0.0279 -0.4903
 3139TIP3    H130908   0.770   6.586   2.116  2.3814 -1.5132  1.3097
 3139TIP3    H230909   0.754   6.610   2.265 -0.6767  1.9118  0.5871
 3140TIP3   OH230910   3.984   0.379   0.582  0.1462  0.4303  0.1415
 3140TIP3    H130911   3.991   0.430   0.662  2.0096  0.6443 -0.1038
 3140TIP3    H230912   3.904   0.410   0.540  0.5187  2.2043  0.6497
 3141TIP3   OH230913   4.695   6.502   4.535  0.1079 -0.0864 -0.3762
 3141TIP3    H130914   4.773   6.519   4.588 -0.1892 -0.8499  0.3193
 3141TIP3    H230915   4.730   6.481   4.448  0.6135  0.8295 -0.4116
 3142TIP3   OH230916   5.407   4.644   4.314  0.1790  0.3562  0.1768
 3142TIP3    H130917   5.406   4.625   4.407 -0.1618 -1.3232 -0.1331
 3142TIP3    H230918   5.491   4.689   4.299  1.6093 -1.9379  0.8490
 3143TIP3   OH230919   5.285   4.959   0.998  1.2212 -0.2394  0.5718
 3143TIP3    H130920   5.331   5.030   0.952  1.6649 -0.1317  1.1635
 3143TIP3    H230921   5.340   4.882   0.985 -0.1919 -0.9717 -1.6704
 3144TIP3   OH230922   1.236   3.859   2.109  0.2717 -0.0782  0.3085
 3144TIP3    H130923   1.180   3.930   2.142 -0.3797  0.1478 -1.2076
 3144TIP3    H230924   1.208   3.782   2.159  0.3639  0.5354  1.3370
 3145TIP3   OH230925   0.559   6.470  14.801  0.2852  0.0523  0.4934
 3145TIP3    H130926   0.577   6.423  14.720  2.1668 -1.8832  1.9196
 3145TIP3    H230927   0.640   6.514  14.823 -0.5165  1.4228  0.8139
 3146TIP3   OH230928   0.877   6.617   1.334  0.5506  0.3991 -0.4470
 3146TIP3    H130929   0.880   6.674   1.257  0.0295  1.3412  0.2214
 3146TIP3    H230930   0.969   6.606   1.360  0.9281 -1.4599 -2.2832
 3147TIP3   OH230931   5.981   1.126   6.260  0.1288  0.5994  0.0766
 3147TIP3    H130932   5.948   1.212   6.286  0.0888  0.7235 -0.3830
 3147TIP3    H230933   6.076   1.135   6.262  0.1420  0.3729  0.9579
 3148TIP3   OH230934   2.153   2.797   1.343 -0.0875 -0.2029 -0.8685
 3148TIP3    H130935   2.089   2.835   1.283 -0.2270  0.3724 -0.3677
 3148TIP3    H230936   2.238   2.816   1.301 -0.2077 -0.2942 -1.1569
 3149TIP3   OH230937   2.510   4.582  15.780  0.9966 -0.2144 -0.0772
 3149TIP3    H130938   2.428   4.533  15.776  0.6472  0.3583  0.0865
 3149TIP3    H230939   2.563   4.534  15.843  0.1942  0.3012  1.0250
 3150TIP3   OH230940   5.309   3.282   1.684  0.0537 -0.1724  0.5406
 3150TIP3    H130941   5.347   3.359   1.726  1.1372 -0.2348 -0.2906
 3150TIP3    H230942   5.235   3.258   1.740 -1.6239  2.6751 -0.2244
 3151TIP3   OH230943   4.024   5.410   2.135  0.2431  0.3300  0.0406
 3151TIP3    H130944   4.000   5.494   2.174  0.7945  0.8659 -0.7476
 3151TIP3    H230945   4.001   5.345   2.201 -0.8064  1.0440  0.3893
 3152TIP3   OH230946   4.567   6.029   1.425 -0.9864 -0.2274  0.2292
 3152TIP3    H130947   4.593   6.109   1.379 -1.8507  1.1567  2.0365
 3152TIP3    H230948   4.638   6.012   1.487  0.2163 -2.1346 -1.5288
 3153TIP3   OH230949   5.213   0.451  12.392 -0.0805 -0.1685 -0.1967
 3153TIP3    H130950   5.180   0.520  12.336 -0.6113 -1.0121 -0.9592
 3153TIP3    H230951   5.166   0.372  12.363  1.4531 -1.1136 -0.2578
 3154TIP3   OH230952   0.075   0.502   1.519  0.3489  0.5625 -0.4416
 3154TIP3    H130953   0.142   0.566   1.496 -1.3856  1.8003 -2.3688
 3154TIP3    H230954   0.070   0.507   1.615  1.9946  1.4174 -0.3536
 3155TIP3   OH230955   3.255   5.873  14.763 -0.1526  0.4515  0.2938
 3155TIP3    H130956   3.206   5.860  14.683 -0.0407 -1.0509  0.4369
 3155TIP3    H230957   3.328   5.930  14.738  1.6583 -2.3959 -1.4768
 3156TIP3   OH230958   2.064   5.334  16.635 -0.7084 -0.2292 -0.1159
 3156TIP3    H130959   2.010   5.389  16.579 -0.6928  0.7599  0.8082
 3156TIP3    H230960   2.092   5.392  16.706  0.7859 -0.9731 -0.0633
 3157TIP3   OH230961   5.483   5.884   5.843 -0.4573 -0.0870 -0.4029
 3157TIP3    H130962   5.527   5.965   5.818  0.7137 -1.2760 -2.5121
 3157TIP3    H230963   5.553   5.827   5.874 -1.0743 -0.7041 -0.1265
 3158TIP3   OH230964   0.906   1.015   0.566 -0.2726  0.5458  0.0086
 3158TIP3    H130965   0.993   1.045   0.539 -0.0254  0.4382  0.6565
 3158TIP3    H230966   0.874   0.965   0.492  0.5954 -0.1604  0.0916
 3159TIP3   OH230967   1.479   2.433  10.787 -0.1702 -0.0097 -0.1277
 3159TIP3    H130968   1.520   2.367  10.732  2.6808 -1.5625  3.4310
 3159TIP3    H230969   1.549   2.462  10.846 -2.9532  1.2275  2.8701
 3160TIP3   OH230970   5.253   4.596   3.055 -0.2446 -0.3395 -0.2335
 3160TIP3    H130971   5.321   4.603   2.989  0.1759 -0.1332  0.2097
 3160TIP3    H230972   5.211   4.682   3.056  2.6572  1.2839  2.8069
 3161TIP3   OH230973   3.819   1.479   5.245 -0.4642  0.6019 -0.0270
 3161TIP3    H130974   3.761   1.467   5.169 -2.4890 -1.9388  1.7273
 3161TIP3    H230975   3.794   1.564   5.280 -1.6982  0.4732 -0.5278
 3162TIP3   OH230976   0.744   3.929   2.866  0.3332 -0.0080 -0.2967
 3162TIP3    H130977   0.668   3.938   2.809  0.0087  1.7852  0.3511
 3162TIP3    H230978   0.724   3.986   2.941  3.2176  2.3705 -1.1387
 3163TIP3   OH230979   4.728   0.267  10.922  0.6925 -0.5955 -0.0612
 3163TIP3    H130980   4.675   0.241  10.846  0.1631  0.5619 -0.1089
 3163TIP3    H230981   4.789   0.332  10.888 -0.8064  1.3746  0.8172
 3164TIP3   OH230982   0.565   5.519   4.878  0.3423 -0.5916  0.6674
 3164TIP3    H130983   0.541   5.607   4.908 -1.3607 -0.7006 -0.2123
 3164TIP3    H230984   0.516   5.460   4.936  0.2651 -0.9072  0.2844
 3165TIP3   OH230985   0.035   4.237   6.003  0.1596 -0.1760 -0.0056
 3165TIP3    H130986  -0.033   4.286   5.955  1.2162  1.1668 -0.1740
 3165TIP3    H230987   0.009   4.146   5.992 -1.9919  0.3054  0.4836
 3166TIP3   OH230988   5.952   1.782   3.387 -0.1207  0.8541 -0.4597
 3166TIP3    H130989   5.879   1.836   3.420 -0.1810  0.6344 -0.2329
 3166TIP3    H230990   5.989   1.742   3.465 -0.0745  0.5660 -0.6300
 3167TIP3   OH230991   0.442   5.899  14.286 -0.4955 -0.3849 -0.2544
 3167TIP3    H130992   0.515   5.875  14.344 -1.2683  1.3363  1.5345
 3167TIP3    H230993   0.417   5.816  14.245  0.4016 -1.6283  1.5245
 3168TIP3   OH230994   6.178   3.328   6.197  0.0403 -0.7072 -0.3334
 3168TIP3    H130995   6.181   3.288   6.111 -1.5622 -0.9778 -0.2913
 3168TIP3    H230996   6.264   3.310   6.235  0.9962 -0.0535 -2.0736
 3169TIP3   OH230997   4.917   0.431  15.591  0.4119 -0.3805  0.5159
 3169TIP3    H130998   4.968   0.386  15.660  3.4530  0.7949 -0.7839
 3169TIP3    H230999   4.931   0.377  15.513 -1.4853 -0.7045  0.3670
 3170TIP3   OH231000   5.656   6.190  16.980  0.1776  0.0276 -1.0199
 3170TIP3    H131001   5.655   6.123  16.912  1.1594 -1.5074  0.4057
 3170TIP3    H231002   5.748   6.204  16.999 -0.0473  1.1500 -0.6422
 3171TIP3   OH231003   3.362   4.563  10.988 -0.5643 -0.5653  0.0174
 3171TIP3    H131004   3.323   4.645  10.957 -0.4304 -1.1049 -1.6670
 3171TIP3    H231005   3.369   4.574  11.083  0.8770  2.0098 -0.2947
 3172TIP3   OH231006   3.271   4.620   5.399 -0.7205  0.7809  0.4952
 3172TIP3    H131007   3.291   4.705   5.436  2.2142  0.0221  0.9213
 3172TIP3    H231008   3.344   4.564   5.427 -1.9952 -1.5962 -0.6411
 3173TIP3   OH231009   1.015   1.489   2.222  0.3198 -0.2207 -0.0453
 3173TIP3    H131010   0.940   1.430   2.225  0.0619  0.0624 -0.5883
 3173TIP3    H231011   1.053   1.474   2.135  1.9955 -1.6717  0.8782
 3174TIP3   OH231012   0.076   3.555   2.406 -0.2666  0.3658 -0.2479
 3174TIP3    H131013   0.093   3.611   2.330 -2.1179  1.3793  0.0312
 3174TIP3    H231014   0.058   3.469   2.367 -0.3570  0.6747 -0.9182
 3175TIP3   OH231015   3.310   3.095  13.285 -0.2449 -0.3279 -0.6851
 3175TIP3    H131016   3.272   3.081  13.371  0.4677 -0.7039 -0.4190
 3175TIP3    H231017   3.392   3.143  13.302 -0.8063  0.8882 -1.2792
 3176TIP3   OH231018   3.800   4.272  12.005 -0.2500  0.3383  0.5237
 3176TIP3    H131019   3.759   4.200  11.957 -1.4165 -0.2028  2.2276
 3176TIP3    H231020   3.843   4.229  12.080  1.1497  1.1879  0.2405
 3177TIP3   OH231021   0.182   0.867   2.816 -0.1805 -0.1932 -0.2484
 3177TIP3    H131022   0.185   0.787   2.868 -1.1917  0.6592  1.2085
 3177TIP3    H231023   0.260   0.862   2.760  0.8504 -1.2859  1.1911
 3178TIP3   OH231024   3.323   4.670   0.102  0.2202 -0.3910 -0.1128
 3178TIP3    H131025   3.310   4.696   0.011  1.6330 -0.0645 -0.2376
 3178TIP3    H231026   3.399   4.719   0.131 -1.9681  1.8803  2.2457
 3179TIP3   OH231027   5.697   4.079   4.788  0.3285 -0.1842 -0.3056
 3179TIP3    H131028   5.603   4.098   4.790 -0.0316 -1.8352 -0.0636
 3179TIP3    H231029   5.739   4.165   4.775 -1.1942  0.5865 -0.3332
 3180TIP3   OH231030   1.870   5.430  12.896 -0.1458  0.3300 -0.1699
 3180TIP3    H131031   1.938   5.376  12.936 -0.6410 -0.1539  0.0407
 3180TIP3    H231032   1.810   5.449  12.969  0.6171  2.1571  0.0449
 3181TIP3   OH231033   1.843   0.949  15.343 -0.6139 -1.1344 -0.4770
 3181TIP3    H131034   1.884   0.946  15.430 -1.2460 -1.5171 -0.1892
 3181TIP3    H231035   1.823   1.042  15.330  1.7399 -0.6621 -1.3009
 3182TIP3   OH231036   4.593   2.944  13.640 -0.1174 -0.5547 -0.0107
 3182TIP3    H131037   4.686   2.966  13.631 -0.4987  0.3522 -2.6767
 3182TIP3    H231038   4.592   2.867  13.696  2.4075 -1.7409 -1.4324
 3183TIP3   OH231039   5.240   5.914   3.121 -0.6521 -0.3006  0.4473
 3183TIP3    H131040   5.213   5.973   3.050 -0.2645 -0.6305  0.0164
 3183TIP3    H231041   5.258   5.972   3.195 -2.1314 -0.0379  0.6338
 3184TIP3   OH231042   5.757   0.027   0.688  0.6972 -0.2996 -0.4252
 3184TIP3    H131043   5.798   0.066   0.766 -0.0248  3.5795 -1.7514
 3184TIP3    H231044   5.822   0.038   0.619  0.5989 -1.9393 -0.8136
 3185TIP3   OH231045   1.003   3.657  16.122 -0.0416  0.1298  0.0657
 3185TIP3    H131046   1.052   3.737  16.142 -1.5090  1.1004 -0.1002
 3185TIP3    H231047   0.947   3.681  16.048 -2.7890 -0.0629  1.9544
 3186TIP3   OH231048   1.638   4.181  11.489  0.1693  0.5684  0.0983
 3186TIP3    H131049   1.688   4.100  11.497  1.0606  0.9377 -1.3869
 3186TIP3    H231050   1.574   4.163  11.421  0.0146  0.9467  0.1399
 3187TIP3   OH231051   4.209   1.946   6.422 -0.2264 -0.4703  0.2675
 3187TIP3    H131052   4.156   2.004   6.477  1.7972 -1.0447  3.0032
 3187TIP3    H231053   4.289   1.995   6.404  0.4894 -1.4955  0.5832
 3188TIP3   OH231054   5.033   1.486  10.807 -0.1712 -0.1159  0.0108
 3188TIP3    H131055   5.091   1.415  10.834 -0.3608  0.2093  1.3582
 3188TIP3    H231056   5.090   1.547  10.760  0.6033  0.1679  1.2567
 3189TIP3   OH231057   1.419   0.298  11.034 -0.5280 -0.2338 -0.2455
 3189TIP3    H131058   1.364   0.356  10.982 -1.2949 -1.1681 -0.5062
 3189TIP3    H231059   1.473   0.357  11.087 -1.5220  0.7191 -0.2481
 3190TIP3   OH231060   1.318   4.732  15.775  0.2742 -0.2078 -0.2068
 3190TIP3    H131061   1.372   4.772  15.707  0.3758  1.5920  0.8653
 3190TIP3    H231062   1.240   4.786  15.778  0.7388  0.4320  1.8080
 3191TIP3   OH231063   0.194   5.624   4.875  0.3027  0.1902  0.1916
 3191TIP3    H131064   0.248   5.619   4.954 -0.0992  0.1306  0.4671
 3191TIP3    H231065   0.122   5.683   4.899  0.5834  0.7884 -0.3775
 3192TIP3   OH231066   4.512   5.420   5.060 -0.3559  0.0826  0.1349
 3192TIP3    H131067   4.514   5.334   5.017 -1.7099  0.2899 -0.4061
 3192TIP3    H231068   4.603   5.448   5.061 -0.2393  0.0649 -2.6644
 3193TIP3   OH231069   5.546   6.546   5.507  0.2108 -0.3345  0.0837
 3193TIP3    H131070   5.499   6.619   5.548  0.6060  0.2330 -0.4425
 3193TIP3    H231071   5.489   6.517   5.436  1.3903  1.5813 -1.7703
 3194TIP3   OH231072   2.206   2.877   2.749 -0.7586  0.0692 -0.0286
 3194TIP3    H131073   2.194   2.971   2.739 -0.6602  0.1155  0.3020
 3194TIP3    H231074   2.152   2.839   2.679 -0.2160  0.3942 -0.6323
 3195TIP3   OH231075   6.676   1.357  10.839  0.0402  0.1911  0.5697
 3195TIP3    H131076   6.685   1.450  10.859  1.0806 -0.3397  2.9109
 3195TIP3    H231077   6.582   1.341  10.844 -0.0668  0.9304  1.1760
 3196TIP3   OH231078   2.453   3.576  14.046 -0.2806  0.0563  1.1594
 3196TIP3    H131079   2.499   3.523  13.980  0.3354  0.5512  1.1767
 3196TIP3    H231080   2.423   3.513  14.111 -2.7152 -0.7177 -0.5838
 3197TIP3   OH231081   0.580   6.672   2.714  0.1992 -0.1140 -0.4347
 3197TIP3    H131082   0.485   6.663   2.723  0.3386 -1.1911  0.0558
 3197TIP3    H231083   0.613   6.670   2.803  0.7346 -0.3781 -0.6352
 3198TIP3   OH231084   5.724   1.113  16.442  0.1617 -0.0699 -0.2174
 3198TIP3    H131085   5.638   1.138  16.477 -0.6131 -0.6107 -1.6502
 3198TIP3    H231086   5.787   1.152  16.502 -0.9487  4.2655 -1.5120
 3199TIP3   OH231087   6.397   0.029  15.221 -0.1342 -0.2226 -0.0764
 3199TIP3    H131088   6.373   0.121  15.207  1.2213 -0.0109 -1.2554
 3199TIP3    H231089   6.319  -0.020  15.195 -1.0151  0.5816  0.9245
 3200TIP3   OH231090   1.518   5.660  16.534  0.3264  0.1698 -0.1499
 3200TIP3    H131091   1.428   5.631  16.522  1.0077 -2.1530 -0.1162
 3200TIP3    H231092   1.531   5.728  16.467 -1.6226  1.1080  0.3502
 3201TIP3   OH231093   5.510   5.860   5.012  0.1651 -0.3891 -0.4452
 3201TIP3    H131094   5.464   5.872   5.096 -0.6017 -1.3861 -0.7132
 3201TIP3    H231095   5.584   5.802   5.034  0.3270 -0.1527 -0.3512
 3202TIP3   OH231096   3.230   2.083  13.019 -0.1495 -0.6079  0.0300
 3202TIP3    H131097   3.139   2.090  13.047 -0.6493 -1.2230 -1.3890
 3202TIP3    H231098   3.252   1.991  13.035  0.8709 -0.0740  2.1562
 3203TIP3   OH231099   5.758   1.968   0.185 -0.2736 -0.6330  0.2174
 3203TIP3    H131100   5.742   1.908   0.111  1.2874 -0.3598 -0.3866
 3203TIP3    H231101   5.777   1.910   0.259 -0.8409 -0.8980  0.1623
 3204TIP3   OH231102   3.673   5.540  16.234 -0.1522  0.0132  0.2806
 3204TIP3    H131103   3.605   5.485  16.196  0.7548 -1.7929  1.1425
 3204TIP3    H231104   3.743   5.479  16.257  1.6112  1.7424 -0.1979
 3205TIP3   OH231105   6.783   1.509  11.164 -0.3170  0.2455  0.3227
 3205TIP3    H131106   6.719   1.568  11.123 -0.2660  0.1145  0.0561
 3205TIP3    H231107   6.841   1.567  11.213  0.4490  0.5345 -0.8871
 3206TIP3   OH231108   3.232   4.630   4.861  0.3415  0.2286  0.0176
 3206TIP3    H131109   3.162   4.594   4.915  2.1318 -0.9231  1.7116
 3206TIP3    H231110   3.218   4.725   4.864 -1.6006 -0.0010 -0.4272
 3207TIP3   OH231111   5.758   0.000   2.837 -0.2313 -0.0375 -0.2461
 3207TIP3    H131112   5.717  -0.058   2.773  0.0140 -0.7912  0.2630
 3207TIP3    H231113   5.723  -0.029   2.921 -1.3216  1.5849 -0.0930
 3208TIP3   OH231114   3.115   6.700  12.877 -0.2769  0.2817  0.2955
 3208TIP3    H131115   3.176   6.698  12.804 -1.8069 -1.4768 -1.0157
 3208TIP3    H231116   3.125   6.788  12.915  2.9618  0.0942  0.1345
 3209TIP3   OH231117   5.884   6.602   5.713  0.0918 -0.0594 -0.1918
 3209TIP3    H131118   5.950   6.630   5.776 -0.0419  0.2717 -0.1966
 3209TIP3    H231119   5.806   6.654   5.736 -0.9092 -2.0794  1.3326
 3210TIP3   OH231120   1.424   5.624  14.997 -0.1100 -0.2824 -0.2792
 3210TIP3    H131121   1.355   5.581  15.048  1.5479  1.4500  3.9424
 3210TIP3    H231122   1.382   5.702  14.961 -0.9134 -0.4817  0.2078
 3211TIP3   OH231123   5.790   6.074   5.519  0.8645 -0.1757 -0.0540
 3211TIP3    H131124   5.853   6.031   5.577  0.5367 -0.6340 -0.0269
 3211TIP3    H231125   5.760   6.150   5.568 -0.6354 -1.4489  1.0939
 3212TIP3   OH231126   4.158   5.616   0.618 -0.3692  0.2352 -0.0087
 3212TIP3    H131127   4.227   5.670   0.579 -0.0644 -0.3155 -0.2418
 3212TIP3    H231128   4.129   5.559   0.547 -1.5526  0.9257 -0.1034
 3213TIP3   OH231129   5.140   5.004  17.128  0.6146  0.1990  0.0853
 3213TIP3    H131130   5.073   4.960  17.076  1.3617 -0.2482 -0.5340
 3213TIP3    H231131   5.142   5.094  17.094 -0.4655  0.5525  0.9084
 3214TIP3   OH231132   4.201   5.786  17.194 -0.3062  0.1411  0.1046
 3214TIP3    H131133   4.284   5.802  17.239 -0.5493  2.5031 -0.1805
 3214TIP3    H231134   4.156   5.722  17.250  1.8362 -1.5471  0.0198
 3215TIP3   OH231135   1.487   2.017  14.119  0.3500 -0.1219 -0.1861
 3215TIP3    H131136   1.525   1.997  14.205  2.7135  0.8301 -0.9344
 3215TIP3    H231137   1.433   2.094  14.134 -1.4252 -1.5198  0.9204
 3216TIP3   OH231138   1.816   5.197   4.729  0.1371  0.4243 -0.1044
 3216TIP3    H131139   1.755   5.220   4.798  0.6867 -0.6275  0.7614
 3216TIP3    H231140   1.886   5.262   4.735  0.1089  0.4214  0.2343
 3217TIP3   OH231141   4.801   4.803  12.874 -0.0618  0.9263 -0.1025
 3217TIP3    H131142   4.805   4.890  12.914 -0.2844  1.0191 -0.2856
 3217TIP3    H231143   4.735   4.756  12.925  0.3601  0.7218  0.2719
 3218TIP3   OH231144   1.548   3.422  12.596 -0.0996  0.4833  0.0964
 3218TIP3    H131145   1.497   3.445  12.674  1.0820  0.8874  0.7642
 3218TIP3    H231146   1.500   3.463  12.524  0.0607  2.1371  0.8831
 3219TIP3   OH231147   0.236   6.004   2.410  0.3239 -0.1270 -0.3261
 3219TIP3    H131148   0.147   6.019   2.379  0.2921 -0.2262 -0.2832
 3219TIP3    H231149   0.292   6.038   2.340  0.2746 -2.4571 -1.5917
 3220TIP3   OH231150   5.805   3.178  12.173  0.5244  0.0842  0.3750
 3220TIP3    H131151   5.840   3.192  12.085  0.3613  0.5471  0.3812
 3220TIP3    H231152   5.815   3.263  12.216  1.7095 -0.4639  1.1951
 3221TIP3   OH231153   3.798   4.341  16.492  0.1253 -0.0213  0.3280
 3221TIP3    H131154   3.822   4.428  16.458  0.2624 -0.2603 -0.1941
 3221TIP3    H231155   3.847   4.333  16.574 -3.1245  2.1953  2.7759
 3222TIP3   OH231156   5.375   2.422   3.688  0.1236  0.1397  0.0402
 3222TIP3    H131157   5.417   2.336   3.683 -0.6471 -0.2410 -0.0065
 3222TIP3    H231158   5.403   2.457   3.773  0.1045 -0.3455  0.2537
 3223TIP3   OH231159   3.368   1.444  16.077 -0.3863  0.0208  0.4747
 3223TIP3    H131160   3.431   1.474  16.012 -1.0867 -1.8722 -1.1968
 3223TIP3    H231161   3.421   1.415  16.151  0.8959 -2.4140 -1.2539
 3224TIP3   OH231162   5.048   5.361   5.597  0.0654  0.2228  0.1527
 3224TIP3    H131163   5.133   5.394   5.567 -0.3404 -0.2508 -1.6414
 3224TIP3    H231164   5.065   5.269   5.618  0.5686  0.7845  2.4626
 3225TIP3   OH231165   3.114   5.900   0.235 -0.2851  0.1468  0.2332
 3225TIP3    H131166   3.124   5.985   0.192  1.5563  0.3770  1.0511
 3225TIP3    H231167   3.067   5.920   0.316 -1.0204  0.1709 -0.1899
 3226TIP3   OH231168   3.166   6.483  11.202 -0.3078  0.0095 -0.5499
 3226TIP3    H131169   3.253   6.468  11.164 -0.5427 -0.4711 -0.9000
 3226TIP3    H231170   3.150   6.406  11.257 -0.1191  0.5380  0.2612
 3227TIP3   OH231171   5.191   3.199  13.069  0.3227  0.1947 -0.2150
 3227TIP3    H131172   5.237   3.119  13.045 -0.3669  0.3432 -2.2097
 3227TIP3    H231173   5.238   3.268  13.022  0.2605  0.8220  0.6319
 3228TIP3   OH231174   4.361   0.331   4.559  0.5302 -0.0338 -0.3108
 3228TIP3    H131175   4.406   0.248   4.546 -1.2868 -0.8712 -1.8593
 3228TIP3    H231176   4.302   0.315   4.633 -1.5861 -1.0486 -2.0787
 3229TIP3   OH231177   6.032   5.005  15.260  0.0445 -0.2664  0.6647
 3229TIP3    H131178   5.999   4.980  15.174  1.0627  0.6715 -0.0276
 3229TIP3    H231179   5.977   5.079  15.286  0.2091 -0.0770  0.4798
 3230TIP3   OH231180   5.214   4.250   5.498  0.2408 -0.1331 -0.1959
 3230TIP3    H131181   5.245   4.340   5.489 -2.2465  0.8420  0.3498
 3230TIP3    H231182   5.257   4.218   5.577  0.5927  0.8343  0.0194
 3231TIP3   OH231183   5.214   0.588  12.940 -0.2856  0.4451  0.1097
 3231TIP3    H131184   5.129   0.629  12.928 -1.0194 -1.1846 -0.4338
 3231TIP3    H231185   5.240   0.558  12.853 -0.6783 -1.9233  0.7472
 3232TIP3   OH231186   3.386   1.078   5.403 -0.2352  0.0143 -0.0026
 3232TIP3    H131187   3.442   1.047   5.474  0.2028  0.8799  0.0411
 3232TIP3    H231188   3.312   1.120   5.447 -1.8419 -2.5853 -0.0275
 3233TIP3   OH231189   4.311   1.492  14.482 -0.7782 -0.1905  0.0664
 3233TIP3    H131190   4.336   1.565  14.538  1.0177  0.7007 -1.7816
 3233TIP3    H231191   4.328   1.523  14.393 -0.8325 -2.5432 -0.8338
 3234TIP3   OH231192   1.152   3.043  10.950  0.4687 -0.0330 -0.0057
 3234TIP3    H131193   1.120   3.110  10.891 -0.3055 -1.4068 -1.2075
 3234TIP3    H231194   1.247   3.046  10.942  0.4057  0.4565 -0.5611
 3235TIP3   OH231195   1.521   6.609  13.633  0.4717 -0.6599 -0.4738
 3235TIP3    H131196   1.469   6.560  13.697  0.0270  1.8381  1.2394
 3235TIP3    H231197   1.477   6.592  13.549 -2.6781  0.5846  0.7553
 3236TIP3   OH231198   4.704   6.573   2.591  0.4095 -0.2850 -0.1066
 3236TIP3    H131199   4.776   6.512   2.608 -1.1043 -1.5098  2.6519
 3236TIP3    H231200   4.694   6.573   2.496 -0.1239 -5.2096 -0.2791
 3237TIP3   OH231201   0.549   4.206   3.675 -0.2394  0.0573 -0.0252
 3237TIP3    H131202   0.530   4.181   3.765 -1.3458 -0.2501 -0.3291
 3237TIP3    H231203   0.615   4.143   3.646 -1.5893 -1.3417 -0.1661
 3238TIP3   OH231204   5.267   5.806   4.166 -0.0855 -0.4145  0.3759
 3238TIP3    H131205   5.327   5.744   4.124 -0.1594 -1.4477  1.7241
 3238TIP3    H231206   5.320   5.850   4.232  0.4535  2.3796 -1.7383
 3239TIP3   OH231207   3.078   6.758   1.145  0.1620 -0.1036  0.1754
 3239TIP3    H131208   3.126   6.675   1.153 -0.0377 -0.5096 -2.2201
 3239TIP3    H231209   3.015   6.755   1.217  1.5001 -1.0749  1.3764
 3240TIP3   OH231210   3.974   1.827  14.199 -0.9605  0.0515  1.0960
 3240TIP3    H131211   4.007   1.916  14.190  0.4737 -0.4877  0.8091
 3240TIP3    H231212   3.914   1.831  14.274 -0.0232  1.0035  1.8275
 3241TIP3   OH231213   3.891   5.917   1.535 -0.0593  0.7097  0.0190
 3241TIP3    H131214   3.885   5.830   1.574  0.9183 -0.0025 -1.3321
 3241TIP3    H231215   3.819   5.919   1.471  2.6703 -1.0758 -3.4683
 3242TIP3   OH231216   6.294   5.310  12.913  0.3746 -0.9917 -0.3690
 3242TIP3    H131217   6.377   5.264  12.924  0.0429 -1.2582  1.3139
 3242TIP3    H231218   6.293   5.374  12.984  0.8840  1.8288 -2.6857
 3243TIP3   OH231219   0.332   5.667  16.420  0.1188  0.2706 -0.6164
 3243TIP3    H131220   0.405   5.655  16.359  0.5705  0.5791 -0.1399
 3243TIP3    H231221   0.299   5.578  16.435 -0.2987  0.2264 -1.6625
 3244TIP3   OH231222   2.612   3.939  14.936  0.1829 -0.4334  0.1913
 3244TIP3    H131223   2.565   4.010  14.980 -0.1152 -0.5425  0.0510
 3244TIP3    H231224   2.546   3.896  14.883  0.4645 -0.5215 -0.0926
 3245TIP3   OH231225   6.205   5.045   4.614 -0.8184  0.4129  0.2808
 3245TIP3    H131226   6.236   5.132   4.587 -0.3763  0.3370  0.5407
 3245TIP3    H231227   6.285   4.993   4.624 -1.0591  0.0791  0.4825
 3246TIP3   OH231228   3.033   2.924  12.927 -0.4158 -0.3993  0.3241
 3246TIP3    H131229   2.983   2.884  12.999 -1.8325  1.1729  0.2780
 3246TIP3    H231230   3.080   2.996  12.968 -0.2580 -0.2528 -0.1107
 3247TIP3   OH231231   2.614   6.587   5.643 -0.2056  0.5030  0.0622
 3247TIP3    H131232   2.590   6.606   5.734 -0.1734  0.4926  0.0730
 3247TIP3    H231233   2.633   6.673   5.606 -1.5333  0.6510 -0.3139
 3248TIP3   OH231234   1.241   1.457   4.340 -0.4789 -0.1512  0.4143
 3248TIP3    H131235   1.209   1.369   4.361 -3.7562  0.9661  0.6803
 3248TIP3    H231236   1.255   1.498   4.425  1.0045 -0.3285  0.2894
 3249TIP3   OH231237   6.768   4.961   2.850 -0.1259  0.0628 -0.0770
 3249TIP3    H131238   6.854   4.998   2.831  0.2590 -1.2454 -1.0825
 3249TIP3    H231239   6.782   4.903   2.925 -0.2837  0.3451  0.1752
 3250TIP3   OH231240   4.601   2.026   1.636 -0.0450 -0.3942 -0.1780
 3250TIP3    H131241   4.583   2.075   1.716  1.0757 -1.0391  0.4998
 3250TIP3    H231242   4.520   2.031   1.586 -0.8006 -0.0386  1.0335
 3251TIP3   OH231243   3.347   4.468  12.333 -0.3598 -1.0430 -0.0556
 3251TIP3    H131244   3.268   4.417  12.350  0.1752 -0.9808  3.1769
 3251TIP3    H231245   3.391   4.474  12.418  1.9297  0.9480 -1.2513
 3252TIP3   OH231246   1.928   6.078   0.347 -0.7781  0.1468  0.2924
 3252TIP3    H131247   1.941   6.124   0.264 -1.2370 -1.4410 -0.7061
 3252TIP3    H231248   1.997   6.112   0.404  0.7603 -0.0647 -1.3320
 3253TIP3   OH231249   5.286   4.893  12.224  0.0383 -0.1809 -0.1722
 3253TIP3    H131250   5.368   4.867  12.182 -1.1453 -2.3770 -1.2967
 3253TIP3    H231251   5.258   4.970  12.174  0.8815 -0.0170 -0.4240
 3254TIP3   OH231252   1.621   5.878   3.269 -0.5459 -0.5695  0.3795
 3254TIP3    H131253   1.710   5.851   3.248 -0.3227  1.7485 -2.1542
 3254TIP3    H231254   1.630   5.931   3.349  0.9572  2.2274 -1.4963
 3255TIP3   OH231255   4.846   1.053  14.038 -0.3576 -0.3189 -0.2749
 3255TIP3    H131256   4.907   0.979  14.041  0.9267  0.7459  0.9076
 3255TIP3    H231257   4.783   1.028  13.970 -0.3576 -2.7862  0.5116
 3256TIP3   OH231258   1.447   3.153   9.974  0.2371  0.3599  0.1258
 3256TIP3    H131259   1.373   3.170   9.916  1.4499  1.6872 -1.0973
 3256TIP3    H231260   1.445   3.058   9.988 -2.2160  0.4739  0.9125
 3257TIP3   OH231261   5.692   3.695  10.663  0.2552 -0.4229  0.4194
 3257TIP3    H131262   5.670   3.605  10.688  0.6306  0.3671  4.2620
 3257TIP3    H231263   5.710   3.739  10.746 -0.1853  3.3204 -1.2506
 3258TIP3   OH231264   3.226   2.892  16.028  0.2251 -0.4919  0.9328
 3258TIP3    H131265   3.160   2.904  15.960  1.1047  0.4709  0.2322
 3258TIP3    H231266   3.176   2.866  16.106 -0.7445 -2.0761 -0.1811
 3259TIP3   OH231267   3.728   0.654  10.653  0.0563  0.4840  0.2035
 3259TIP3    H131268   3.715   0.742  10.690  1.3977  0.1892  1.4655
 3259TIP3    H231269   3.812   0.625  10.689 -0.3666 -1.3366 -0.1832
 3260TIP3   OH231270   0.751   2.680   6.548  0.1880  0.3777 -0.9812
 3260TIP3    H131271   0.816   2.745   6.575 -0.0889  0.2775 -0.0112
 3260TIP3    H231272   0.687   2.729   6.498 -0.0927  0.8907 -0.1352
 3261TIP3   OH231273   4.997   5.045   3.656 -0.0927  0.4972  0.2879
 3261TIP3    H131274   4.922   5.065   3.599 -0.4380  0.2903  0.6598
 3261TIP3    H231275   5.057   5.118   3.644  0.2484  0.0368 -1.0180
 3262TIP3   OH231276   3.018   3.805   2.183 -0.6330 -0.1009  0.2230
 3262TIP3    H131277   3.065   3.742   2.128 -0.5817 -1.5799  1.8608
 3262TIP3    H231278   2.984   3.752   2.255 -2.5505  1.3905  0.4936
 3263TIP3   OH231279   2.845   1.305  13.259  0.3345 -0.2954  0.3190
 3263TIP3    H131280   2.923   1.280  13.208 -0.8702 -0.7373 -1.4008
 3263TIP3    H231281   2.786   1.230  13.250  0.1525 -0.4772  2.6300
 3264TIP3   OH231282   4.547   3.482   3.500  0.1476 -0.1279 -0.6257
 3264TIP3    H131283   4.484   3.553   3.486 -0.0367 -0.3145 -0.7531
 3264TIP3    H231284   4.587   3.469   3.414 -0.0053 -0.3512 -0.6650
 3265TIP3   OH231285   2.769   0.117   3.365  0.2363 -0.3677 -0.0289
 3265TIP3    H131286   2.834   0.160   3.310 -0.2647 -1.6768 -1.7378
 3265TIP3    H231287   2.751   0.179   3.435  2.1082  0.6886 -0.4301
 3266TIP3   OH231288   0.226   2.684   4.039 -0.2915 -0.3179  0.0274
 3266TIP3    H131289   0.163   2.613   4.029 -1.2572  0.7662 -1.9476
 3266TIP3    H231290   0.232   2.724   3.953 -0.1538  2.3355  1.1856
 3267TIP3   OH231291   5.590   0.907  12.979  0.2174  0.5371  0.2604
 3267TIP3    H131292   5.516   0.934  13.034  0.0301 -0.2615  0.4098
 3267TIP3    H231293   5.652   0.869  13.041 -0.7230 -1.9853 -0.2154
 3268TIP3   OH231294   6.471   1.955  16.952 -0.1880 -0.5939  0.2916
 3268TIP3    H131295   6.391   1.970  16.901 -0.2577  0.7692  0.7589
 3268TIP3    H231296   6.535   2.014  16.914 -0.2712  0.5320  1.8207
 3269TIP3   OH231297   2.007   4.994   1.354  0.2153 -0.1924 -0.2075
 3269TIP3    H131298   1.978   4.994   1.445 -3.0873 -1.1281 -1.1458
 3269TIP3    H231299   2.021   5.087   1.333 -0.4935  0.1602  0.8347
 3270TIP3   OH231300   5.840   5.984  11.525 -0.1720  0.4928 -0.2600
 3270TIP3    H131301   5.903   5.936  11.580  0.0864 -0.2645 -1.1926
 3270TIP3    H231302   5.848   6.075  11.554  0.8248  0.2969  0.1417
 3271TIP3   OH231303   3.857   1.348   4.066  0.6242 -0.0731  0.0613
 3271TIP3    H131304   3.877   1.426   4.117 -0.8833  0.1880  0.2695
 3271TIP3    H231305   3.888   1.275   4.120  0.6857  0.2927  0.5196
 3272TIP3   OH231306   1.535   3.606   3.570  0.0396  0.5065  0.3518
 3272TIP3    H131307   1.484   3.679   3.535 -0.9659  0.8963  2.4655
 3272TIP3    H231308   1.472   3.535   3.579  0.9664 -0.6322 -1.4947
 3273TIP3   OH231309   4.507   3.217  12.138 -0.0199 -0.5748 -0.3420
 3273TIP3    H131310   4.601   3.216  12.122  0.4171  0.0930  1.8888
 3273TIP3    H231311   4.492   3.297  12.188 -1.7182 -0.9150 -0.2545
 3274TIP3   OH231312   1.794   4.906  12.473 -0.5627  0.0146  0.0864
 3274TIP3    H131313   1.791   4.853  12.553 -0.0133  2.0441  1.5259
 3274TIP3    H231314   1.888   4.911  12.451 -0.6891 -0.3204 -0.5742
 3275TIP3   OH231315   5.034   6.082   1.199 -0.1824  0.3992 -0.1271
 3275TIP3    H131316   4.952   6.131   1.191 -1.2866 -1.1714  0.8828
 3275TIP3    H231317   5.023   6.029   1.278  0.3781 -2.3865 -1.7871
 3276TIP3   OH231318   4.277   4.016  13.224  0.1397 -0.2476 -0.0764
 3276TIP3    H131319   4.339   3.955  13.264  0.7001 -0.1088 -0.6948
 3276TIP3    H231320   4.314   4.103  13.242  0.2641 -0.1742 -0.6487
 3277TIP3   OH231321   3.611   6.448   2.340 -0.0108 -0.5593 -0.4193
 3277TIP3    H131322   3.612   6.403   2.255 -0.5511 -1.8165  0.2194
 3277TIP3    H231323   3.692   6.419   2.383 -0.4275 -1.0218  0.0511
 3278TIP3   OH231324   0.900   0.205   3.048  0.5137  0.0317 -0.1753
 3278TIP3    H131325   0.924   0.278   3.105  0.5248 -0.0784 -0.0387
 3278TIP3    H231326   0.846   0.148   3.103 -2.1866  1.4755 -1.1165
 3279TIP3   OH231327   5.623   3.470  13.724 -0.1461  0.0330  0.0715
 3279TIP3    H131328   5.643   3.543  13.782 -0.0674  0.6767 -0.7480
 3279TIP3    H231329   5.533   3.485  13.697 -0.2273 -0.3366  0.1399
 3280TIP3   OH231330   3.946   4.216  13.385 -0.1793 -0.0235 -0.1037
 3280TIP3    H131331   3.951   4.153  13.313 -1.7823 -0.6724  0.3110
 3280TIP3    H231332   3.921   4.298  13.343 -1.1563 -0.4111 -0.2989
 3281TIP3   OH231333   6.315   0.037  17.023  0.0420  0.2173  0.1656
 3281TIP3    H131334   6.272   0.078  17.098  0.8742  0.0158  0.7658
 3281TIP3    H231335   6.277  -0.050  17.018  0.9618 -0.2683  1.2243
 3282TIP3   OH231336   4.598   4.604  13.596  0.4325 -0.4716 -0.4479
 3282TIP3    H131337   4.514   4.591  13.639 -0.1614  1.2844 -0.9851
 3282TIP3    H231338   4.577   4.649  13.514  1.9863  2.2750  0.4935
 3283TIP3   OH231339   2.664   5.821  16.875  0.2051  0.1069  0.4432
 3283TIP3    H131340   2.741   5.868  16.841  0.4278  0.1425  0.9778
 3283TIP3    H231341   2.682   5.811  16.969  0.4973 -1.7078  0.2257
 3284TIP3   OH231342   6.252   0.638   0.602 -0.1708 -0.2961 -0.2970
 3284TIP3    H131343   6.268   0.545   0.587  2.4172  0.2784 -1.6039
 3284TIP3    H231344   6.235   0.674   0.515  0.7035  0.7377 -0.0683
 3285TIP3   OH231345   5.245   6.019   4.749 -0.0071 -0.6482 -0.2538
 3285TIP3    H131346   5.181   6.090   4.754 -0.1617 -0.4980 -3.0135
 3285TIP3    H231347   5.327   6.061   4.725 -0.2919 -1.3724 -2.8217
 3286TIP3   OH231348   0.060   0.242   2.522  0.3252 -0.8497 -0.1627
 3286TIP3    H131349   0.094   0.260   2.610  0.9772  1.0570 -0.7521
 3286TIP3    H231350   0.137   0.216   2.471  0.4962  0.9283 -0.8629
 3287TIP3   OH231351   5.550   5.942   6.471 -0.7203  0.0012  0.3494
 3287TIP3    H131352   5.548   6.008   6.540 -1.2824 -0.9382  1.2604
 3287TIP3    H231353   5.458   5.922   6.454 -0.5895  0.2128 -0.6785
 3288TIP3   OH231354   6.033   2.046  14.436 -0.4294 -0.3830  0.4617
 3288TIP3    H131355   6.026   1.955  14.406 -0.2488 -0.1272 -0.3543
 3288TIP3    H231356   6.028   2.039  14.532 -1.1550 -1.1831  0.3770
 3289TIP3   OH231357   4.306   2.835  14.242  0.4351  0.0530  0.2400
 3289TIP3    H131358   4.284   2.742  14.230  2.0860 -0.2849 -0.5425
 3289TIP3    H231359   4.230   2.882  14.208 -0.2809 -1.0137  0.3095
 3290TIP3   OH231360   0.052   5.958  12.359  0.1519 -0.0344 -0.5415
 3290TIP3    H131361   0.068   5.998  12.444 -1.9025 -2.2940  1.0551
 3290TIP3    H231362   0.100   5.875  12.362 -1.0913 -0.8102 -0.9172
 3291TIP3   OH231363   0.763   3.238   2.864  0.7012  0.1105  0.1333
 3291TIP3    H131364   0.694   3.189   2.820 -0.3844  1.4117  0.3256
 3291TIP3    H231365   0.775   3.316   2.810  1.3301  0.3786  0.6484
 3292TIP3   OH231366   5.905   2.574   0.422 -0.3527  0.3155  0.9516
 3292TIP3    H131367   5.956   2.529   0.354 -0.5808 -0.2714  1.1624
 3292TIP3    H231368   5.816   2.574   0.389 -0.7098 -1.1731  1.8330
 3293TIP3   OH231369   6.302   2.974  15.656 -0.0820  0.5637  0.4542
 3293TIP3    H131370   6.360   2.961  15.731 -0.0865  0.2638  0.4046
 3293TIP3    H231371   6.301   3.069  15.643 -0.2124  0.6322  0.9373
 3294TIP3   OH231372   3.889   4.496  11.336 -0.2985 -0.3672 -0.1054
 3294TIP3    H131373   3.902   4.526  11.246  1.5089  0.2720  0.3345
 3294TIP3    H231374   3.808   4.445  11.332  0.0408 -0.8511 -2.2146
 3295TIP3   OH231375   0.828   1.215   0.334  0.2540  0.6140  0.0454
 3295TIP3    H131376   0.752   1.174   0.374  0.3282 -0.0975 -0.5363
 3295TIP3    H231377   0.883   1.142   0.305  0.4492  1.1159 -0.8851
 3296TIP3   OH231378   2.391   3.443   3.062  0.0550  0.1086  0.0046
 3296TIP3    H131379   2.458   3.509   3.043 -1.0339  1.0288 -0.7875
 3296TIP3    H231380   2.402   3.424   3.155  3.6785 -2.3637 -0.7038
 3297TIP3   OH231381   6.827   6.239  13.194  1.1251 -0.2220 -0.3505
 3297TIP3    H131382   6.778   6.303  13.245  2.3997 -0.5515  1.3833
 3297TIP3    H231383   6.772   6.222  13.117 -0.8081  0.4018  0.8319
 3298TIP3   OH231384   5.909   5.714  17.257  0.5593  0.0257 -0.3225
 3298TIP3    H131385   5.889   5.795  17.303  0.2513 -0.1652 -0.1174
 3298TIP3    H231386   5.836   5.656  17.278  1.3091 -0.6744  0.4107
 3299TIP3   OH231387   1.912   1.763   0.954 -0.6075 -0.0519  0.1347
 3299TIP3    H131388   1.897   1.855   0.975  0.6436  0.6564 -1.6986
 3299TIP3    H231389   1.924   1.720   1.038 -1.3152  1.4514  1.0381
 3300TIP3   OH231390   5.591   1.867  13.761  0.3806  0.4547 -0.0772
 3300TIP3    H131391   5.585   1.777  13.793 -1.7688  0.3646 -0.5880
 3300TIP3    H231392   5.589   1.859  13.666 -2.8793  1.0547 -0.1971
 3301TIP3   OH231393   5.753   1.968   3.405  0.3400  0.1789 -0.2599
 3301TIP3    H131394   5.722   1.984   3.316  0.3335  0.4190 -0.2143
 3301TIP3    H231395   5.678   1.987   3.461  0.0232 -0.9793 -0.2686
 3302TIP3   OH231396   3.267   1.709   2.022 -0.1420 -0.1305 -0.4723
 3302TIP3    H131397   3.358   1.691   1.997 -0.6155 -1.2346 -1.5018
 3302TIP3    H231398   3.225   1.736   1.941 -1.4935 -2.8456 -0.7826
 3303TIP3   OH231399   3.548   1.704   1.113  0.3794  0.7011  0.6640
 3303TIP3    H131400   3.479   1.654   1.156  1.9495 -0.9818  1.3289
 3303TIP3    H231401   3.609   1.638   1.080 -1.0482  1.7208 -5.0257
 3304TIP3   OH231402   4.302   1.667   6.078 -0.3532  0.6557  0.4172
 3304TIP3    H131403   4.314   1.572   6.073 -3.0339  0.2764 -0.2391
 3304TIP3    H231404   4.391   1.702   6.074  0.6238 -1.7129 -2.0634
 3305TIP3   OH231405   3.792   0.003  11.003 -0.0052 -0.2078  0.5433
 3305TIP3    H131406   3.807   0.058  10.925 -0.7300 -0.1820  0.4184
 3305TIP3    H231407   3.764  -0.081  10.968  0.0967 -0.3331  0.7657
 3306TIP3   OH231408   6.762   2.497   3.109  0.1775 -0.0184  0.3467
 3306TIP3    H131409   6.707   2.575   3.112 -1.2961 -0.8950 -1.5560
 3306TIP3    H231410   6.791   2.484   3.199 -2.9329  0.4162  1.5155
 3307TIP3   OH231411   0.155   3.343   3.669  0.0469  0.4494  0.2111
 3307TIP3    H131412   0.163   3.253   3.701  3.3727  0.5336 -0.0151
 3307TIP3    H231413   0.116   3.335   3.582  0.8358 -0.8729 -0.0482
 3308TIP3   OH231414   0.527   3.070   0.603  0.4582  0.3537  0.6537
 3308TIP3    H131415   0.525   3.143   0.665  0.3821  0.3641  0.6386
 3308TIP3    H231416   0.472   3.099   0.530  0.9812  0.5608  0.3382
 3309TIP3   OH231417   1.252   4.538  12.268 -0.0633  0.6098 -0.6036
 3309TIP3    H131418   1.193   4.604  12.305 -2.0341 -2.6447  2.8248
 3309TIP3    H231419   1.211   4.512  12.186 -1.5471  0.8923  0.0019
 3310TIP3   OH231420   3.797   3.696  15.130 -0.3380  0.2977 -0.0765
 3310TIP3    H131421   3.794   3.774  15.186  1.4956  1.3106 -1.2950
 3310TIP3    H231422   3.706   3.681  15.105 -1.2812 -0.2780  3.1820
 3311TIP3   OH231423   3.739   6.621  16.336  0.2260 -0.0545  0.5980
 3311TIP3    H131424   3.816   6.677  16.346  0.8170 -0.4983 -1.2313
 3311TIP3    H231425   3.762   6.558  16.268 -1.7031 -0.2618  0.0604
 3312TIP3   OH231426   1.077   3.493  16.762  0.6612  0.1905  0.3276
 3312TIP3    H131427   1.165   3.470  16.730  0.8650 -0.6224  1.4220
 3312TIP3    H231428   1.081   3.478  16.856 -0.6902  0.0578  0.3824
 3313TIP3   OH231429   5.257   2.905  15.760 -0.5649 -0.2185  0.2350
 3313TIP3    H131430   5.278   2.888  15.852 -4.4737  2.3126  1.8346
 3313TIP3    H231431   5.199   2.833  15.735 -0.1188 -0.4896 -0.0394
 3314TIP3   OH231432   3.201   5.061  17.078 -0.4019  0.0546 -0.1336
 3314TIP3    H131433   3.181   4.974  17.112  0.1778 -0.0629 -0.0750
 3314TIP3    H231434   3.125   5.115  17.101 -0.5874 -0.3408  0.1800
 3315TIP3   OH231435   3.723   2.889  14.087  0.3115 -0.1836  0.0960
 3315TIP3    H131436   3.703   2.974  14.047  0.2181 -0.7786 -1.1401
 3315TIP3    H231437   3.702   2.824  14.020  3.6874 -1.0272 -0.3513
 3316TIP3   OH231438   5.438   6.236   5.557  0.4592  0.2427 -1.2515
 3316TIP3    H131439   5.512   6.276   5.511  0.8483  1.2377  0.1903
 3316TIP3    H231440   5.428   6.288   5.636 -0.5249 -1.1179 -0.4501
 3317TIP3   OH231441   6.828   5.298  13.638  0.0367 -0.0349  0.8694
 3317TIP3    H131442   6.781   5.322  13.558  2.6818 -0.8462 -1.1011
 3317TIP3    H231443   6.892   5.369  13.650  0.9278 -0.8521  1.0897
 3318TIP3   OH231444   5.585   2.627   0.774  0.7450 -0.3545 -0.6986
 3318TIP3    H131445   5.589   2.628   0.870  0.8849 -1.4541 -0.6773
 3318TIP3    H231446   5.616   2.540   0.750 -0.7998 -0.6697 -1.6678
 3319TIP3   OH231447   3.617   2.585  17.015 -0.2682 -0.4493  0.0141
 3319TIP3    H131448   3.645   2.593  17.106  0.7991  1.4843 -0.4282
 3319TIP3    H231449   3.691   2.619  16.965 -1.9177  1.1993 -1.4172
 3320TIP3   OH231450   6.789   5.353   5.297  0.2739 -0.3996  0.1708
 3320TIP3    H131451   6.733   5.363   5.375 -0.0955  0.1104 -0.1541
 3320TIP3    H231452   6.875   5.330   5.333  0.2572  0.4184  0.7710
 3321TIP3   OH231453   4.663   1.518  11.151  0.0532  0.0140 -0.2226
 3321TIP3    H131454   4.674   1.610  11.171 -1.1458  0.3542 -1.0395
 3321TIP3    H231455   4.675   1.512  11.056 -2.4952 -0.1971 -0.5998
 3322TIP3   OH231456   2.111   5.642  17.082 -0.6993  0.1223  0.3283
 3322TIP3    H131457   2.187   5.684  17.042 -1.2607 -0.2104 -1.1639
 3322TIP3    H231458   2.064   5.714  17.125 -0.5195  0.6529 -0.3454
 3323TIP3   OH231459   6.027   4.891   4.453  0.1485 -0.5088 -0.2014
 3323TIP3    H131460   6.054   4.970   4.500 -2.0805  0.4655 -0.4231
 3323TIP3    H231461   6.095   4.879   4.387  0.6251  1.1672 -0.0770
 3324TIP3   OH231462   4.315   2.702  14.954 -0.0845  0.0060  0.0792
 3324TIP3    H131463   4.266   2.697  14.872 -2.2739 -0.5355  1.3461
 3324TIP3    H231464   4.330   2.611  14.979 -3.0804 -0.0639  2.2304
 3325TIP3   OH231465   1.740   1.276   4.081  0.6372 -0.1585 -0.1862
 3325TIP3    H131466   1.692   1.309   4.004  1.9383 -0.2106 -1.0478
 3325TIP3    H231467   1.789   1.201   4.047  1.8313  0.2872  0.5158
 3326TIP3   OH231468   3.447   5.734  11.001  0.3301 -0.9017  0.5928
 3326TIP3    H131469   3.505   5.796  10.957 -0.3233 -0.4265  0.3889
 3326TIP3    H231470   3.400   5.689  10.930 -1.6891  0.7835  0.7642
 3327TIP3   OH231471   5.136   6.739  16.714  0.2098 -0.3056  0.5024
 3327TIP3    H131472   5.095   6.781  16.638 -0.4465  0.3200  1.1856
 3327TIP3    H231473   5.166   6.812  16.768  2.0431 -0.7437  0.1417
 3328TIP3   OH231474   0.510   0.531   0.296 -0.0046  0.4398 -0.0203
 3328TIP3    H131475   0.427   0.572   0.272  0.7019  1.7900 -0.2593
 3328TIP3    H231476   0.492   0.485   0.378 -1.3430 -0.5129 -0.8094
 3329TIP3   OH231477   3.026   1.478   3.328 -0.2283 -0.4345 -0.1757
 3329TIP3    H131478   2.956   1.464   3.264  0.5887 -1.3365 -0.8883
 3329TIP3    H231479   3.016   1.570   3.353 -2.0510 -0.6932  0.2111
 3330TIP3   OH231480   1.318   5.939  11.122 -0.4035 -0.6498  0.0638
 3330TIP3    H131481   1.341   5.847  11.137  1.7266 -0.6554 -2.5094
 3330TIP3    H231482   1.357   5.985  11.195 -1.5585 -1.7332  1.4323
 3331TIP3   OH231483   5.490   0.457   0.611  1.1002  0.4726 -0.8976
 3331TIP3    H131484   5.477   0.517   0.684  1.6314 -0.9359  0.3889
 3331TIP3    H231485   5.535   0.510   0.545  1.6963  1.4541  0.2502
 3332TIP3   OH231486   3.955   1.488   0.883  0.1480 -0.4160 -0.0901
 3332TIP3    H131487   3.904   1.464   0.960  0.8769  0.2178  0.6056
 3332TIP3    H231488   3.973   1.405   0.839  0.7279 -0.9277  1.0686
 3333TIP3   OH231489   5.047   6.556  14.262 -0.4191 -0.6739 -0.9291
 3333TIP3    H131490   5.009   6.643  14.273  1.1349 -0.0602 -0.0639
 3333TIP3    H231491   4.972   6.497  14.259 -1.4698  0.5924 -0.5434
 3334TIP3   OH231492   4.642   4.917   1.612  0.2202 -0.4362 -0.1691
 3334TIP3    H131493   4.585   4.852   1.652 -1.2790  0.2362 -1.0960
 3334TIP3    H231494   4.699   4.946   1.683 -0.9955 -0.7246  0.9763
 3335TIP3   OH231495   4.558   1.188  14.553 -0.1008  0.0330 -0.1060
 3335TIP3    H131496   4.517   1.236  14.625  1.5952 -0.4991  1.2718
 3335TIP3    H231497   4.611   1.252  14.507 -1.8358  0.5715 -1.4913
 3336TIP3   OH231498   4.303   4.292  16.787 -0.1569  0.2422 -0.7170
 3336TIP3    H131499   4.251   4.218  16.756  1.8734 -1.3227 -0.5591
 3336TIP3    H231500   4.356   4.317  16.711 -0.5148  1.2928 -0.6385
 3337TIP3   OH231501   4.279   2.813   0.117 -0.4794 -0.0471  0.5053
 3337TIP3    H131502   4.231   2.893   0.092 -1.2957 -0.8961 -0.7505
 3337TIP3    H231503   4.273   2.810   0.212 -3.2181 -0.2680  0.3866
 3338TIP3   OH231504   2.813   1.397  14.153  0.1359 -0.3617 -0.4500
 3338TIP3    H131505   2.819   1.382  14.248 -4.2103 -1.0262 -0.0600
 3338TIP3    H231506   2.892   1.356  14.118  0.9620 -1.8840  2.7346
 3339TIP3   OH231507   3.314   3.407   0.355  0.8661  0.2159 -0.2734
 3339TIP3    H131508   3.297   3.499   0.372 -2.7908 -0.4537  0.5181
 3339TIP3    H231509   3.386   3.384   0.414 -0.6834  1.7135  2.3400
 3340TIP3   OH231510   0.352   1.782  11.537 -0.1119  0.0034 -0.3419
 3340TIP3    H131511   0.391   1.775  11.450  0.1714  0.6059 -0.2696
 3340TIP3    H231512   0.356   1.693  11.572  2.2037  0.1865  0.0819
 3341TIP3   OH231513   3.765   2.640   4.174 -0.2047  0.1407  0.3002
 3341TIP3    H131514   3.799   2.597   4.252 -0.1612  0.9187  0.7193
 3341TIP3    H231515   3.818   2.719   4.165  0.2773 -0.3125 -0.9477
 3342TIP3   OH231516   6.143   5.169   1.327  0.2418  0.5666  0.3830
 3342TIP3    H131517   6.231   5.134   1.315  0.6914  2.0163 -0.6936
 3342TIP3    H231518   6.085   5.098   1.297  1.0036 -0.3903  1.0899
 3343TIP3   OH231519   3.763   4.406   1.808 -0.0895 -0.3164  0.3756
 3343TIP3    H131520   3.744   4.485   1.858  4.1429  0.3901  1.2191
 3343TIP3    H231521   3.697   4.342   1.837 -2.8003  2.3780  0.6498
 3344TIP3   OH231522   5.400   3.852  17.138  0.2927 -0.3336  0.0659
 3344TIP3    H131523   5.432   3.914  17.203  2.4794 -1.2503 -0.0522
 3344TIP3    H231524   5.456   3.775  17.149 -1.3558 -1.7316 -0.7969
 3345TIP3   OH231525   3.408   2.878   3.089 -0.2028 -0.1285 -0.0078
 3345TIP3    H131526   3.491   2.868   3.044  1.5763 -1.0117  3.1719
 3345TIP3    H231527   3.431   2.904   3.178 -3.1925 -2.0121  1.4997
 3346TIP3   OH231528   5.855   3.972   2.503 -0.6803 -0.0818 -0.2105
 3346TIP3    H131529   5.784   4.033   2.525  0.0643  0.3776  0.9828
 3346TIP3    H231530   5.934   4.016   2.533 -0.1010 -1.5247  0.4384
 3347TIP3   OH231531   5.004   5.260   2.301  0.2885  0.2083 -0.3129
 3347TIP3    H131532   5.064   5.310   2.357 -0.4268  0.0628  0.5871
 3347TIP3    H231533   5.048   5.258   2.216  0.9647  1.2118 -0.0076
 3348TIP3   OH231534   1.466   4.321   0.262 -0.0796 -0.1949 -0.2178
 3348TIP3    H131535   1.393   4.273   0.300  0.1189 -0.9503 -0.7712
 3348TIP3    H231536   1.511   4.257   0.207  0.5579  0.4605 -0.4770
 3349TIP3   OH231537   0.623   1.774   4.395  0.9107 -0.1049  0.1621
 3349TIP3    H131538   0.645   1.782   4.487  1.2607 -1.8643  0.2779
 3349TIP3    H231539   0.701   1.734   4.355  0.4223 -0.2196 -0.7048
 3350TIP3   OH231540   5.434   1.370   3.913 -0.2642 -0.3086  0.4858
 3350TIP3    H131541   5.476   1.453   3.934 -0.4843 -0.0357 -0.1069
 3350TIP3    H231542   5.377   1.352   3.987  0.4018 -0.3503  0.9898
 3351TIP3   OH231543   2.757   1.609  11.069 -0.1544 -0.0251  0.2740
 3351TIP3    H131544   2.751   1.643  10.980 -2.6996 -1.9735 -0.4010
 3351TIP3    H231545   2.763   1.688  11.124  1.6077  1.2199 -1.5549
 3352TIP3   OH231546   4.976   0.204  15.394  0.3783 -0.3347 -0.1718
 3352TIP3    H131547   5.033   0.204  15.317 -0.8330  0.3945 -1.1179
 3352TIP3    H231548   4.887   0.198  15.357 -0.2056 -0.5053  1.2029
 3353TIP3   OH231549   5.436   3.350   4.849  0.3190 -0.1263  0.2143
 3353TIP3    H131550   5.511   3.409   4.843 -0.7221  1.0733 -2.8587
 3353TIP3    H231551   5.384   3.385   4.921  1.3249  0.7252  0.5500
 3354TIP3   OH231552   3.948   2.726   0.335 -0.2265  0.0145 -0.2954
 3354TIP3    H131553   3.989   2.812   0.337  1.0420 -0.5662  0.4574
 3354TIP3    H231554   4.009   2.672   0.284 -0.6303 -0.6083 -0.1281
 3355TIP3   OH231555   6.230   0.619   5.410  0.2836  0.1480  0.7836
 3355TIP3    H131556   6.179   0.588   5.484  0.7975 -0.1449  1.0217
 3355TIP3    H231557   6.310   0.567   5.412 -0.9120 -2.0239 -1.7583
 3356TIP3   OH231558   4.275   0.380  13.341  0.2476 -0.2352 -0.0477
 3356TIP3    H131559   4.242   0.343  13.423 -2.0444 -0.4773 -1.0011
 3356TIP3    H231560   4.197   0.396  13.289  1.6220  0.2050 -2.0977
 3357TIP3   OH231561   0.413   2.191  13.340 -0.0937 -0.2760 -0.1881
 3357TIP3    H131562   0.381   2.134  13.410 -0.4350  1.7164  1.3500
 3357TIP3    H231563   0.371   2.275  13.356  0.2502  0.3931 -2.5086
 3358TIP3   OH231564   2.824   3.097   2.255 -0.4283  0.0120  0.0744
 3358TIP3    H131565   2.911   3.070   2.225  0.4728  3.6677 -1.0527
 3358TIP3    H231566   2.826   3.082   2.350  1.7024  0.6247  0.1755
 3359TIP3   OH231567   1.629   2.281  16.895 -0.1372 -0.2536 -0.6590
 3359TIP3    H131568   1.656   2.269  16.804 -0.1761 -1.1917 -0.5509
 3359TIP3    H231569   1.556   2.220  16.907  0.6658 -1.0349  0.3484
 3360TIP3   OH231570   4.132   6.188  17.018  0.5522 -0.1231 -0.5985
 3360TIP3    H131571   4.117   6.133  16.942 -1.8650 -0.2681 -0.1039
 3360TIP3    H231572   4.131   6.128  17.092 -1.4036  0.4255 -0.1183
 3361TIP3   OH231573   0.183   2.793   4.563  0.4634  0.3556  0.3086
 3361TIP3    H131574   0.190   2.822   4.472 -0.3799  0.3951  0.2477
 3361TIP3    H231575   0.252   2.728   4.573 -0.7935 -1.2813 -1.0238
 3362TIP3   OH231576   1.763   2.028  15.781  0.4585 -0.3634  0.1751
 3362TIP3    H131577   1.787   2.098  15.720  1.2380 -1.5177 -0.8805
 3362TIP3    H231578   1.670   2.042  15.799  0.4160  0.4615 -0.6456
 3363TIP3   OH231579   4.613   4.532   2.251 -0.2704 -0.9403 -0.0091
 3363TIP3    H131580   4.651   4.486   2.326  1.2543 -0.6419 -0.5779
 3363TIP3    H231581   4.564   4.604   2.290 -1.2530 -2.0016  0.7965
 3364TIP3   OH231582   2.278   2.518  11.792  0.0141  0.3589 -0.0461
 3364TIP3    H131583   2.201   2.476  11.831 -0.7228 -0.6499 -2.4078
 3364TIP3    H231584   2.277   2.489  11.701  2.0991  1.9261 -0.6317
 3365TIP3   OH231585   3.640   6.765  14.047  0.0647  0.2504  0.1376
 3365TIP3    H131586   3.599   6.848  14.023 -0.8808 -0.6110 -1.3738
 3365TIP3    H231587   3.570   6.700  14.039  0.6860 -0.6689  1.6480
 3366TIP3   OH231588   4.878   6.197  10.663 -0.4092 -0.5330  0.0660
 3366TIP3    H131589   4.921   6.191  10.577  1.8543 -0.6198  1.1245
 3366TIP3    H231590   4.836   6.112  10.675  0.9893 -1.2915 -0.1458
 3367TIP3   OH231591   2.272   4.623   3.840  0.0223  0.0443  0.1045
 3367TIP3    H131592   2.312   4.613   3.927 -0.5954 -2.2064  0.1984
 3367TIP3    H231593   2.178   4.622   3.857 -0.1105  1.0350 -0.4908
 3368TIP3   OH231594   4.842   4.913   4.105  0.0826  0.5397 -0.4369
 3368TIP3    H131595   4.848   5.004   4.135 -1.4911  0.1483  1.2750
 3368TIP3    H231596   4.809   4.919   4.016  0.8165  1.6770 -0.6460
 3369TIP3   OH231597   3.966   1.003   0.069 -0.3945 -0.1293  0.4646
 3369TIP3    H131598   4.021   0.927   0.047 -0.5033  0.3765 -1.8904
 3369TIP3    H231599   3.879   0.966   0.082 -0.9605 -0.3192 -2.9417
 3370TIP3   OH231600   1.368   6.824  12.169  0.0891 -0.1299 -0.4467
 3370TIP3    H131601   1.334   6.845  12.256 -1.2063 -1.8525 -0.5005
 3370TIP3    H231602   1.296   6.780  12.124  2.2528 -4.1357 -0.5194
 3371TIP3   OH231603   0.678   4.956   0.807  0.1384  0.6227 -0.2376
 3371TIP3    H131604   0.694   5.050   0.806 -0.0682  0.7767  2.5337
 3371TIP3    H231605   0.722   4.925   0.886 -1.0096 -1.3525 -0.3054
 3372TIP3   OH231606   0.896   4.925  12.227  0.0145  0.4934  0.2689
 3372TIP3    H131607   0.893   4.875  12.145  2.7482  1.9158 -0.8098
 3372TIP3    H231608   0.903   5.016  12.200  0.4332  1.0484  2.0967
 3373TIP3   OH231609   3.192   6.547   2.726 -0.1223  0.3107  0.1112
 3373TIP3    H131610   3.174   6.529   2.818 -0.5565  0.2654  0.0208
 3373TIP3    H231611   3.117   6.599   2.696 -0.2310 -0.0883 -0.3342
 3374TIP3   OH231612   5.430   0.855   2.129 -0.5825  0.2094 -0.0975
 3374TIP3    H131613   5.383   0.868   2.047 -0.0737  2.2228 -0.1388
 3374TIP3    H231614   5.516   0.821   2.104 -0.2859  1.1902 -0.4712
 3375TIP3   OH231615   5.231   2.186   1.245 -0.0396  0.5043  0.4403
 3375TIP3    H131616   5.270   2.244   1.179  1.2338  1.5155  2.0072
 3375TIP3    H231617   5.306   2.145   1.288 -0.8857 -2.0230 -0.2796
 3376TIP3   OH231618   2.658   5.216   3.959  0.6494  0.5671 -0.6262
 3376TIP3    H131619   2.733   5.270   3.984  0.3266  1.5524 -1.7002
 3376TIP3    H231620   2.689   5.163   3.886  0.7149 -0.1012 -0.1214
 3377TIP3   OH231621   5.171   6.063   0.021  0.3687 -0.3820 -0.0781
 3377TIP3    H131622   5.228   5.993  -0.012  1.8279  1.4877 -1.7342
 3377TIP3    H231623   5.157   6.121  -0.054  0.6071  2.0109  1.6119
 3378TIP3   OH231624   0.348   5.789  10.558  0.4267 -0.1686  0.0687
 3378TIP3    H131625   0.324   5.718  10.617  1.9853 -1.0344 -0.2851
 3378TIP3    H231626   0.441   5.774  10.538  0.5671  1.4536 -0.7281
 3379TIP3   OH231627   1.327   5.360  15.501 -0.4175 -0.0138  0.0987
 3379TIP3    H131628   1.394   5.296  15.476  1.7024  0.6863  3.3861
 3379TIP3    H231629   1.255   5.343  15.441  2.0891 -1.8336 -2.6893
 3380TIP3   OH231630   6.488   3.710   6.506  0.2887 -0.6405  0.0027
 3380TIP3    H131631   6.414   3.651   6.494 -0.5981  0.3312  0.5665
 3380TIP3    H231632   6.552   3.681   6.441 -0.7079 -1.2864 -0.7245
 3381TIP3   OH231633   6.797   4.001  12.006  0.2071  0.2895 -0.0632
 3381TIP3    H131634   6.702   4.011  12.009  0.2177  0.8267 -1.1136
 3381TIP3    H231635   6.811   3.913  11.971  0.1202 -0.5395  1.8599
 3382TIP3   OH231636   2.204   6.443  12.081 -0.1423  0.5339  0.3579
 3382TIP3    H131637   2.289   6.483  12.065  0.1077  0.0180  0.3574
 3382TIP3    H231638   2.145   6.485  12.019  0.3277  0.1873 -0.3395
 3383TIP3   OH231639   4.131   0.179  16.607  0.0770  1.0702  0.0835
 3383TIP3    H131640   4.105   0.145  16.692  0.8224 -0.9004 -0.4206
 3383TIP3    H231641   4.149   0.272  16.622  0.7600  0.6442  2.1930
 3384TIP3   OH231642   4.025   1.308  12.704 -0.3280 -0.0485 -0.4202
 3384TIP3    H131643   4.076   1.276  12.779 -0.4229 -0.3416 -0.4826
 3384TIP3    H231644   4.049   1.250  12.632  0.1714  0.5634 -0.7584
 3385TIP3   OH231645   5.129   2.565  14.597 -0.2436  0.2371 -0.0990
 3385TIP3    H131646   5.073   2.583  14.673 -1.3863 -0.0305 -0.8466
 3385TIP3    H231647   5.140   2.651  14.555 -2.3807 -0.0369 -1.4319
 3386TIP3   OH231648   1.479   3.365  14.868  0.1010  0.1606  0.4456
 3386TIP3    H131649   1.394   3.360  14.824  1.6497 -0.8727 -2.7047
 3386TIP3    H231650   1.478   3.293  14.931 -0.4649 -1.6097 -1.4648
 3387TIP3   OH231651   1.130   5.904   1.200 -0.3386 -0.1667  0.6052
 3387TIP3    H131652   1.207   5.958   1.219  0.3297 -0.3125 -1.4764
 3387TIP3    H231653   1.056   5.960   1.222  0.2976 -0.2231  3.2008
 3388TIP3   OH231654   6.631   0.383   3.814 -0.0313 -0.6727 -0.1757
 3388TIP3    H131655   6.541   0.382   3.783 -0.4517 -3.1291  0.8626
 3388TIP3    H231656   6.679   0.328   3.751  0.9096  1.0650 -1.0416
 3389TIP3   OH231657   4.182   1.944   0.029 -0.1848 -0.1779 -0.3680
 3389TIP3    H131658   4.230   1.863   0.048 -0.1848 -0.6631 -2.2699
 3389TIP3    H231659   4.248   2.013   0.038  0.2422 -0.5693 -0.4217
 3390TIP3   OH231660   0.952   5.756  13.894 -0.8054 -0.5148  0.0950
 3390TIP3    H131661   0.908   5.709  13.965  0.6351  0.1496  1.5020
 3390TIP3    H231662   0.977   5.687  13.832 -2.3911 -1.0691  0.0356
 3391TIP3   OH231663   4.602   6.729  13.205 -0.3955  0.0065 -0.3140
 3391TIP3    H131664   4.664   6.800  13.190  0.1022 -0.9022 -3.1081
 3391TIP3    H231665   4.517   6.773  13.212  0.2687  1.1156  1.8899
 3392TIP3   OH231666   1.510   4.952  14.163  0.4782  0.2401 -0.5427
 3392TIP3    H131667   1.472   4.930  14.248 -1.2399 -0.7198 -1.5101
 3392TIP3    H231668   1.457   5.025  14.132  0.7302  0.2082 -1.0537
 3393TIP3   OH231669   5.768   3.603   1.699 -0.3607  0.7390  0.1798
 3393TIP3    H131670   5.851   3.557   1.705 -0.1730  1.2096  1.5287
 3393TIP3    H231671   5.717   3.553   1.636  1.6922  1.6593 -2.4198
 3394TIP3   OH231672   0.921   5.249   2.666 -0.2018  0.3094  0.1494
 3394TIP3    H131673   0.949   5.339   2.686 -1.1832  0.5014  0.7280
 3394TIP3    H231674   0.920   5.205   2.751 -1.5025  0.2803  0.1421
 3395TIP3   OH231675   2.572   5.150   1.983  0.3236 -0.1522  0.0455
 3395TIP3    H131676   2.537   5.140   2.072  0.8627 -0.8308  0.1925
 3395TIP3    H231677   2.574   5.245   1.969 -3.6058 -0.0416 -0.8163
 3396TIP3   OH231678   2.803   3.272  16.151 -0.4617 -0.0166 -0.0262
 3396TIP3    H131679   2.851   3.341  16.197 -0.8054 -0.1395  0.5181
 3396TIP3    H231680   2.840   3.273  16.062  0.3727  0.0620  0.3073
 3397TIP3   OH231681   0.249   6.820  12.655  0.0826 -0.0162 -0.0007
 3397TIP3    H131682   0.296   6.785  12.580  0.1082  0.3889 -0.1778
 3397TIP3    H231683   0.194   6.890  12.619  1.5262  1.5152  0.5914
 3398TIP3   OH231684   1.732   3.553  11.657 -0.2445 -0.3164 -0.0413
 3398TIP3    H131685   1.687   3.619  11.711 -0.1201 -0.6937  0.5230
 3398TIP3    H231686   1.661   3.500  11.620 -0.2743 -0.8712  0.7982
 3399TIP3   OH231687   6.251   2.577   6.981 -0.1891  0.4879 -0.2696
 3399TIP3    H131688   6.176   2.524   7.009 -0.4318  0.7874 -0.3467
 3399TIP3    H231689   6.269   2.547   6.892  0.9484 -0.8710  0.3837
 3400TIP3   OH231690   0.069   2.854  14.696 -0.0810  0.4204  0.3801
 3400TIP3    H131691   0.053   2.792  14.625  1.8572  0.6480 -0.3328
 3400TIP3    H231692   0.016   2.931  14.673  1.5187  1.0226 -1.6217
 3401TIP3   OH231693   3.056   1.456  10.672  0.3429  0.5946 -0.6594
 3401TIP3    H131694   2.961   1.462  10.664 -0.1760 -1.3162  2.3761
 3401TIP3    H231695   3.077   1.366  10.646  1.2278  0.8003 -0.6992
 3402TIP3   OH231696   3.265   5.870   5.477 -0.0474 -0.0282  0.2901
 3402TIP3    H131697   3.222   5.793   5.513  0.5950 -0.4517  0.1614
 3402TIP3    H231698   3.359   5.854   5.489  0.1718  0.0563 -1.0727
 3403TIP3   OH231699   3.121   6.402  14.253 -0.1985  0.2356  0.2648
 3403TIP3    H131700   3.092   6.385  14.343 -0.3908  2.2192  0.6407
 3403TIP3    H231701   3.061   6.469  14.222  1.7634  1.8852 -0.2008
 3404TIP3   OH231702   5.911   2.607   2.594 -0.2070  0.1322  0.0550
 3404TIP3    H131703   5.905   2.685   2.538  0.8608  0.4520  0.3608
 3404TIP3    H231704   5.892   2.639   2.682 -0.1503 -0.0323  0.1276
 3405TIP3   OH231705   3.227   0.234  11.322 -0.5967  0.1245 -0.1512
 3405TIP3    H131706   3.218   0.204  11.231 -0.7083  0.0348 -0.1111
 3405TIP3    H231707   3.146   0.281  11.340 -0.4515  0.3913 -0.1913
 3406TIP3   OH231708   1.839   6.257   3.280  1.1089 -0.0983  1.1034
 3406TIP3    H131709   1.870   6.202   3.209  0.9124 -0.1734  1.0734
 3406TIP3    H231710   1.908   6.254   3.346  1.8953  1.0432  0.3580
 3407TIP3   OH231711   0.388   4.090   4.360  0.1632  0.0665  0.5589
 3407TIP3    H131712   0.392   4.181   4.388  0.7307  0.2942 -0.2265
 3407TIP3    H231713   0.479   4.063   4.351  0.0107 -0.0714 -0.7736
 3408TIP3   OH231714   0.755   5.252  10.961  0.3734  0.0610  0.5937
 3408TIP3    H131715   0.792   5.166  10.940  1.2817  0.1398  1.7774
 3408TIP3    H231716   0.661   5.242  10.944  0.6098 -0.8142 -0.3430
 3409TIP3   OH231717   3.581   4.527  16.279 -0.2665 -0.2008 -0.6610
 3409TIP3    H131718   3.655   4.474  16.310 -1.2777 -0.8650  0.6829
 3409TIP3    H231719   3.577   4.600  16.341 -2.3009 -1.5306  0.8638
 3410TIP3   OH231720   2.228   4.538  16.038 -0.9236 -0.6872 -0.6045
 3410TIP3    H131721   2.271   4.623  16.039  0.2155 -1.2397 -0.8050
 3410TIP3    H231722   2.143   4.553  16.081 -0.0736  0.1869  0.8344
 3411TIP3   OH231723   0.994   3.685   4.972  0.0385  0.7995  0.5773
 3411TIP3    H131724   0.944   3.764   4.993 -0.1273  1.8916 -3.2032
 3411TIP3    H231725   0.999   3.637   5.055 -3.7132  2.5947  2.0920
 3412TIP3   OH231726   2.585   4.173   4.847 -0.5189  0.1069 -0.1023
 3412TIP3    H131727   2.540   4.144   4.926 -0.7584 -0.1390 -0.3265
 3412TIP3    H231728   2.676   4.145   4.859 -0.6243 -0.2228 -0.0620
 3413TIP3   OH231729   6.521   1.856   1.857  0.5868  0.2367  0.3284
 3413TIP3    H131730   6.443   1.911   1.851 -0.8462 -1.8063 -0.6913
 3413TIP3    H231731   6.535   1.846   1.951  1.3004  2.7900  0.5844
 3414TIP3   OH231732   4.519   3.725   1.948 -0.9321 -0.5006  0.6048
 3414TIP3    H131733   4.467   3.782   1.891  0.6301  0.0811 -0.2981
 3414TIP3    H231734   4.479   3.638   1.937  0.5097 -0.8833 -3.1298
 3415TIP3   OH231735   5.228   2.157   5.484  0.2313  0.4963  0.1670
 3415TIP3    H131736   5.269   2.072   5.499  2.9307  1.1378 -2.6450
 3415TIP3    H231737   5.281   2.219   5.534  0.7000  0.9643 -0.8937
 3416TIP3   OH231738   4.097   2.925   2.083 -0.1484  0.3553  0.0256
 3416TIP3    H131739   4.063   2.931   1.994  0.4247 -0.5741 -0.2741
 3416TIP3    H231740   4.121   2.833   2.093 -0.1150  0.4729  1.1091
 3417TIP3   OH231741   0.940   0.454   4.988  0.5557  0.1729  0.1554
 3417TIP3    H131742   0.874   0.511   4.949  0.5287 -1.1194 -1.8453
 3417TIP3    H231743   0.908   0.438   5.077 -0.1679  2.0620  0.2850
 3418TIP3   OH231744   5.070   3.505  14.878  0.3347 -0.7097 -0.3353
 3418TIP3    H131745   5.123   3.569  14.925 -1.1075  0.8264 -0.7187
 3418TIP3    H231746   5.121   3.486  14.798  1.6442 -1.5054  0.6386
 3419TIP3   OH231747   4.744   6.807  14.561  0.0660  0.0674 -0.1067
 3419TIP3    H131748   4.657   6.768  14.549 -0.1739  1.2747 -3.5276
 3419TIP3    H231749   4.731   6.876  14.625 -1.7461  0.6927 -1.0718
 3420TIP3   OH231750   1.490   6.190  15.299 -0.4411 -0.1593  0.3548
 3420TIP3    H131751   1.414   6.131  15.298  0.7342 -1.7366 -0.4997
 3420TIP3    H231752   1.481   6.239  15.381 -2.3979 -0.2525  0.2475
 3421TIP3   OH231753   4.372   2.964   4.606 -0.0616 -0.7922  0.0995
 3421TIP3    H131754   4.387   2.885   4.658  0.7299 -1.5851 -1.2693
 3421TIP3    H231755   4.459   2.988   4.574 -0.4512  0.0033 -0.3872
 3422TIP3   OH231756   2.914   1.195  12.988  0.3643  0.0903 -0.4073
 3422TIP3    H131757   2.965   1.129  13.035 -0.2323  0.6714  1.1335
 3422TIP3    H231758   2.823   1.175  13.010  0.1857  1.5400  0.3096
 3423TIP3   OH231759   1.182   2.176   2.030 -0.8077  0.2504 -0.4386
 3423TIP3    H131760   1.118   2.144   1.965 -0.7764 -1.4338  0.2986
 3423TIP3    H231761   1.156   2.133   2.111  0.5898  0.4420  0.1278
 3424TIP3   OH231762   2.304   6.412  12.992 -0.1264  0.2730  0.7441
 3424TIP3    H131763   2.354   6.394  13.071 -0.0496 -0.6364  0.5083
 3424TIP3    H231764   2.368   6.406  12.921 -0.5217 -0.7799  0.4526
 3425TIP3   OH231765   2.219   3.031  14.359  0.1430 -0.4429  0.0724
 3425TIP3    H131766   2.144   2.986  14.396  0.3263 -0.7921  0.0197
 3425TIP3    H231767   2.266   3.067  14.434 -0.3953  0.2901  0.0722
 3426TIP3   OH231768   5.713   6.705   4.892 -0.0375  0.6690 -0.0323
 3426TIP3    H131769   5.804   6.729   4.872 -0.3104  1.5740 -0.2498
 3426TIP3    H231770   5.718   6.660   4.976  0.6796  0.2087 -0.3104
 3427TIP3   OH231771   2.866   1.904   3.588 -0.8158  0.0222 -0.1683
 3427TIP3    H131772   2.788   1.954   3.564 -0.4988 -0.2902 -2.0680
 3427TIP3    H231773   2.846   1.814   3.561 -0.2478 -0.2970  0.4382
 3428TIP3   OH231774   0.675   4.117  14.301  0.2378  0.4839  0.1879
 3428TIP3    H131775   0.755   4.084  14.341  0.8985  0.7032 -0.9153
 3428TIP3    H231776   0.638   4.042  14.255  0.2883  0.6050 -0.0513
 3429TIP3   OH231777   2.684   4.091   3.032 -0.3260 -0.2527  0.3463
 3429TIP3    H131778   2.651   4.154   3.097  0.2078  0.8456 -0.4156
 3429TIP3    H231779   2.663   4.005   3.069  0.7420  0.3055  2.3919
 3430TIP3   OH231780   3.736   6.298   1.688  0.1401 -0.3198  0.2350
 3430TIP3    H131781   3.667   6.310   1.753 -1.3742  0.7168 -1.5042
 3430TIP3    H231782   3.700   6.234   1.626  2.2073 -2.6001  1.1950
 3431TIP3   OH231783   4.492   2.404   5.391 -0.4339  0.0876 -0.2413
 3431TIP3    H131784   4.585   2.424   5.398 -0.3637  0.2350 -1.3708
 3431TIP3    H231785   4.457   2.418   5.479 -0.0851  3.5428 -0.5079
 3432TIP3   OH231786   4.124   1.356  10.876 -0.6353 -0.0123  0.7364
 3432TIP3    H131787   4.092   1.322  10.793 -1.4899 -0.4005  1.2047
 3432TIP3    H231788   4.051   1.342  10.937  0.2134 -0.3504  1.7081
 3433TIP3   OH231789   4.520   6.784   1.426  0.4466  0.1384  0.1624
 3433TIP3    H131790   4.562   6.706   1.391  1.2401  0.2246  0.8900
 3433TIP3    H231791   4.575   6.857   1.397 -0.8243  0.5546 -1.3397
 3434TIP3   OH231792   1.678   5.531   4.771 -0.1657 -0.1848  0.5062
 3434TIP3    H131793   1.678   5.443   4.810  0.0646  0.2662  1.5544
 3434TIP3    H231794   1.586   5.549   4.753 -0.7400  0.8004  3.7299
 3435TIP3   OH231795   2.830   5.158  14.608 -0.8521  0.2486  0.1361
 3435TIP3    H131796   2.917   5.169  14.571 -1.2881 -1.8891 -1.7347
 3435TIP3    H231797   2.771   5.200  14.545 -1.3388 -0.1937  0.2899
 3436TIP3   OH231798   1.987   4.809   1.833 -0.3200  0.7239  0.2280
 3436TIP3    H131799   1.905   4.762   1.849 -0.2657  0.7020  0.4333
 3436TIP3    H231800   2.042   4.788   1.908 -0.6057  1.8233  0.7713
 3437TIP3   OH231801   4.756   4.940   4.379 -0.0539 -0.1956 -0.4448
 3437TIP3    H131802   4.797   4.924   4.294  0.2046 -0.6575 -0.2347
 3437TIP3    H231803   4.669   4.901   4.371 -0.0799 -0.1178 -0.5439
 3438TIP3   OH231804   5.796   2.149  15.898 -0.0568  0.1858 -0.2831
 3438TIP3    H131805   5.859   2.124  15.965  0.4659  1.4572 -0.2748
 3438TIP3    H231806   5.822   2.237  15.872 -2.3490  1.1088  0.3433
 3439TIP3   OH231807   3.529   6.038  14.789  0.3814  0.1580 -0.0690
 3439TIP3    H131808   3.620   6.011  14.792  0.1967 -0.4362  0.3593
 3439TIP3    H231809   3.530   6.122  14.743  1.1067  0.0201 -0.3115
 3440TIP3   OH231810   4.003   1.037   4.084  0.3930  0.3612  0.3587
 3440TIP3    H131811   4.073   1.058   4.146  1.7598 -2.3621 -0.1381
 3440TIP3    H231812   3.927   1.085   4.118  2.3039  3.1072  1.1589
 3441TIP3   OH231813   6.140   2.664   5.662  0.3390  0.6091 -0.5086
 3441TIP3    H131814   6.105   2.752   5.678  0.6728  0.8218 -0.9265
 3441TIP3    H231815   6.200   2.675   5.588 -0.7405 -0.2427 -1.5582
 3442TIP3   OH231816   0.155   2.286  13.686  0.2730 -0.0147  0.2839
 3442TIP3    H131817   0.134   2.197  13.714  0.3503  0.1788  0.9776
 3442TIP3    H231818   0.159   2.336  13.768  3.4799 -0.0514  0.2833
 3443TIP3   OH231819   3.253   2.881   5.376 -0.3808 -0.2359  0.1149
 3443TIP3    H131820   3.224   2.876   5.467 -0.8927 -0.0627 -0.0321
 3443TIP3    H231821   3.297   2.798   5.360  0.0099 -0.1270  0.6205
 3444TIP3   OH231822   2.974   4.461   1.328  0.3482 -0.0941 -1.1563
 3444TIP3    H131823   2.896   4.513   1.347 -0.1797 -0.9837 -0.8132
 3444TIP3    H231824   2.940   4.385   1.280  0.8093 -1.1309  0.0927
 3445TIP3   OH231825   6.259   0.368  16.620  0.1391 -0.1471  0.5438
 3445TIP3    H131826   6.166   0.361  16.598  0.5577 -0.5090 -1.3226
 3445TIP3    H231827   6.276   0.295  16.679 -0.2616 -1.6395 -1.0916
 3446TIP3   OH231828   5.770   0.443  15.939  0.2748  0.1138  0.1286
 3446TIP3    H131829   5.725   0.364  15.910 -2.3630  1.2218  0.9560
 3446TIP3    H231830   5.759   0.505  15.868 -1.2169  0.9975  1.0925
 3447TIP3   OH231831   5.692   3.402   2.543 -0.0927 -0.0427  0.4236
 3447TIP3    H131832   5.773   3.382   2.589 -0.3292 -0.6997  0.5685
 3447TIP3    H231833   5.701   3.493   2.516  1.2041 -0.4420 -0.5824
 3448TIP3   OH231834   2.356   1.410  14.170 -0.2089 -0.0930  0.0451
 3448TIP3    H131835   2.402   1.449  14.096  3.4920  0.2372  2.2538
 3448TIP3    H231836   2.383   1.318  14.170 -1.2257 -0.4072  0.2686
 3449TIP3   OH231837   6.309   3.281  12.790 -0.5327 -0.6470  0.2887
 3449TIP3    H131838   6.298   3.254  12.881 -3.0090  3.4740  1.4789
 3449TIP3    H231839   6.221   3.302  12.760  0.3721 -0.5431 -2.6764
 3450TIP3   OH231840   0.413   0.711   5.318 -0.3973 -0.3066 -0.7310
 3450TIP3    H131841   0.489   0.749   5.361 -1.4147  1.1864 -0.1916
 3450TIP3    H231842   0.348   0.700   5.388 -0.4035 -2.3838 -1.0127
 3451TIP3   OH231843   0.130   0.239   3.356  0.1277  0.2145  0.0746
 3451TIP3    H131844   0.158   0.153   3.388  0.7219  0.0524 -0.8544
 3451TIP3    H231845   0.155   0.299   3.426 -0.7027 -0.4111  0.9371
 3452TIP3   OH231846   5.457   6.113  14.667 -0.0850 -0.9960  0.2675
 3452TIP3    H131847   5.460   6.193  14.720 -2.1294  1.0808 -2.4228
 3452TIP3    H231848   5.531   6.061  14.697  0.1971  1.0191  3.4857
 3453TIP3   OH231849   0.729   6.661  11.620 -0.0143  0.1481 -0.6109
 3453TIP3    H131850   0.687   6.744  11.597 -2.9363 -0.6638  1.2381
 3453TIP3    H231851   0.779   6.681  11.700 -0.7152  0.1568 -0.1662
 3454TIP3   OH231852   4.916   5.352   2.964  0.3809 -0.1539  0.2004
 3454TIP3    H131853   5.003   5.313   2.954  0.1615 -0.4399 -0.7168
 3454TIP3    H231854   4.858   5.277   2.978 -0.3101 -0.4409 -3.3076
 3455TIP3   OH231855   1.434   5.298   5.636  0.2337 -0.1916  0.7925
 3455TIP3    H131856   1.426   5.372   5.695 -1.0755  0.6190 -0.3301
 3455TIP3    H231857   1.371   5.316   5.566  0.6047 -1.8718 -0.0362
 3456TIP3   OH231858   1.226   3.635   4.294 -0.3688  0.1073  0.8511
 3456TIP3    H131859   1.206   3.669   4.381 -1.5100 -1.0256  1.0608
 3456TIP3    H231860   1.148   3.585   4.269  0.0749  0.1341 -0.6836
 3457TIP3   OH231861   0.252   0.046   0.245  0.0718  0.0445  0.0998
 3457TIP3    H131862   0.236  -0.048   0.253 -0.7220 -0.0393 -1.7862
 3457TIP3    H231863   0.167   0.083   0.219  0.9037  0.8943 -1.6142
 3458TIP3   OH231864   5.226   3.158   5.750  0.2810  0.3856 -0.1161
 3458TIP3    H131865   5.163   3.141   5.680  0.3387  1.5771 -0.4756
 3458TIP3    H231866   5.187   3.117   5.828  0.2099 -0.9326 -0.8158
 3459TIP3   OH231867   1.148   0.422  13.256  0.2350  0.3697 -0.6302
 3459TIP3    H131868   1.098   0.341  13.265 -1.3435  1.3599 -0.0720
 3459TIP3    H231869   1.239   0.393  13.246  0.4360 -1.4324  3.9487
 3460TIP3   OH231870   1.651   3.942  15.698  0.0491 -0.1235 -0.0163
 3460TIP3    H131871   1.592   4.016  15.688  0.4727  0.2480  0.1761
 3460TIP3    H231872   1.623   3.899  15.779 -1.3432 -1.2503 -1.0469
 3461TIP3   OH231873   4.251   4.765  11.896 -0.1914 -0.0203  0.3737
 3461TIP3    H131874   4.335   4.726  11.920 -0.6878 -1.1573  0.3163
 3461TIP3    H231875   4.269   4.812  11.814  0.4145 -0.1383  0.4337
 3462TIP3   OH231876   6.338   6.751   1.289 -0.5772 -0.1649 -0.5236
 3462TIP3    H131877   6.301   6.664   1.271 -1.5872  0.2497 -0.4996
 3462TIP3    H231878   6.376   6.743   1.377 -0.7276 -0.5585 -0.4922
 3463TIP3   OH231879   4.963   3.570  16.362  0.2306  0.0970 -0.6399
 3463TIP3    H131880   5.007   3.487  16.342 -0.7687 -0.7535  0.4922
 3463TIP3    H231881   4.914   3.552  16.443 -0.1898  1.7356 -0.4890
 3464TIP3   OH231882   6.423   5.666   0.128 -0.6930 -0.3481 -0.0888
 3464TIP3    H131883   6.424   5.574   0.103 -0.8822 -0.7074  1.1544
 3464TIP3    H231884   6.331   5.691   0.126 -0.7640 -0.5201  0.6933
 3465TIP3   OH231885   0.327   6.818  15.280  0.1167  0.2867 -0.2790
 3465TIP3    H131886   0.361   6.810  15.369 -0.6075 -0.3529 -0.0540
 3465TIP3    H231887   0.350   6.907  15.253  1.3774  0.0982  0.1039
 3466TIP3   OH231888   0.342   6.680  10.586 -0.6300  0.1820 -0.4768
 3466TIP3    H131889   0.274   6.612  10.580 -2.2144  1.7615 -1.7929
 3466TIP3    H231890   0.423   6.632  10.597 -1.7692 -1.8950 -0.6158
 3467TIP3   OH231891   6.277   0.116  11.807 -0.1146  0.0495 -0.1093
 3467TIP3    H131892   6.306   0.044  11.863  0.2761 -0.8247 -1.3909
 3467TIP3    H231893   6.193   0.144  11.844 -0.8631 -1.8632 -0.2771
 3468TIP3   OH231894   4.112   3.179   5.415 -0.4495  0.4699  0.2813
 3468TIP3    H131895   4.099   3.105   5.356  1.1303  1.5142 -1.4511
 3468TIP3    H231896   4.097   3.256   5.361  3.0253  1.5162  0.5974
 3469TIP3   OH231897   5.714   3.769  16.879 -0.1093  0.7896 -0.3636
 3469TIP3    H131898   5.688   3.680  16.903 -0.2395  0.4278 -1.7523
 3469TIP3    H231899   5.631   3.813  16.859  0.0931  0.5123 -1.9308
 3470TIP3   OH231900   2.360   2.796  12.192  1.0914 -0.0384 -0.1894
 3470TIP3    H131901   2.346   2.722  12.252  1.5507  1.2881  1.6357
 3470TIP3    H231902   2.282   2.796  12.137  0.4832 -1.1139  0.6193
 3471TIP3   OH231903   4.948   4.619  11.072  0.4597 -0.1879 -0.2238
 3471TIP3    H131904   4.871   4.623  11.128  0.4218 -1.5396 -0.1354
 3471TIP3    H231905   5.016   4.664  11.121  0.2318 -0.7011  0.5874
 3472TIP3   OH231906   0.498   1.036  16.689 -0.0750  0.4195  0.5737
 3472TIP3    H131907   0.534   1.074  16.610 -1.1293  1.0884  0.3920
 3472TIP3    H231908   0.446   1.107  16.728  1.1967  0.4262  2.3892
 3473TIP3   OH231909   2.250   4.015  16.576  0.1253 -0.0532 -0.2148
 3473TIP3    H131910   2.338   3.994  16.605  1.0335  2.2990 -0.9872
 3473TIP3    H231911   2.194   3.995  16.651  1.4809 -0.4427  0.7264
 3474TIP3   OH231912   2.602   5.804   4.564 -0.1788 -0.3154  0.1420
 3474TIP3    H131913   2.620   5.752   4.485  0.1122 -1.0781  0.6933
 3474TIP3    H231914   2.657   5.882   4.554  0.1697 -0.6015 -0.2195
 3475TIP3   OH231915   2.262   1.678  17.016 -0.6795  0.3034  0.3221
 3475TIP3    H131916   2.169   1.663  16.999 -0.8635  1.2569  0.4387
 3475TIP3    H231917   2.275   1.771  16.996  0.6669 -0.2241 -1.5627
 3476TIP3   OH231918   1.907   1.338   2.959 -1.0059 -0.5374  0.6520
 3476TIP3    H131919   1.910   1.296   2.874 -0.0168  0.2672  0.2640
 3476TIP3    H231920   1.866   1.423   2.943  1.1044  0.5276  0.5144
 3477TIP3   OH231921   1.949   3.429  16.017  0.8533  0.1729 -0.3799
 3477TIP3    H131922   1.988   3.342  16.015  1.1159  0.2845 -0.1698
 3477TIP3    H231923   1.942   3.450  16.110  0.2459  0.1353 -0.4111
 3478TIP3   OH231924   3.357   5.008   0.932  0.2922 -0.1739  0.0057
 3478TIP3    H131925   3.421   4.957   0.983  0.5179 -0.4055 -0.5020
 3478TIP3    H231926   3.284   4.948   0.918  1.2954 -1.0210 -2.1244
 3479TIP3   OH231927   5.250   2.588  10.521  0.4128 -0.2876 -0.3493
 3479TIP3    H131928   5.289   2.624  10.442  0.4947 -0.4188 -0.3704
 3479TIP3    H231929   5.156   2.602  10.510  0.4832  0.3754 -0.1208
 3480TIP3   OH231930   3.641   0.057   3.530 -0.5531 -0.3158  0.3059
 3480TIP3    H131931   3.709  -0.010   3.531 -0.4962 -0.2950 -0.7886
 3480TIP3    H231932   3.669   0.121   3.596 -0.2434 -1.0004  0.8501
 3481TIP3   OH231933   3.969   3.757   2.829  0.3486  0.1719  0.1969
 3481TIP3    H131934   4.059   3.763   2.859  0.7349  0.0509 -0.8780
 3481TIP3    H231935   3.976   3.749   2.734 -0.7032 -1.8995  0.2440
 3482TIP3   OH231936   6.581   6.192  16.865  0.0484  0.1379 -0.2187
 3482TIP3    H131937   6.606   6.139  16.941  0.7205 -0.7232 -1.0140
 3482TIP3    H231938   6.485   6.193  16.868  0.0591  1.1199  1.2841
 3483TIP3   OH231939   2.144   2.435  15.875 -0.4478 -0.3623 -0.5123
 3483TIP3    H131940   2.191   2.356  15.846 -0.3423 -1.1344  1.6077
 3483TIP3    H231941   2.144   2.492  15.798  1.2262 -1.6123 -1.5186
 3484TIP3   OH231942   3.967   5.586  15.929  0.1939 -0.1254 -0.2408
 3484TIP3    H131943   4.025   5.527  15.880 -0.9157 -0.6622 -0.9276
 3484TIP3    H231944   3.947   5.538  16.009  1.7474  0.6199  0.6472
 3485TIP3   OH231945   3.308   3.432  13.428  0.0775  0.4192 -0.1018
 3485TIP3    H131946   3.379   3.403  13.371  1.1707  2.8158 -0.0522
 3485TIP3    H231947   3.349   3.443  13.514 -0.9406 -0.5200  0.5420
 3486TIP3   OH231948   3.269   1.779  13.464  0.1830 -0.2525  0.3054
 3486TIP3    H131949   3.247   1.730  13.385  0.4674 -1.2016  0.8029
 3486TIP3    H231950   3.196   1.765  13.523  0.3020 -0.1393  0.4834
 3487TIP3   OH231951   5.528   2.881  14.598 -0.4466 -0.1562 -0.3220
 3487TIP3    H131952   5.557   2.850  14.512 -2.1792 -2.6125 -0.1417
 3487TIP3    H231953   5.598   2.853  14.658 -0.2137 -0.3092 -0.6603
 3488TIP3   OH231954   0.575   0.907   3.626 -0.0349 -0.1653 -0.1032
 3488TIP3    H131955   0.571   0.920   3.531  0.7360  2.4191  0.1636
 3488TIP3    H231956   0.485   0.922   3.655  0.1639  1.3269 -0.2045
 3489TIP3   OH231957   5.484   0.208   1.269  0.3660 -0.3338  0.0574
 3489TIP3    H131958   5.474   0.186   1.176 -0.8297 -1.6336  0.4552
 3489TIP3    H231959   5.574   0.182   1.289  0.6104 -0.1212 -0.7090
 3490TIP3   OH231960   1.220   5.278  15.263  0.2978  0.2611 -0.2657
 3490TIP3    H131961   1.299   5.259  15.213  1.4366  0.4490  1.3868
 3490TIP3    H231962   1.177   5.194  15.272 -0.1634  0.2819 -1.8643
 3491TIP3   OH231963   5.759   0.440  12.549  0.9255  0.2759  0.0424
 3491TIP3    H131964   5.685   0.413  12.494  0.3714 -0.6551  1.2120
 3491TIP3    H231965   5.737   0.529  12.576  1.3930  0.8992 -1.5194
 3492TIP3   OH231966   0.387   6.162   2.209  0.3138 -0.0607 -0.3551
 3492TIP3    H131967   0.476   6.198   2.219  0.0948  0.5895 -0.6882
 3492TIP3    H231968   0.376   6.153   2.114 -0.3909  0.9504 -0.3866
 3493TIP3   OH231969   0.145   0.168   3.093  0.0432  0.4028  0.7059
 3493TIP3    H131970   0.072   0.217   3.055  1.8339  2.3159 -0.5026
 3493TIP3    H231971   0.142   0.189   3.187  2.0270  4.9427  0.0012
 3494TIP3   OH231972   1.727   3.561  13.929  0.2163 -0.2945 -0.1885
 3494TIP3    H131973   1.746   3.478  13.973  1.2760  0.3697  0.6482
 3494TIP3    H231974   1.785   3.624  13.971 -0.1434  0.7561 -1.2272
 3495TIP3   OH231975   1.992   5.375   4.851 -0.1995 -0.0006  0.2242
 3495TIP3    H131976   2.081   5.343   4.837 -0.5558 -0.5943 -0.8057
 3495TIP3    H231977   1.999   5.470   4.845  0.8809  0.2037  3.3155
 3496TIP3   OH231978   3.754   2.072   0.901  0.0364 -0.5813 -0.5679
 3496TIP3    H131979   3.721   2.033   0.820 -1.8665 -0.8205  0.2744
 3496TIP3    H231980   3.827   2.016   0.927  2.0918  0.6711 -3.1531
 3497TIP3   OH231981   1.748   1.364   5.606 -0.2802  0.1190  0.2431
 3497TIP3    H131982   1.751   1.414   5.688  2.9431 -0.9976  0.9450
 3497TIP3    H231983   1.729   1.430   5.540  0.8702  1.8041  1.4817
 3498TIP3   OH231984   1.485   1.891  15.072 -0.1776 -0.1493  0.1980
 3498TIP3    H131985   1.478   1.962  15.008  0.8435 -0.3116 -0.1159
 3498TIP3    H231986   1.463   1.812  15.022  0.1868 -0.2266  0.1607
 3499TIP3   OH231987   5.007   1.869   4.759  0.3347  0.2984  0.0118
 3499TIP3    H131988   4.983   1.948   4.808 -0.3698  0.3136 -0.3461
 3499TIP3    H231989   4.926   1.819   4.753  0.3778  0.3319 -1.1909
 3500TIP3   OH231990   5.348   1.347  13.288 -0.0287 -0.2166 -0.5316
 3500TIP3    H131991   5.305   1.391  13.362 -0.0226  1.6232 -1.5895
 3500TIP3    H231992   5.437   1.330  13.319  0.7204  2.6683 -0.8509
 3501TIP3   OH231993   5.655   6.769   5.750  0.2767 -0.5542  0.4373
 3501TIP3    H131994   5.562   6.750   5.738  0.4175 -2.1067  1.5310
 3501TIP3    H231995   5.658   6.833   5.821 -0.0325  1.1472 -1.0239
 3502TIP3   OH231996   1.718   5.041  15.291 -0.1136 -0.3181 -0.1804
 3502TIP3    H131997   1.666   4.962  15.281 -1.0849  0.3594 -0.7360
 3502TIP3    H231998   1.806   5.017  15.261 -0.4697 -1.0975 -0.6217
 3503TIP3   OH231999   5.800   6.143  11.931 -0.1012  0.8125 -0.4834
 3503TIP3    H132000   5.798   6.210  11.863  0.0717 -0.5101 -1.8408
 3503TIP3    H232001   5.891   6.112  11.931 -0.3080  0.1958 -0.2770
 3504TIP3   OH232002   6.682   0.867   0.676 -0.2591  0.0553  0.6344
 3504TIP3    H132003   6.777   0.871   0.664 -0.2320  1.9017  1.0469
 3504TIP3    H232004   6.668   0.796   0.738  0.6887 -1.3109 -0.6569
 3505TIP3   OH232005   6.140   3.518   3.727  0.5162 -0.2661  0.3749
 3505TIP3    H132006   6.077   3.481   3.665  0.8756 -1.2752  0.5902
 3505TIP3    H232007   6.090   3.583   3.776  0.2214  0.5273 -0.9415
 3506TIP3   OH232008   3.673   1.648   1.721 -0.3034 -0.3967  0.0135
 3506TIP3    H132009   3.711   1.592   1.789  0.1200  1.3088  1.2400
 3506TIP3    H232010   3.702   1.608   1.639 -0.7223 -2.4358  0.7807
 3507TIP3   OH232011   1.784   1.409   0.191  0.2182  0.2492  0.3462
 3507TIP3    H132012   1.869   1.376   0.219  0.0170 -2.7053 -2.0449
 3507TIP3    H232013   1.804   1.473   0.123  0.5469 -0.4142 -0.1878
 3508TIP3   OH232014   4.311   4.582  16.104 -0.4511  0.2404  0.3567
 3508TIP3    H132015   4.288   4.593  16.012 -1.7016 -3.4579  0.0395
 3508TIP3    H232016   4.347   4.493  16.108 -1.4179 -0.1182  3.5529
 3509TIP3   OH232017   6.799   5.399   1.042  0.2531  0.7743  0.1134
 3509TIP3    H132018   6.782   5.492   1.031 -1.0564  0.3752 -1.7854
 3509TIP3    H232019   6.856   5.376   0.968  0.0003 -0.0570  0.1644
 3510TIP3   OH232020   1.451   2.503  14.929 -0.3671 -0.0292  0.0352
 3510TIP3    H132021   1.512   2.532  14.861 -0.1621  0.5280  0.4493
 3510TIP3    H232022   1.377   2.562  14.922 -0.2722  0.1396  0.3980
 3511TIP3   OH232023   3.876   6.063   0.719  0.0092  0.3211 -0.5746
 3511TIP3    H132024   3.920   6.082   0.636  2.3897  0.1637  0.5553
 3511TIP3    H232025   3.848   6.148   0.752 -0.1236  0.4794 -1.0934
 3512TIP3   OH232026   1.423   1.436  13.321 -0.8754  0.1573 -0.4006
 3512TIP3    H132027   1.485   1.363  13.331  0.3249  1.3821  1.7621
 3512TIP3    H232028   1.478   1.514  13.318 -2.2336  1.1488 -0.5424
 3513TIP3   OH232029   0.758   6.031   1.752  0.4075 -0.3920  0.2171
 3513TIP3    H132030   0.791   6.035   1.842  2.9028  0.7205 -0.6659
 3513TIP3    H232031   0.836   6.015   1.699 -0.6949  0.9255 -1.9104
 3514TIP3   OH232032   0.124   1.875  14.053 -0.1751  0.2577 -0.6647
 3514TIP3    H132033   0.132   1.970  14.052  1.4093  0.1394 -1.0162
 3514TIP3    H232034   0.189   1.845  14.116 -2.5594 -0.4895  1.6063
 3515TIP3   OH232035   6.778   4.267  13.706  0.0013 -0.7583 -0.0587
 3515TIP3    H132036   6.688   4.235  13.711 -0.8009  0.7516 -2.6819
 3515TIP3    H232037   6.832   4.189  13.717 -1.7169 -2.1730 -1.0827
 3516TIP3   OH232038   0.970   4.601   2.332 -0.4402  0.4837 -0.9046
 3516TIP3    H132039   0.955   4.695   2.337 -0.3398  0.6448 -2.8523
 3516TIP3    H232040   1.064   4.592   2.317 -0.5519  0.1199 -1.4246
 3517TIP3   OH232041   2.644   0.668   5.712 -0.0972  0.3783  0.7839
 3517TIP3    H132042   2.564   0.649   5.664 -1.0112  0.8376  2.0485
 3517TIP3    H232043   2.670   0.584   5.749  0.6458  0.0110 -0.5195
 3518TIP3   OH232044   6.107   2.700  16.567 -0.8273  0.6056  0.0879
 3518TIP3    H132045   6.154   2.628  16.608 -0.4458  0.7164 -0.1461
 3518TIP3    H232046   6.111   2.771  16.630 -1.1965  0.4293  0.3145
 3519TIP3   OH232047   2.410   6.582   0.614 -0.4929  0.2689 -0.0986
 3519TIP3    H132048   2.394   6.614   0.702  0.6488  0.0154  0.2153
 3519TIP3    H232049   2.333   6.610   0.564 -1.5480 -0.2854  1.1434
 3520TIP3   OH232050   5.044   1.945   4.068 -0.5522  0.4013  0.1598
 3520TIP3    H132051   5.067   1.930   4.160  0.4892 -0.9029 -0.2792
 3520TIP3    H232052   4.997   2.028   4.069  1.8013  1.8440  1.5445
 3521TIP3   OH232053   5.211   0.434  11.026  0.4979  0.1555  0.0563
 3521TIP3    H132054   5.207   0.485  10.945  0.3498  1.2970  0.7504
 3521TIP3    H232055   5.305   0.431  11.047  0.6345 -0.9908 -0.6581
 3522TIP3   OH232056   0.885   4.970  12.998 -0.2267  0.3419 -0.3690
 3522TIP3    H132057   0.930   4.886  12.987  0.5702  0.9555 -2.1309
 3522TIP3    H232058   0.888   4.987  13.092  0.8428 -0.9239 -0.1491
 3523TIP3   OH232059   6.442   2.263   3.278  0.1609 -0.1096 -0.2604
 3523TIP3    H132060   6.530   2.224   3.279  0.6672  0.9473  2.0960
 3523TIP3    H232061   6.388   2.202   3.327 -0.3075 -0.4442 -1.1676
 3524TIP3   OH232062   6.538   2.532  14.617  0.2965  0.1156 -0.3821
 3524TIP3    H132063   6.541   2.520  14.522 -2.4710 -1.4565 -0.3641
 3524TIP3    H232064   6.507   2.448  14.651 -1.1997  1.4137  1.6982
 3525TIP3   OH232065   0.974   6.700   5.041  0.5197  0.3631 -0.2077
 3525TIP3    H132066   1.053   6.753   5.050  0.7903 -0.3357  2.2719
 3525TIP3    H232067   0.994   6.619   5.089 -0.4682 -1.3414 -2.4864
 3526TIP3   OH232068   4.202   3.686  11.487  0.4289  0.5171  0.1906
 3526TIP3    H132069   4.113   3.722  11.485 -0.2053 -0.9766 -0.7055
 3526TIP3    H232070   4.223   3.670  11.395  1.2929  0.0606  0.4582
 3527TIP3   OH232071   0.447   2.713  15.523  0.1062 -0.3150  0.3329
 3527TIP3    H132072   0.435   2.753  15.436 -2.0311 -0.9273  0.2927
 3527TIP3    H232073   0.459   2.620  15.505 -1.5324 -0.6211  0.7208
 3528TIP3   OH232074   1.588   5.636  16.042  0.8387  0.4930  0.3938
 3528TIP3    H132075   1.580   5.588  15.960  0.0222  0.2715  0.5925
 3528TIP3    H232076   1.645   5.582  16.097 -0.0840 -0.2807  0.6247
 3529TIP3   OH232077   2.067   0.864   1.561  0.2706 -0.8032 -0.3335
 3529TIP3    H132078   2.144   0.837   1.611  0.8503 -0.9836 -1.2879
 3529TIP3    H232079   2.089   0.843   1.470 -1.0599 -1.2163 -0.5909
 3530TIP3   OH232080   3.245   5.949  16.949 -0.0858  0.6136  0.1013
 3530TIP3    H132081   3.326   5.974  16.905  0.0404  1.8396  0.9587
 3530TIP3    H232082   3.256   5.856  16.969  0.4339  0.3750 -1.1580
 3531TIP3   OH232083   4.063   0.531   4.888 -0.2674  0.5626 -0.1940
 3531TIP3    H132084   4.142   0.496   4.929 -0.1796 -2.3194 -2.5270
 3531TIP3    H232085   4.096   0.591   4.821  0.0994 -1.4282 -1.8757
 3532TIP3   OH232086   0.939   2.229   5.617 -0.1886  0.2520 -0.0024
 3532TIP3    H132087   1.003   2.158   5.621 -0.9792 -0.4246  1.7691
 3532TIP3    H232088   0.991   2.309   5.610  0.7545 -0.3926 -0.6148
 3533TIP3   OH232089   3.082   4.275   4.946  0.2516  0.1587  0.1529
 3533TIP3    H132090   3.022   4.260   5.019  0.3885 -1.9597 -0.1185
 3533TIP3    H232091   3.161   4.227   4.970  0.3117 -0.5427 -1.3471
 3534TIP3   OH232092   1.855   3.826  14.502  0.1649  0.3945 -0.2678
 3534TIP3    H132093   1.942   3.842  14.540  0.4120  0.9399 -1.0166
 3534TIP3    H232094   1.856   3.877  14.420 -1.0085  0.7320 -0.0838
 3535TIP3   OH232095   6.468   2.663  16.671 -0.5647  0.6944 -0.7507
 3535TIP3    H132096   6.390   2.611  16.689 -0.3218  0.8299  0.8262
 3535TIP3    H232097   6.504   2.626  16.591 -0.5292 -1.4265  0.1858
 3536TIP3   OH232098   6.683   4.430   2.285 -0.2473  1.0454 -0.2143
 3536TIP3    H132099   6.635   4.473   2.356  1.1793  1.7339  0.3669
 3536TIP3    H232100   6.775   4.449   2.303  0.1993  0.5557 -1.8185
 3537TIP3   OH232101   6.801   5.321  16.456 -0.4270 -0.9502 -0.1591
 3537TIP3    H132102   6.730   5.303  16.395 -0.7698  1.0469 -0.4367
 3537TIP3    H232103   6.764   5.385  16.518  0.9476 -0.2581 -0.0033
 3538TIP3   OH232104   1.951   0.601   1.839  0.1798  0.0719  0.5692
 3538TIP3    H132105   2.016   0.640   1.898 -0.5650 -0.2907  1.6680
 3538TIP3    H232106   1.890   0.556   1.898 -0.1701 -0.9413 -0.5359
 3539TIP3   OH232107   2.560   5.052   2.742 -0.2846 -0.2512 -0.1165
 3539TIP3    H132108   2.469   5.081   2.735 -0.1317  0.4288  0.6927
 3539TIP3    H232109   2.612   5.130   2.723  0.1596 -0.8800 -1.6637
 3540TIP3   OH232110   3.254   2.079   5.028  0.2222 -0.3781  0.7132
 3540TIP3    H132111   3.256   2.120   4.941 -1.2672 -1.2860  0.2352
 3540TIP3    H232112   3.210   2.144   5.083 -2.3082 -1.2940 -0.0848
 3541TIP3   OH232113   5.389   1.034   2.348  0.2663  0.0763  0.3160
 3541TIP3    H132114   5.307   1.082   2.336 -0.0369 -0.4621  0.2363
 3541TIP3    H232115   5.380   0.957   2.292  1.0108  0.2445 -0.0442
 3542TIP3   OH232116   0.453   0.942   5.974 -0.8194 -0.0166  0.4356
 3542TIP3    H132117   0.502   0.860   5.974 -2.5192 -1.0687  0.7790
 3542TIP3    H232118   0.424   0.953   6.065 -1.8321  0.1989  0.0959
 3543TIP3   OH232119   1.992   2.561   4.796 -0.0912  0.0539 -0.0048
 3543TIP3    H132120   2.013   2.515   4.715  1.9861  0.1770  0.4099
 3543TIP3    H232121   1.908   2.603   4.779 -1.7465 -3.1856 -0.6699
 3544TIP3   OH232122   0.469   0.721   2.819 -0.0904  0.5270  0.0396
 3544TIP3    H132123   0.475   0.631   2.786  0.0472  0.6636 -0.3168
 3544TIP3    H232124   0.556   0.758   2.803  0.1491  0.4253  1.0749
 3545TIP3   OH232125   0.148   5.741   3.356 -0.7501  0.4216  0.5069
 3545TIP3    H132126   0.235   5.741   3.317 -0.2301  0.4827  1.6288
 3545TIP3    H232127   0.115   5.830   3.343 -0.7134  0.3593 -0.0406
 3546TIP3   OH232128   2.515   3.266   4.295 -0.3776  0.3967  0.5274
 3546TIP3    H132129   2.442   3.224   4.249  0.5533 -0.7868  0.0676
 3546TIP3    H232130   2.586   3.266   4.231  0.5515 -0.0775  1.5242
 3547TIP3   OH232131   3.610   2.741  14.843  0.0397  0.1948  0.1547
 3547TIP3    H132132   3.664   2.676  14.888 -0.1836 -0.4700 -0.5133
 3547TIP3    H232133   3.624   2.723  14.750 -0.9120  0.3598 -0.0339
 3548TIP3   OH232134   5.249   1.499   3.767 -0.5609  0.1908  0.2828
 3548TIP3    H132135   5.217   1.546   3.844  1.0859  0.5696  0.7686
 3548TIP3    H232136   5.318   1.441   3.800 -0.3294 -0.1765 -0.7941
 3549TIP3   OH232137   1.385   0.383  14.148  0.1318 -0.1401 -0.6887
 3549TIP3    H132138   1.459   0.443  14.152  0.3247 -0.4171  0.0321
 3549TIP3    H232139   1.419   0.304  14.106  0.5787 -0.7203  0.7154
 3550TIP3   OH232140   4.650   2.924   5.695 -0.2939 -0.0236  0.3162
 3550TIP3    H132141   4.675   2.947   5.784 -1.6793  0.2860  0.6344
 3550TIP3    H232142   4.633   3.007   5.652  1.0963 -0.1184 -0.4941
 3551TIP3   OH232143   5.599   4.064  11.366  0.3802 -0.3636  0.3616
 3551TIP3    H132144   5.625   4.110  11.286  0.1364 -1.4219 -0.3443
 3551TIP3    H232145   5.664   4.091  11.431  0.9563  0.0198 -0.3551
 3552TIP3   OH232146   0.318   5.471   3.049 -0.4662  0.2023  0.2126
 3552TIP3    H132147   0.392   5.479   3.110 -0.9615 -0.3923  0.9135
 3552TIP3    H232148   0.302   5.561   3.020  0.9346  0.2573 -0.4531
 3553TIP3   OH232149   5.323   4.594   4.591  0.2042 -0.4951 -0.4254
 3553TIP3    H132150   5.350   4.673   4.639  0.5407 -0.2699 -0.9732
 3553TIP3    H232151   5.232   4.611   4.568  0.6779  0.3715 -1.7711
 3554TIP3   OH232152   4.537   0.085   0.764 -0.3979  0.4742 -0.0606
 3554TIP3    H132153   4.503  -0.000   0.736  0.1710  0.0479  0.5097
 3554TIP3    H232154   4.466   0.123   0.816 -0.6835  0.3788 -0.3829
 3555TIP3   OH232155   2.118   6.604  14.039  0.4805 -0.3822  0.0087
 3555TIP3    H132156   2.138   6.564  14.124  0.2151 -0.4928  0.0197
 3555TIP3    H232157   2.200   6.645  14.012  0.8525 -1.2177 -0.1556
 3556TIP3   OH232158   5.947   4.316  14.140 -0.0719 -0.1999  0.2389
 3556TIP3    H132159   5.964   4.225  14.117  2.9898  0.4257 -0.4547
 3556TIP3    H232160   5.922   4.313  14.233  5.3694 -1.5456  2.0547
 3557TIP3   OH232161   0.859   2.326  13.478  0.1562  0.2173  0.3407
 3557TIP3    H132162   0.771   2.359  13.458 -0.4563 -0.6420  1.4633
 3557TIP3    H232163   0.858   2.316  13.574  0.6768 -1.9608  0.1526
 3558TIP3   OH232164   5.648   4.294   3.811 -0.1781 -0.3136  0.0777
 3558TIP3    H132165   5.589   4.235   3.858 -0.1752  0.4232  1.0323
 3558TIP3    H232166   5.735   4.272   3.844  0.1155 -1.3427 -1.2690
 3559TIP3   OH232167   4.309   1.601   4.610  0.4698  0.3625 -0.7815
 3559TIP3    H132168   4.393   1.616   4.568  0.7378  1.2551  0.0597
 3559TIP3    H232169   4.318   1.515   4.653 -0.1458 -1.0683 -3.3065
 3560TIP3   OH232170   4.304   5.398   2.703 -0.7012 -0.5308 -0.2843
 3560TIP3    H132171   4.260   5.421   2.784 -1.7154 -1.2126 -0.6191
 3560TIP3    H232172   4.397   5.391   2.727 -1.0959 -1.7071  1.0564
 3561TIP3   OH232173   1.672   1.343   2.142 -0.1947 -0.1172  0.1998
 3561TIP3    H132174   1.600   1.281   2.133 -1.4048  1.4239 -1.3902
 3561TIP3    H232175   1.740   1.308   2.084 -0.7262 -0.1535 -0.4169
 3562TIP3   OH232176   1.993   0.946   1.101  0.4596 -0.0545 -0.3391
 3562TIP3    H132177   2.037   0.913   1.179  0.7811  0.0403 -0.4777
 3562TIP3    H232178   2.010   0.879   1.034  0.7254  0.1679 -0.4972
 3563TIP3   OH232179   2.867   5.905  12.656 -0.1649 -0.0750 -0.4533
 3563TIP3    H132180   2.952   5.929  12.619 -0.4292  0.7692 -0.5159
 3563TIP3    H232181   2.804   5.922  12.586 -0.4330 -0.3326 -0.2768
 3564TIP3   OH232182   0.511   2.581  16.642 -0.4909  0.2043 -0.5102
 3564TIP3    H132183   0.479   2.548  16.559  1.7577  1.6896 -2.1032
 3564TIP3    H232184   0.498   2.676  16.637  1.1009  0.4994  0.1059
 3565TIP3   OH232185   0.127   1.121   0.896  0.0005 -0.3283  0.5981
 3565TIP3    H132186   0.132   1.153   0.806 -3.1261  0.6813  0.6515
 3565TIP3    H232187   0.148   1.028   0.889 -1.2700 -0.5399 -1.4246
 3566TIP3   OH232188   5.549   6.081  13.450  0.4125  0.1056 -0.5065
 3566TIP3    H132189   5.533   6.078  13.545  0.2173  0.9846 -0.5025
 3566TIP3    H232190   5.627   6.027  13.437  2.2006  2.3010  0.5412
 3567TIP3   OH232191   2.053   3.003  16.498  0.4742  0.6086 -0.0209
 3567TIP3    H132192   2.040   3.097  16.503 -2.5284  0.4291 -1.9704
 3567TIP3    H232193   2.129   2.992  16.440  0.9371  1.8047  0.3381
 3568TIP3   OH232194   2.208   3.471  15.869  0.5064 -0.9901  0.6592
 3568TIP3    H132195   2.236   3.435  15.953 -1.4866 -3.0829  0.5412
 3568TIP3    H232196   2.112   3.469  15.873  0.3548 -0.4218 -1.3818
 3569TIP3   OH232197   1.213   2.212   6.004  0.2401  0.3597  0.0775
 3569TIP3    H132198   1.215   2.199   6.098 -0.1022  1.5459  0.2653
 3569TIP3    H232199   1.159   2.140   5.971  0.6678 -0.2746  0.7371
 3570TIP3   OH232200   4.945   4.503   5.681 -0.0123 -0.0857  0.0915
 3570TIP3    H132201   4.902   4.550   5.752 -2.6895 -1.1470 -0.6900
 3570TIP3    H232202   4.922   4.411   5.696 -0.2618 -0.3824 -1.8533
 3571TIP3   OH232203   2.009   3.168  12.313 -0.0574  0.3371  0.0619
 3571TIP3    H132204   2.054   3.113  12.248 -1.2719 -1.6032  0.7807
 3571TIP3    H232205   2.080   3.203  12.367  0.7930 -0.1180 -0.7235
 3572TIP3   OH232206   3.032   1.706   6.283  0.1409 -0.2916  0.6310
 3572TIP3    H132207   3.045   1.743   6.371  0.7782 -0.1940  0.5036
 3572TIP3    H232208   2.938   1.695   6.275 -0.0307  0.8288  0.8733
 3573TIP3   OH232209   4.985   3.202  13.956 -0.0290  0.3180 -0.3974
 3573TIP3    H132210   4.915   3.165  13.901  0.2237  0.7874 -1.0508
 3573TIP3    H232211   5.020   3.274  13.904 -0.3550  1.3372  0.7606
 3574TIP3   OH232212   5.321   5.290  14.127 -0.0169  0.1349 -0.0895
 3574TIP3    H132213   5.234   5.319  14.097 -1.8538 -1.1440  3.4177
 3574TIP3    H232214   5.347   5.355  14.192  0.3740 -0.8810  0.8012
 3575TIP3   OH232215   3.337   0.489  17.239  0.0311  0.0601 -0.3662
 3575TIP3    H132216   3.251   0.495  17.282  0.3876 -1.4173  0.6105
 3575TIP3    H232217   3.373   0.405  17.268  0.7276 -0.5690 -2.8171
 3576TIP3   OH232218   0.383   5.262   5.600  0.5381 -0.3737 -0.5707
 3576TIP3    H132219   0.402   5.169   5.616  0.1727 -0.1680  1.2827
 3576TIP3    H232220   0.469   5.303   5.596  0.6845 -0.5536  0.3771
 3577TIP3   OH232221   0.721   6.662   0.059  0.4351 -0.0692  0.2758
 3577TIP3    H132222   0.790   6.717   0.020  0.4714 -0.1890  0.1687
 3577TIP3    H232223   0.659   6.724   0.096  0.3204  0.0506 -0.1133
 3578TIP3   OH232224   5.229   6.652   2.494  0.0182 -0.0358  0.1291
 3578TIP3    H132225   5.250   6.745   2.509  1.1554 -0.2579  0.0195
 3578TIP3    H232226   5.226   6.614   2.582  1.0882 -0.1959  0.1085
 3579TIP3   OH232227   3.563   2.279  14.146 -0.4342 -0.4885 -0.5775
 3579TIP3    H132228   3.527   2.190  14.134 -0.3798 -0.2237 -3.3110
 3579TIP3    H232229   3.527   2.329  14.073 -0.4688  1.7979  0.9088
 3580TIP3   OH232230   5.081   0.484   4.923 -0.3066 -0.0881 -0.4971
 3580TIP3    H132231   5.142   0.553   4.897  0.4405 -0.6688 -0.3531
 3580TIP3    H232232   5.038   0.457   4.842 -0.4333  0.3866 -0.5897
 3581TIP3   OH232233   6.546   5.086  12.613  0.0009 -0.2158  0.0926
 3581TIP3    H132234   6.469   5.037  12.641  0.2158 -0.4457  0.2868
 3581TIP3    H232235   6.530   5.108  12.522 -0.1258 -0.5911  0.0250
 3582TIP3   OH232236   3.300   6.365  16.767  0.0353 -0.2974  0.1895
 3582TIP3    H132237   3.345   6.361  16.851  1.1900  2.0945 -0.2126
 3582TIP3    H232238   3.345   6.301  16.712 -0.1501 -1.2466  1.1210
 3583TIP3   OH232239   5.308   2.024   2.876 -0.2054 -0.1938  0.5703
 3583TIP3    H132240   5.298   2.046   2.969 -1.5553 -0.4597  0.5134
 3583TIP3    H232241   5.280   1.933   2.870 -0.1473 -0.1734 -0.0934
 3584TIP3   OH232242   3.067   1.861  15.544 -0.0276 -0.1452 -0.2013
 3584TIP3    H132243   3.088   1.851  15.637 -1.2530 -1.1179 -0.0009
 3584TIP3    H232244   3.150   1.886  15.503  0.9758 -1.5773  0.8521
 3585TIP3   OH232245   1.051   5.534  11.207  0.0342  0.2467  0.7130
 3585TIP3    H132246   1.049   5.625  11.237 -0.9848  0.0995  1.1243
 3585TIP3    H232247   1.133   5.527  11.157  0.5851  1.1356  1.4571
 3586TIP3   OH232248   1.828   2.458   2.267 -0.1323 -0.3933  0.3682
 3586TIP3    H132249   1.915   2.426   2.244  0.3057  1.3826 -0.6635
 3586TIP3    H232250   1.769   2.387   2.243  0.8677 -0.8637 -0.8437
 3587TIP3   OH232251   0.481   4.731   0.833 -0.3238 -0.4627 -0.0436
 3587TIP3    H132252   0.445   4.744   0.745  0.6202 -0.0361 -0.3736
 3587TIP3    H232253   0.527   4.812   0.853 -1.8911  0.1171  1.5365
 3588TIP3   OH232254   3.591   0.622  11.762 -0.5301 -0.2894 -0.3936
 3588TIP3    H132255   3.503   0.658  11.751 -1.3422 -1.4344  1.8159
 3588TIP3    H232256   3.644   0.696  11.792 -0.8356  0.2891 -1.2438
 3589TIP3   OH232257   2.170   2.006   2.054 -0.6165  0.2836 -0.4157
 3589TIP3    H132258   2.249   2.060   2.053 -0.4568  0.0638  0.0422
 3589TIP3    H232259   2.200   1.920   2.022 -0.2758 -0.3213  1.4382
 3590TIP3   OH232260   1.467   6.603  15.817  0.2645 -0.7762 -0.1928
 3590TIP3    H132261   1.550   6.650  15.812 -0.3271  0.4013  0.5941
 3590TIP3    H232262   1.489   6.519  15.857  1.0339 -0.3544  0.2909
 3591TIP3   OH232263   5.449   5.991   0.217 -0.1983 -0.5144  0.2520
 3591TIP3    H132264   5.486   6.022   0.134 -1.0197 -1.8445 -0.6557
 3591TIP3    H232265   5.411   6.068   0.257 -0.9727 -0.0644 -1.2681
 3592TIP3   OH232266   4.468   5.194  16.983 -0.0668  0.1672  0.6788
 3592TIP3    H132267   4.418   5.266  17.020 -0.9681 -1.3354  2.5543
 3592TIP3    H232268   4.444   5.192  16.890  0.1181  2.3430  0.5515
 3593TIP3   OH232269   4.327   0.934  11.975  0.0932 -0.3920 -0.4374
 3593TIP3    H132270   4.338   0.893  12.061  0.4126  0.6679  0.0440
 3593TIP3    H232271   4.397   1.000  11.971 -0.3540  0.0506 -1.2136
 3594TIP3   OH232272   4.879   3.190   5.634  0.2350  0.5790  0.1984
 3594TIP3    H132273   4.909   3.106   5.667  0.3078 -0.3228 -1.9895
 3594TIP3    H232274   4.944   3.253   5.665  1.4708 -0.5330 -0.0574
 3595TIP3   OH232275   5.732   5.844  16.373  0.2306  0.4001  0.5120
 3595TIP3    H132276   5.665   5.912  16.376 -0.1357  0.0336  0.8200
 3595TIP3    H232277   5.749   5.831  16.279 -1.5365 -0.8471  0.3098
 3596TIP3   OH232278   1.781   0.478  15.156 -0.4065 -0.0298  0.3269
 3596TIP3    H132279   1.779   0.565  15.197  1.0292  0.6181 -0.8915
 3596TIP3    H232280   1.724   0.487  15.080  0.7477  0.2705 -0.5308
 3597TIP3   OH232281   6.246   1.914  16.813 -0.3537 -0.5042  0.3687
 3597TIP3    H132282   6.173   1.974  16.797 -1.3261 -1.6508  0.3685
 3597TIP3    H232283   6.245   1.855  16.737  0.1976 -0.8854  0.6542
 3598TIP3   OH232284   1.513   0.742   0.021 -0.8308 -0.3257 -0.0769
 3598TIP3    H132285   1.599   0.755  -0.021 -0.6531 -0.0157  0.3752
 3598TIP3    H232286   1.453   0.793  -0.033 -1.0106 -1.7860 -1.3125
 3599TIP3   OH232287   5.452   6.259   0.288  1.1045  0.2864 -0.1505
 3599TIP3    H132288   5.539   6.294   0.275  2.1820 -1.4928  1.6450
 3599TIP3    H232289   5.442   6.254   0.383 -0.7790  0.0401 -0.3139
 3600TIP3   OH232290   6.443   2.781  10.909 -0.1821  0.0193 -0.3458
 3600TIP3    H132291   6.494   2.845  10.959  0.2331  0.9707 -1.9069
 3600TIP3    H232292   6.508   2.717  10.879 -0.5655 -1.0779  1.0349
 3601TIP3   OH232293   5.122   4.481   2.664  0.1967 -0.2154  0.0823
 3601TIP3    H132294   5.213   4.474   2.694  0.3661  0.8397 -0.1301
 3601TIP3    H232295   5.114   4.572   2.634 -1.0053 -0.2156  0.3513
 3602TIP3   OH232296   2.863   1.002  14.024 -0.0653 -0.0428 -0.0028
 3602TIP3    H132297   2.918   0.957  13.960 -1.1482  1.1514 -1.8330
 3602TIP3    H232298   2.897   1.092  14.026 -0.4221  0.0856  0.6648
 3603TIP3   OH232299   5.423   2.901  13.484 -0.2154 -0.6049 -0.2375
 3603TIP3    H132300   5.392   2.861  13.566 -1.0760  1.0361  0.2776
 3603TIP3    H232301   5.516   2.917  13.499 -0.7555  1.5736  1.2908
 3604TIP3   OH232302   1.755   3.696   1.931 -0.2441  0.0368 -0.5099
 3604TIP3    H132303   1.807   3.740   1.864  1.8034 -0.9584  0.3346
 3604TIP3    H232304   1.712   3.625   1.884 -0.6890  0.7445 -1.1922
 3605TIP3   OH232305   3.738   2.352   0.583  0.3260 -0.4374 -0.4610
 3605TIP3    H132306   3.703   2.312   0.662 -2.0520 -3.6823 -2.8575
 3605TIP3    H232307   3.668   2.409   0.551  0.4449 -0.7049 -1.2270
 3606TIP3   OH232308   5.364   6.561  13.119 -0.1431 -0.2778  0.1847
 3606TIP3    H132309   5.430   6.626  13.143  2.0615 -2.5706  0.7412
 3606TIP3    H232310   5.383   6.539  13.029  0.3232 -1.4482  0.5545
 3607TIP3   OH232311   2.994   3.586  10.560  0.2661  0.0081 -0.1259
 3607TIP3    H132312   2.943   3.650  10.610  1.6843  0.4947  0.7442
 3607TIP3    H232313   2.958   3.591  10.471 -0.0361  1.6065  0.0554
 3608TIP3   OH232314   3.664   3.902  15.280 -0.2326  0.0062  0.6227
 3608TIP3    H132315   3.732   3.919  15.346  1.5876 -1.4762 -0.7529
 3608TIP3    H232316   3.588   3.950  15.312  0.9238  0.3654  3.1434
 3609TIP3   OH232317   3.224   4.079   2.271 -1.0635 -0.0316 -0.1755
 3609TIP3    H132318   3.182   4.107   2.189 -2.2543 -0.4301  0.2780
 3609TIP3    H232319   3.173   4.003   2.300  0.8052 -1.3916 -0.2734
 3610TIP3   OH232320   0.779   2.210  15.199 -0.4800  0.7805 -0.7744
 3610TIP3    H132321   0.718   2.198  15.272  0.4305  3.1181  0.4749
 3610TIP3    H232322   0.763   2.299  15.168  2.1526  1.4681 -0.4353
 3611TIP3   OH232323   1.791   3.386   2.750 -0.2196 -0.2627  0.2314
 3611TIP3    H132324   1.829   3.298   2.760 -0.2117 -0.3690 -0.6655
 3611TIP3    H232325   1.829   3.437   2.822  0.3887 -0.7840  0.2908
 3612TIP3   OH232326   4.253   2.356   2.238  0.0053 -0.3004 -0.4589
 3612TIP3    H132327   4.261   2.349   2.143  0.1889 -1.3519 -0.3789
 3612TIP3    H232328   4.188   2.425   2.252 -0.2631 -0.3612 -1.3484
 3613TIP3   OH232329   3.887   4.867   6.196 -0.2130 -0.5926 -0.5496
 3613TIP3    H132330   3.811   4.890   6.250  0.3314 -1.4882  0.6412
 3613TIP3    H232331   3.962   4.900   6.245  0.3042 -1.6184 -0.6239
 3614TIP3   OH232332   1.317   0.409   4.471  0.1542  0.2171 -0.3970
 3614TIP3    H132333   1.318   0.369   4.384 -0.6968 -0.0685 -0.2880
 3614TIP3    H232334   1.352   0.341   4.528 -0.2226  0.0443 -0.3731
 3615TIP3   OH232335   0.376   5.139  16.308 -0.1584 -0.1069 -0.1878
 3615TIP3    H132336   0.289   5.140  16.268 -0.8447 -0.1916  1.2256
 3615TIP3    H232337   0.423   5.071  16.261 -1.7038 -1.8537  0.6712
 3616TIP3   OH232338   0.620   4.203   2.577 -0.0848  0.1103 -0.3177
 3616TIP3    H132339   0.548   4.198   2.514 -1.7884  1.9568  1.3504
 3616TIP3    H232340   0.656   4.291   2.566  1.7845 -0.6751 -0.9028
 3617TIP3   OH232341   5.485   4.482  16.897  0.4453  0.2940 -0.6941
 3617TIP3    H132342   5.566   4.438  16.874 -0.1270 -1.1236 -0.0951
 3617TIP3    H232343   5.506   4.530  16.977  1.2625  1.7505 -1.7316
 3618TIP3   OH232344   6.473   1.304  12.522 -0.1856 -0.1189  0.0362
 3618TIP3    H132345   6.512   1.386  12.493  1.1494 -0.4931  0.6367
 3618TIP3    H232346   6.452   1.257  12.442  1.2600 -0.1652 -0.3453
 3619TIP3   OH232347   2.269   2.228  11.954 -0.1330  0.5472  0.3621
 3619TIP3    H132348   2.177   2.213  11.932  0.0263 -1.0600  0.6642
 3619TIP3    H232349   2.266   2.286  12.029 -0.8951  0.7542  0.1814
 3620TIP3   OH232350   5.612   0.839   1.520  0.4332 -0.7094 -0.3422
 3620TIP3    H132351   5.528   0.816   1.560  0.4035  1.5720  1.1665
 3620TIP3    H232352   5.676   0.822   1.589  0.8537 -0.0963 -0.5688
 3621TIP3   OH232353   4.463   1.984   0.982 -0.1399  0.4599  0.1297
 3621TIP3    H132354   4.488   1.905   0.933 -0.9091  0.6740 -0.6391
 3621TIP3    H232355   4.447   2.050   0.914  0.0007  1.1305  0.7419
 3622TIP3   OH232356   4.051   3.145   1.169 -0.1512 -0.1185  0.3374
 3622TIP3    H132357   4.017   3.081   1.106  0.8092 -0.1674 -0.1446
 3622TIP3    H232358   4.104   3.093   1.229  0.1100  0.1241  0.3212
 3623TIP3   OH232359   1.086   0.011   2.917  0.5244 -0.6261 -0.0478
 3623TIP3    H132360   1.139   0.051   2.847  1.0516  0.1579  0.7691
 3623TIP3    H232361   1.034   0.084   2.951  0.2884 -0.9973  0.3902
 3624TIP3   OH232362   4.689   4.130   5.920 -0.1478 -0.5207 -0.2382
 3624TIP3    H132363   4.660   4.073   5.991 -0.0961  0.2811  0.4494
 3624TIP3    H232364   4.611   4.142   5.866 -0.0884 -1.4489 -0.5448
 3625TIP3   OH232365   2.805   3.239   2.001  0.0692  0.1268  0.0692
 3625TIP3    H132366   2.805   3.334   2.011 -0.2301 -0.0968  2.6081
 3625TIP3    H232367   2.788   3.204   2.088  1.3519 -2.3050 -0.5453
 3626TIP3   OH232368   6.293   2.075   4.911 -0.0720  0.4016  0.2116
 3626TIP3    H132369   6.223   2.098   4.851 -1.5347 -1.1354  1.2391
 3626TIP3    H232370   6.367   2.053   4.855 -1.4013 -1.0465 -1.0596
 3627TIP3   OH232371   4.068   4.831  14.228  0.3783 -0.1715  0.2326
 3627TIP3    H132372   4.162   4.816  14.239  1.4839  2.9788 -2.9204
 3627TIP3    H232373   4.059   4.862  14.138 -3.5652  0.7439  0.7598
 3628TIP3   OH232374   3.708   0.328   1.493 -0.0744  0.1570  0.4310
 3628TIP3    H132375   3.689   0.351   1.402 -0.7209 -0.2885  0.4443
 3628TIP3    H232376   3.644   0.259   1.514 -1.6671  2.0238  2.0447
 3629TIP3   OH232377   2.492   0.065  11.353  0.1275 -0.1508 -0.1507
 3629TIP3    H132378   2.496   0.159  11.336  0.3029 -0.0088  0.6262
 3629TIP3    H232379   2.494   0.025  11.266 -0.8868  0.5843 -0.5275
 3630TIP3   OH232380   0.242   5.329   4.880 -0.2644 -0.3386  0.0123
 3630TIP3    H132381   0.241   5.415   4.838 -1.0052 -0.2167  0.2573
 3630TIP3    H232382   0.260   5.267   4.809  1.2331  0.0872 -0.0005
 3631TIP3   OH232383   4.099   3.504   5.408 -0.1826 -0.1469 -0.6129
 3631TIP3    H132384   4.176   3.561   5.405  0.5391 -1.0094  0.4753
 3631TIP3    H232385   4.104   3.453   5.328 -0.5173  0.8823 -1.3157
 3632TIP3   OH232386   4.906   2.702   3.208  0.3529 -0.7096  0.4825
 3632TIP3    H132387   4.973   2.668   3.149 -0.1685 -0.0604 -0.5039
 3632TIP3    H232388   4.938   2.680   3.296  1.5552 -0.9341  0.0034
 3633TIP3   OH232389   2.385   3.888  11.252 -0.5054 -0.3566 -0.1480
 3633TIP3    H132390   2.429   3.806  11.229  0.8464  0.7412 -1.7721
 3633TIP3    H232391   2.381   3.937  11.169 -0.4131  1.5739  0.9269
 3634TIP3   OH232392   3.067   3.430   3.769 -0.0352 -0.1158  0.1187
 3634TIP3    H132393   3.085   3.354   3.714  1.6279  0.7875 -0.6758
 3634TIP3    H232394   3.103   3.407   3.854  0.9841 -0.0309 -0.2747
 3635TIP3   OH232395   3.928   0.612  11.035  0.6745  0.1124  0.1169
 3635TIP3    H132396   3.873   0.564  11.097  0.5455  0.2147  0.0823
 3635TIP3    H232397   3.969   0.680  11.088  0.1356  0.5480 -0.0176
 3636TIP3   OH232398   1.039   4.391  13.199  0.1560 -0.0162  0.0305
 3636TIP3    H132399   0.998   4.305  13.185 -0.5567  0.3674 -0.3384
 3636TIP3    H232400   1.129   4.380  13.169 -0.1147 -0.4606 -0.6444
 3637TIP3   OH232401   4.724   0.590   4.774  0.1706 -0.1100  0.2016
 3637TIP3    H132402   4.674   0.603   4.693  0.8153  0.5487 -0.0960
 3637TIP3    H232403   4.681   0.515   4.816 -0.7085  0.0808 -0.3237
 3638TIP3   OH232404   2.505   4.230   3.526 -0.7507 -0.5752 -0.8356
 3638TIP3    H132405   2.557   4.186   3.593  1.1307  0.8414 -1.2924
 3638TIP3    H232406   2.470   4.308   3.570  0.6590  0.4699 -1.4689
 3639TIP3   OH232407   6.743   5.282  10.404  0.4301 -0.1025 -0.1048
 3639TIP3    H132408   6.785   5.310  10.485 -0.5907 -0.8784  0.7175
 3639TIP3    H232409   6.811   5.232  10.358  0.5883 -0.8924  0.9569
 3640TIP3   OH232410   4.718   6.005   1.667 -0.0353 -0.3114 -0.1991
 3640TIP3    H132411   4.736   5.932   1.726 -0.2397 -2.0188 -2.1493
 3640TIP3    H232412   4.647   6.053   1.709  1.0326 -0.3913  1.8015
 3641TIP3   OH232413   6.609   1.761   5.410  0.7288 -0.8281  0.0096
 3641TIP3    H132414   6.687   1.707   5.399 -0.0784 -2.3179  1.1144
 3641TIP3    H232415   6.613   1.792   5.500 -0.3590 -1.6475  0.3673
 3642TIP3   OH232416   1.520   2.072  12.726  0.4331 -0.2804 -0.0690
 3642TIP3    H132417   1.444   2.125  12.749  1.3748  0.2075  2.1694
 3642TIP3    H232418   1.485   2.001  12.674 -1.6170 -0.2399  1.1618
 3643TIP3   OH232419   0.974   5.013   5.676 -0.7622 -0.1083 -0.4034
 3643TIP3    H132420   0.999   5.105   5.677  1.5174 -0.6511 -0.5343
 3643TIP3    H232421   0.889   5.010   5.719 -0.6134  1.9726  0.1370
 3644TIP3   OH232422   4.360   0.817   0.479 -0.4342 -0.2857  0.6572
 3644TIP3    H132423   4.451   0.791   0.465 -0.5949  0.3634 -2.0799
 3644TIP3    H232424   4.310   0.736   0.468 -0.2811 -0.4511  1.1460
 3645TIP3   OH232425   4.177   4.329  15.270  0.5939 -0.2893  0.3942
 3645TIP3    H132426   4.233   4.273  15.217 -0.0218  0.5173 -1.1638
 3645TIP3    H232427   4.214   4.324  15.358  2.6787 -0.2998 -0.4441
 3646TIP3   OH232428   5.764   1.168  11.169 -0.1140 -0.0152 -0.3681
 3646TIP3    H132429   5.851   1.140  11.140  0.5393  1.6567 -0.1308
 3646TIP3    H232430   5.705   1.101  11.134  1.4110 -2.2533  1.0402
 3647TIP3   OH232431   6.551   3.718   4.917 -0.0612 -0.8101  0.5338
 3647TIP3    H132432   6.572   3.649   4.855 -0.0335 -0.7784  0.5078
 3647TIP3    H232433   6.637   3.754   4.943 -0.1366  0.6421 -1.0646
 3648TIP3   OH232434   4.145   2.251  16.718  0.6100 -0.3597 -0.6015
 3648TIP3    H132435   4.211   2.311  16.684  0.9535  0.0254  0.6830
 3648TIP3    H232436   4.164   2.245  16.812 -1.5266  0.2125 -0.0840
 3649TIP3   OH232437   4.291   3.487   1.743 -0.7282 -0.2119 -0.2518
 3649TIP3    H132438   4.325   3.459   1.828  2.1799  0.3293 -1.1338
 3649TIP3    H232439   4.259   3.407   1.703 -0.5423 -0.7637  0.6685
 3650TIP3   OH232440   5.096   4.915   6.357  0.2632  0.4957 -0.3221
 3650TIP3    H132441   5.007   4.891   6.332  0.4715 -0.2576 -0.3716
 3650TIP3    H232442   5.152   4.854   6.309  0.7658  0.4202  0.3392
 3651TIP3   OH232443   6.512   5.061  13.164 -0.8501  0.1409  0.5988
 3651TIP3    H132444   6.565   4.985  13.189  0.8008  1.3303  0.8629
 3651TIP3    H232445   6.433   5.054  13.217 -1.3538 -2.0730 -0.3202
 3652TIP3   OH232446   1.171   3.364  16.433  0.1831  0.0794  0.3126
 3652TIP3    H132447   1.264   3.362  16.411  0.1642 -0.0754  0.2429
 3652TIP3    H232448   1.152   3.456  16.451 -0.0411  0.3651 -1.2776
 3653TIP3   OH232449   5.730   6.324   5.645  0.0656  0.6524  0.4557
 3653TIP3    H132450   5.688   6.407   5.666  1.4868  1.1496  1.5168
 3653TIP3    H232451   5.823   6.338   5.666  0.1570 -1.5962  1.8829
 3654TIP3   OH232452   6.706   4.110   3.826  0.0607  0.7371 -0.1235
 3654TIP3    H132453   6.691   4.054   3.902 -1.1371 -0.8393 -1.4465
 3654TIP3    H232454   6.733   4.050   3.756  1.2624  2.1521 -0.9375
 3655TIP3   OH232455   1.887   5.301   5.087  0.6230  0.0112  0.0193
 3655TIP3    H132456   1.927   5.318   5.001  1.7686 -0.8145  0.3707
 3655TIP3    H232457   1.893   5.384   5.133  1.5734  0.0120 -0.0895
 3656TIP3   OH232458   2.809   6.159  13.436  0.4572  0.6987  0.1444
 3656TIP3    H132459   2.729   6.184  13.482  0.0499 -0.7856  0.3246
 3656TIP3    H232460   2.787   6.166  13.343 -0.2113 -0.5172  0.1793
 3657TIP3   OH232461   1.337   3.064  13.349  0.2126 -0.0278  0.1166
 3657TIP3    H132462   1.310   3.155  13.360  0.6833  0.2551 -0.9499
 3657TIP3    H232463   1.432   3.067  13.340  0.4033 -0.7937  1.5805
 3658TIP3   OH232464   1.079   3.368   1.787  0.7768  0.0931  0.3217
 3658TIP3    H132465   1.103   3.456   1.819 -1.4067  0.6645  0.5657
 3658TIP3    H232466   1.128   3.358   1.706  1.4822  1.3420  0.5632
 3659TIP3   OH232467   4.437   5.248  14.579  0.8693  0.2542 -0.3413
 3659TIP3    H132468   4.358   5.300  14.566  1.0750  0.5568 -0.4005
 3659TIP3    H232469   4.508   5.312  14.580  0.9630  0.1967  1.4484
 3660TIP3   OH232470   1.995   4.801  13.349  0.1820  0.1860  0.4427
 3660TIP3    H132471   2.046   4.722  13.364 -1.3433 -0.7918  0.6604
 3660TIP3    H232472   1.970   4.797  13.257 -0.3537  0.1136  0.5840
 3661TIP3   OH232473   5.795   3.783   5.608 -0.0064 -0.3723  0.1617
 3661TIP3    H132474   5.886   3.779   5.577  0.3477  1.1020  0.8955
 3661TIP3    H232475   5.767   3.692   5.612  0.6088 -0.7711 -2.4329
 3662TIP3   OH232476   2.864   3.810   3.465 -0.4265  0.0465 -0.5988
 3662TIP3    H132477   2.946   3.771   3.435  0.4586  0.3938  1.2641
 3662TIP3    H232478   2.889   3.871   3.534 -2.2307  0.4285 -0.2130
 3663TIP3   OH232479   1.088   1.453   3.559  0.4312  0.2553 -0.4110
 3663TIP3    H132480   1.043   1.523   3.605 -0.9221 -1.9785  1.9190
 3663TIP3    H232481   1.045   1.449   3.473 -1.2387  0.6700  0.3652
 3664TIP3   OH232482   2.779   3.322   4.517  0.3703 -0.4035  0.2052
 3664TIP3    H132483   2.824   3.239   4.536 -0.3290 -0.8249  0.0650
 3664TIP3    H232484   2.702   3.321   4.573  0.4031  0.2048  0.2704
 3665TIP3   OH232485   4.232   6.208  14.342 -0.3560 -0.5321 -0.1494
 3665TIP3    H132486   4.294   6.159  14.287  1.6853 -0.0346  1.5581
 3665TIP3    H232487   4.198   6.276  14.284  1.6938 -0.0400 -0.8872
 3666TIP3   OH232488   0.566   4.077  14.553  0.7841 -0.0256 -0.0621
 3666TIP3    H132489   0.588   4.124  14.472  0.5864 -0.5248 -0.4109
 3666TIP3    H232490   0.607   3.992  14.543  0.8889 -0.0350  0.4381
 3667TIP3   OH232491   1.180   5.814  10.649 -0.1444 -0.4086  0.1003
 3667TIP3    H132492   1.181   5.760  10.570  1.8452 -1.2562  0.6289
 3667TIP3    H232493   1.150   5.900  10.620 -1.3675 -1.2153 -1.1624
 3668TIP3   OH232494   4.169   0.520   4.017  0.4385 -0.0152 -0.2581
 3668TIP3    H132495   4.155   0.611   4.045 -0.8855 -0.0750 -0.6724
 3668TIP3    H232496   4.087   0.476   4.036  0.8825 -1.0121 -0.5766
 3669TIP3   OH232497   0.502   4.204  10.242 -0.1659 -0.6767 -0.2012
 3669TIP3    H132498   0.418   4.209  10.198 -0.3797  1.8265  0.3300
 3669TIP3    H232499   0.556   4.150  10.184 -0.9950  0.8781 -2.5912
 3670TIP3   OH232500   1.736   4.096  14.183  0.1908 -0.1609 -0.8761
 3670TIP3    H132501   1.827   4.066  14.178  0.6746  0.7956  1.2355
 3670TIP3    H232502   1.721   4.141  14.101  2.3663  1.5625 -0.4113
 3671TIP3   OH232503   1.754   3.003  12.375 -0.1997 -0.1936 -0.0556
 3671TIP3    H132504   1.728   2.996  12.466 -0.2573 -2.2961 -0.1839
 3671TIP3    H232505   1.804   2.923  12.358  0.8970  0.7339 -1.5412
 3672TIP3   OH232506   3.164   0.919   4.581  0.1652 -0.0283  0.0419
 3672TIP3    H132507   3.072   0.911   4.555  0.6340 -1.6059 -1.3533
 3672TIP3    H232508   3.204   0.838   4.550  2.0888  0.7413  0.3801
 3673TIP3   OH232509   2.441   6.307  15.487  0.7255 -0.2379 -0.1275
 3673TIP3    H132510   2.368   6.254  15.455  0.1327  1.2595 -1.3516
 3673TIP3    H232511   2.402   6.371  15.546  1.4234 -1.0055  1.2357
 3674TIP3   OH232512   1.457   0.882  11.699  0.1408  0.2446  0.4414
 3674TIP3    H132513   1.403   0.821  11.648  0.6590 -0.5276  0.8011
 3674TIP3    H232514   1.395   0.928  11.755 -0.1948 -0.3296  0.5476
 3675TIP3   OH232515   0.716   3.933  14.916 -0.5258 -0.0040  0.5302
 3675TIP3    H132516   0.633   3.898  14.951  0.3377 -0.1375  2.5858
 3675TIP3    H232517   0.757   3.977  14.991  1.0815  0.4140 -0.5484
 3676TIP3   OH232518   6.097   2.409   0.112 -0.3485 -0.3456  0.1547
 3676TIP3    H132519   6.153   2.474   0.070  0.2753  0.1752  1.7228
 3676TIP3    H232520   6.139   2.325   0.094 -1.4977 -0.4489 -2.4181
 3677TIP3   OH232521   1.253   5.079  16.584  0.3629  0.5313 -0.3333
 3677TIP3    H132522   1.173   5.070  16.532 -0.3155  1.4418  0.5271
 3677TIP3    H232523   1.323   5.057  16.523 -0.6051 -2.8889 -0.4692
 3678TIP3   OH232524   5.329   0.407  13.976  0.0687 -0.2476  0.1253
 3678TIP3    H132525   5.340   0.418  13.881  0.9598  2.3240  0.4241
 3678TIP3    H232526   5.419   0.409  14.010 -0.1608 -2.3188  0.9860
 3679TIP3   OH232527   3.673   5.659  15.445  0.4163 -0.1283  0.0817
 3679TIP3    H132528   3.710   5.643  15.532  1.4712  0.4738 -0.2367
 3679TIP3    H232529   3.657   5.572  15.409  1.9032 -0.4317  0.0947
 3680TIP3   OH232530   3.603   2.181   3.523 -0.1754 -0.5172  0.6640
 3680TIP3    H132531   3.549   2.191   3.444  1.7669  2.7232 -0.4470
 3680TIP3    H232532   3.689   2.154   3.490  1.2837  2.9112  1.2426
 3681TIP3   OH232533   5.908   0.519   1.481  0.4780  0.1922  0.5233
 3681TIP3    H132534   5.865   0.470   1.410  0.7288 -0.2107  0.6440
 3681TIP3    H232535   5.972   0.574   1.437  0.3424  0.2542  0.4016
 3682TIP3   OH232536   0.591   5.552   3.157  0.1111 -0.3432 -0.6004
 3682TIP3    H132537   0.675   5.510   3.139  0.3682  0.3253 -0.9973
 3682TIP3    H232538   0.595   5.578   3.249  0.7820  0.6690 -0.9067
 3683TIP3   OH232539   2.779   6.806   5.826 -0.5309 -0.0553  0.0566
 3683TIP3    H132540   2.748   6.843   5.908 -1.0906  0.5937 -0.4406
 3683TIP3    H232541   2.865   6.768   5.848  0.6948  2.6576  0.3309
 3684TIP3   OH232542   3.447   1.783  12.474 -0.1145  0.0417 -0.1022
 3684TIP3    H132543   3.457   1.839  12.397  0.6293 -2.1564 -1.6883
 3684TIP3    H232544   3.453   1.694  12.440 -1.0401 -1.0378  2.3468
 3685TIP3   OH232545   6.040   3.628   3.222 -1.4045  0.2999 -0.4764
 3685TIP3    H132546   6.110   3.633   3.287  0.6775  0.9672 -2.6308
 3685TIP3    H232547   6.025   3.534   3.211 -1.5033  0.1715  0.6578
 3686TIP3   OH232548   1.126   3.615  16.455  0.7709 -0.0852  0.0997
 3686TIP3    H132549   1.148   3.689  16.512  1.2919 -0.0511 -0.1440
 3686TIP3    H232550   1.135   3.649  16.366  1.7164 -0.6331 -0.0257
 3687TIP3   OH232551   4.978   4.903  16.160  0.4068 -0.1391 -0.7872
 3687TIP3    H132552   5.041   4.921  16.229 -0.7906 -0.1373  0.3413
 3687TIP3    H232553   4.937   4.820  16.185 -0.7467  0.3615 -0.9556
 3688TIP3   OH232554   0.557   1.906  15.397  0.7953 -0.2768  0.5623
 3688TIP3    H132555   0.493   1.897  15.467 -0.9309  2.5314 -0.4900
 3688TIP3    H232556   0.526   1.847  15.328  0.7312 -0.7222  0.9679
 3689TIP3   OH232557   3.721   1.189  13.111 -0.3054 -0.6926  0.1448
 3689TIP3    H132558   3.638   1.165  13.071 -1.3379  0.8478  1.2399
 3689TIP3    H232559   3.708   1.280  13.140  0.5612 -1.4977  3.3756
 3690TIP3   OH232560   1.731   2.172   3.934  0.1432  0.2282 -0.1247
 3690TIP3    H132561   1.641   2.188   3.904  0.2321  0.2351 -0.3937
 3690TIP3    H232562   1.761   2.257   3.966 -0.1442  0.0963  0.5088
 3691TIP3   OH232563   5.810   1.158  17.222 -0.4283  0.1608  0.3337
 3691TIP3    H132564   5.865   1.158  17.300  1.1469 -1.0033 -0.7233
 3691TIP3    H232565   5.868   1.128  17.151 -2.5596 -1.7606 -0.7263
 3692TIP3   OH232566   4.785   6.714   3.357 -0.0482 -0.1521  0.4959
 3692TIP3    H132567   4.804   6.785   3.296  0.5533 -0.9192 -0.2324
 3692TIP3    H232568   4.868   6.668   3.367 -1.0580 -2.6612 -1.5434
 3693TIP3   OH232569   1.061   4.826  15.551 -0.2700 -0.0733 -0.2079
 3693TIP3    H132570   0.999   4.760  15.520  0.3742 -0.6862 -0.2054
 3693TIP3    H232571   1.018   4.865  15.628 -0.8787 -0.1192 -0.5183
 3694TIP3   OH232572   3.285   1.717   4.469 -0.1246 -0.5618  0.6169
 3694TIP3    H132573   3.370   1.720   4.425  0.2514 -1.1011  1.2801
 3694TIP3    H232574   3.235   1.651   4.421 -0.1008 -0.3965  0.3604
 3695TIP3   OH232575   4.317   5.489   4.466 -0.5333 -0.1274  0.7695
 3695TIP3    H132576   4.367   5.407   4.467 -0.7305 -0.3357 -1.1847
 3695TIP3    H232577   4.301   5.506   4.373  0.2124  2.5896  1.0370
 3696TIP3   OH232578   6.472   6.605  15.326  0.0654 -0.3734 -0.2913
 3696TIP3    H132579   6.389   6.575  15.363 -0.8734  1.7672 -0.4748
 3696TIP3    H232580   6.455   6.696  15.302  2.0750 -0.3015 -1.6303
 3697TIP3   OH232581   2.789   5.412  15.916 -0.1657 -0.0715  1.2927
 3697TIP3    H132582   2.702   5.413  15.957 -0.1485  0.7276  1.3190
 3697TIP3    H232583   2.845   5.459  15.978 -0.2002  1.4007  0.2515
 3698TIP3   OH232584   4.779   5.115  14.600  0.2207 -0.3900 -0.1531
 3698TIP3    H132585   4.757   5.107  14.507  2.7988  1.0997 -1.0005
 3698TIP3    H232586   4.738   5.039  14.641 -0.9295 -1.1436 -2.4972
 3699TIP3   OH232587   1.137   3.969   1.343  0.4825 -0.2669 -0.8145
 3699TIP3    H132588   1.153   3.898   1.406  0.2314 -0.2739 -0.7570
 3699TIP3    H232589   1.109   4.043   1.397  0.4772 -0.2079 -0.8987
 3700TIP3   OH232590   1.179   0.538   5.011  0.6098  0.2813  0.1461
 3700TIP3    H132591   1.196   0.552   5.104 -1.0898  1.9719  0.2510
 3700TIP3    H232592   1.096   0.490   5.008  1.1321 -0.6208 -0.5102
 3701TIP3   OH232593   3.024   6.552  14.673 -0.1149  0.1191 -0.4268
 3701TIP3    H132594   2.973   6.632  14.663 -0.3415  0.4673  2.5263
 3701TIP3    H232595   3.111   6.574  14.639 -0.0117  1.8457  0.8557
 3702TIP3   OH232596   3.529   1.917  11.369  1.0534 -0.2373 -0.4028
 3702TIP3    H132597   3.492   1.944  11.453  0.6512 -0.6951 -0.4289
 3702TIP3    H232598   3.516   1.822  11.366  1.2595 -0.2522 -0.8842
 3703TIP3   OH232599   3.588   3.742  15.767  0.2012  0.4971 -0.0040
 3703TIP3    H132600   3.565   3.676  15.833  0.8680  1.1439  0.9071
 3703TIP3    H232601   3.649   3.801  15.813  1.2920  0.5240 -1.4406
 3704TIP3   OH232602   1.040   5.460   3.790 -0.6277  0.0590 -0.5042
 3704TIP3    H132603   1.095   5.538   3.782 -0.8848  0.6365  2.1811
 3704TIP3    H232604   0.952   5.490   3.767 -0.7966  0.7446  0.8735
 3705TIP3   OH232605   5.078   0.627   2.372  0.5371 -1.0378  0.1001
 3705TIP3    H132606   5.163   0.645   2.332  0.8872 -0.3842  1.1206
 3705TIP3    H232607   5.098   0.604   2.463 -0.4850  1.0076  0.9093
 3706TIP3   OH232608   3.639   4.571  15.189 -0.1188  0.3525  0.4421
 3706TIP3    H132609   3.549   4.562  15.156  0.0723  0.3393 -0.0798
 3706TIP3    H232610   3.692   4.588  15.111  0.3478  0.2757  0.7381
 3707TIP3   OH232611   2.413   6.307   2.110 -0.3361  0.5359 -0.2246
 3707TIP3    H132612   2.412   6.387   2.058 -1.9216 -0.7747 -2.3474
 3707TIP3    H232613   2.483   6.254   2.072 -2.3646 -0.9788 -2.0484
 3708TIP3   OH232614   3.608   3.064  11.271 -0.5547  0.1893  0.6655
 3708TIP3    H132615   3.603   3.101  11.360 -0.0465 -0.8844  1.1598
 3708TIP3    H232616   3.517   3.046  11.248 -0.6264 -0.2958  1.3074
 3709TIP3   OH232617   4.816   3.250   0.242 -0.5474  0.0981 -0.2443
 3709TIP3    H132618   4.758   3.176   0.257  0.3515 -0.4599  0.6168
 3709TIP3    H232619   4.898   3.211   0.213  0.2034  0.6768  0.9910
 3710TIP3   OH232620   5.489   0.334   0.263 -0.3194  0.7009 -0.1911
 3710TIP3    H132621   5.498   0.350   0.357  1.0783  0.2276 -0.2327
 3710TIP3    H232622   5.505   0.241   0.253  0.1184  0.8563 -0.9775
 3711TIP3   OH232623   2.417   4.994  14.617  0.7832 -0.0756 -0.1663
 3711TIP3    H132624   2.448   5.010  14.706 -1.9134  0.3920  0.7857
 3711TIP3    H232625   2.464   4.915  14.589  2.9788  0.7442  0.9540
 3712TIP3   OH232626   6.213   3.809   5.523 -0.2994 -0.3044  0.0855
 3712TIP3    H132627   6.242   3.887   5.570 -1.2090 -0.1518  0.4061
 3712TIP3    H232628   6.169   3.843   5.445 -0.1929 -0.5177 -0.0692
 3713TIP3   OH232629   5.868   2.692   4.592  0.2671 -0.2760 -0.1249
 3713TIP3    H132630   5.920   2.624   4.550  1.5799  1.0851 -0.7878
 3713TIP3    H232631   5.838   2.748   4.520  0.3461  0.6124  0.5127
 3714TIP3   OH232632   6.115   3.178   4.923  0.7813  0.5807 -0.2670
 3714TIP3    H132633   6.196   3.186   4.871  1.7995 -0.9890  0.9958
 3714TIP3    H232634   6.132   3.231   5.001  0.6853  0.1192  0.0741
 3715TIP3   OH232635   0.875   1.467   5.298  0.3643 -0.6815 -0.5433
 3715TIP3    H132636   0.932   1.407   5.347  2.0042  0.9600 -0.3077
 3715TIP3    H232637   0.915   1.472   5.211  0.9552  0.8877 -0.2210
 3716TIP3   OH232638   6.721   1.540   0.686  0.3900  0.1941  0.5201
 3716TIP3    H132639   6.800   1.542   0.632  1.2372  0.2950  1.6955
 3716TIP3    H232640   6.690   1.630   0.686  0.2275  0.1377 -0.0184
 3717TIP3   OH232641   5.032   4.288  13.215 -0.1792  0.3348 -0.4122
 3717TIP3    H132642   5.118   4.284  13.255 -0.5924 -1.6308  0.3850
 3717TIP3    H232643   5.006   4.196  13.205 -2.3760  0.8807 -0.1735
 3718TIP3   OH232644   1.634   2.511   5.551  0.2207  0.6002 -1.3465
 3718TIP3    H132645   1.659   2.595   5.512  1.0290  1.1307  0.2474
 3718TIP3    H232646   1.642   2.525   5.645  2.5552 -1.8882 -1.0681
 3719TIP3   OH232647   2.716   0.486   3.234  0.2451  0.1053  0.2625
 3719TIP3    H132648   2.695   0.507   3.325  2.1753  2.2186  0.3137
 3719TIP3    H232649   2.797   0.435   3.240  0.9297  1.1114 -0.2943
 3720TIP3   OH232650   6.026   6.723  16.714  0.3451 -0.2214  0.0698
 3720TIP3    H132651   5.964   6.768  16.771 -2.8867 -1.9561 -1.7858
 3720TIP3    H232652   5.972   6.685  16.645  3.4405 -2.5321 -1.3225
 3721TIP3   OH232653   5.789   2.012  13.165  0.3384 -0.2998 -0.4301
 3721TIP3    H132654   5.807   1.923  13.135  2.0408 -0.0342 -0.2947
 3721TIP3    H232655   5.870   2.040  13.207 -1.5174 -0.3230  3.7456
 3722TIP3   OH232656   2.167   4.416  16.702 -0.4316  0.0995 -0.3673
 3722TIP3    H132657   2.146   4.480  16.771  1.3726  1.7000 -1.2120
 3722TIP3    H232658   2.090   4.360  16.697 -1.8971  1.9033  0.7828
 3723TIP3   OH232659   3.123   0.853  16.653 -0.8695  0.0444  0.0429
 3723TIP3    H132660   3.171   0.822  16.729 -2.4172  0.6592  1.3213
 3723TIP3    H232661   3.085   0.774  16.614  0.4643 -0.3462 -0.5099
 3724TIP3   OH232662   1.775   3.625  10.415  0.2151 -0.4872  0.1427
 3724TIP3    H132663   1.810   3.699  10.464 -0.1262  0.1653 -0.5940
 3724TIP3    H232664   1.681   3.628  10.430 -0.1986  1.0474 -2.2905
 3725TIP3   OH232665   4.480   0.794   6.035  0.0718  0.2954 -0.2508
 3725TIP3    H132666   4.548   0.787   6.102  0.7136  1.0021 -0.8186
 3725TIP3    H232667   4.513   0.744   5.961 -0.3542  0.0344 -0.2651
 3726TIP3   OH232668   1.028   6.611   4.803  0.1456 -0.0362  0.4992
 3726TIP3    H132669   1.087   6.684   4.788 -1.1826  0.4278 -4.2204
 3726TIP3    H232670   0.983   6.632   4.885  2.8008  2.1330  1.5400
 3727TIP3   OH232671   2.980   0.829  12.451  0.4163  0.3210  1.0469
 3727TIP3    H132672   2.998   0.736  12.467 -0.3323  0.2316  1.4170
 3727TIP3    H232673   2.976   0.868  12.538 -1.3627  0.2846  1.0219
 3728TIP3   OH232674   2.241   2.267  13.728  0.5887 -0.1259 -0.0538
 3728TIP3    H132675   2.202   2.232  13.649  1.8368 -0.5372 -0.5207
 3728TIP3    H232676   2.167   2.291  13.784 -0.3013 -1.2195 -0.7359
 3729TIP3   OH232677   0.679   0.005  14.878  0.5330 -0.3560  0.1268
 3729TIP3    H132678   0.752  -0.012  14.818 -1.3585  0.2052 -2.5112
 3729TIP3    H232679   0.687   0.099  14.898 -0.8569  0.4076 -2.3800
 3730TIP3   OH232680   1.774   2.539   3.878  0.3575  0.0965  0.2406
 3730TIP3    H132681   1.692   2.572   3.916  0.8897  1.3482  0.3591
 3730TIP3    H232682   1.795   2.602   3.809  1.2562 -0.1779  0.2561
 3731TIP3   OH232683   5.710   3.454  10.859  0.3722  0.0773  0.2101
 3731TIP3    H132684   5.680   3.437  10.948 -0.0710  2.2508  0.5198
 3731TIP3    H232685   5.649   3.405  10.803  0.0794 -0.5305  1.0389
 3732TIP3   OH232686   3.030   2.141  12.569  0.2096 -0.6614  0.0012
 3732TIP3    H132687   3.012   2.204  12.639  0.8079 -2.0185  1.4379
 3732TIP3    H232688   2.948   2.093  12.558 -0.5016  0.8262 -1.6600
 3733TIP3   OH232689   5.518   6.070   3.239  0.1339 -0.4791 -0.4679
 3733TIP3    H132690   5.585   6.049   3.304 -0.9437 -0.6708  0.6199
 3733TIP3    H232691   5.435   6.056   3.285 -0.6536  0.1293 -1.6565
 3734TIP3   OH232692   3.645   1.423  13.298  0.1151  0.5623  0.5256
 3734TIP3    H132693   3.611   1.411  13.386  0.0258  0.2737  0.4515
 3734TIP3    H232694   3.567   1.434  13.243 -0.0006 -2.2933  0.0048
 3735TIP3   OH232695   6.771   3.392  16.412 -0.5526 -0.1651 -0.0153
 3735TIP3    H132696   6.730   3.418  16.495  0.9914 -0.6399  0.9348
 3735TIP3    H232697   6.719   3.319  16.382 -2.0144  0.9207 -0.2340
 3736TIP3   OH232698   2.888   1.513   1.700  0.1949 -0.1983  0.2203
 3736TIP3    H132699   2.873   1.600   1.663  1.8376 -0.1111 -0.3084
 3736TIP3    H232700   2.898   1.529   1.794 -0.4029  0.0482  0.2485
 3737TIP3   OH232701   1.334   5.345  10.823 -0.1146  0.5183 -0.1708
 3737TIP3    H132702   1.343   5.405  10.749  1.1460  1.4143  0.6571
 3737TIP3    H232703   1.424   5.321  10.845 -0.4219  0.6510  1.3457
 3738TIP3   OH232704   5.592   3.751   4.436  0.7087 -0.2208  0.4279
 3738TIP3    H132705   5.552   3.837   4.427 -1.8012 -1.3108  0.2832
 3738TIP3    H232706   5.619   3.746   4.528  1.8585  1.0622  0.1839
 3739TIP3   OH232707   0.546   4.755  14.335 -0.0732 -0.3734 -0.4479
 3739TIP3    H132708   0.513   4.721  14.251  2.2923 -1.3541 -1.0457
 3739TIP3    H232709   0.603   4.686  14.368 -0.4466  0.2873  1.6876
 3740TIP3   OH232710   1.739   5.581  16.680  0.2235  0.1241  0.4024
 3740TIP3    H132711   1.656   5.584  16.632 -0.5145  0.7703  1.6691
 3740TIP3    H232712   1.785   5.661  16.654  0.0570  0.2113  0.3759
 3741TIP3   OH232713   5.596   6.390  13.303  0.1420  0.5860 -0.5145
 3741TIP3    H132714   5.656   6.366  13.232  0.8395  1.0258 -0.0825
 3741TIP3    H232715   5.619   6.332  13.375 -0.0950  0.6154 -0.4148
 3742TIP3   OH232716   3.550   3.835   2.283  0.3712 -0.2689  0.2358
 3742TIP3    H132717   3.510   3.920   2.302 -1.4356 -1.4024  1.9850
 3742TIP3    H232718   3.596   3.812   2.364 -1.4444 -2.0800  0.8523
 3743TIP3   OH232719   1.020   1.013  16.272 -0.4849 -0.0741  0.1542
 3743TIP3    H132720   1.058   1.101  16.272  1.1512 -0.7319  0.2764
 3743TIP3    H232721   0.955   1.014  16.202 -1.0817  1.4532  0.6917
 3744TIP3   OH232722   6.721   1.849  13.516  0.5120 -0.4369  0.1115
 3744TIP3    H132723   6.806   1.805  13.524  0.8220  0.1503  0.1009
 3744TIP3    H232724   6.682   1.842  13.603 -0.1537 -2.1260 -0.2784
 3745TIP3   OH232725   3.355   5.062  11.880  0.1784  0.0690 -0.2485
 3745TIP3    H132726   3.314   4.981  11.850  1.0820 -1.3708  2.1258
 3745TIP3    H232727   3.446   5.055  11.852  0.5109 -0.2921  0.8419
 3746TIP3   OH232728   2.589   5.314   0.320  0.0448 -0.2342 -0.3711
 3746TIP3    H132729   2.654   5.292   0.387 -0.5419 -2.0602 -0.3343
 3746TIP3    H232730   2.610   5.255   0.247  0.1355  1.1158 -1.4612
 3747TIP3   OH232731   6.483   2.728   2.109  0.1253  0.0037 -0.1221
 3747TIP3    H132732   6.500   2.640   2.141  0.2249 -0.3715 -1.1659
 3747TIP3    H232733   6.512   2.727   2.018 -0.0333  1.0635 -0.2032
 3748TIP3   OH232734   5.975   0.338  15.354 -0.0604  0.4302 -0.3713
 3748TIP3    H132735   6.003   0.414  15.405 -0.3003  1.1229 -1.2372
 3748TIP3    H232736   5.899   0.304  15.401  0.7713 -0.0135  0.6841
 3749TIP3   OH232737   1.511   5.274   2.965 -0.6959  0.3950 -0.5682
 3749TIP3    H132738   1.506   5.265   3.060 -0.8747  2.9178 -0.2545
 3749TIP3    H232739   1.447   5.211   2.932 -1.0064 -0.1756  1.0046
 3750TIP3   OH232740   5.585   2.461  11.165  0.1374 -0.3657  0.6386
 3750TIP3    H132741   5.652   2.394  11.151 -0.2335 -0.5988 -0.0644
 3750TIP3    H232742   5.607   2.529  11.100  0.0140 -0.1915  0.7802
 3751TIP3   OH232743   4.757   6.779  16.564 -0.0508 -0.1470  0.5666
 3751TIP3    H132744   4.810   6.700  16.553  0.5279  0.5331 -2.2831
 3751TIP3    H232745   4.670   6.754  16.533 -0.5691 -0.3229  2.0774
 3752TIP3   OH232746   6.649   2.486   2.813 -0.4947 -0.3342  0.0864
 3752TIP3    H132747   6.564   2.518   2.845 -0.5214  2.1681 -2.1142
 3752TIP3    H232748   6.694   2.456   2.892 -2.2528  1.1767  1.7759
 3753TIP3   OH232749   5.859   3.060   0.853 -0.0428  0.2347  0.9410
 3753TIP3    H132750   5.859   2.964   0.860  0.6522  0.1855  0.4026
 3753TIP3    H232751   5.928   3.087   0.915 -1.0739  0.4771  2.0135
 3754TIP3   OH232752   0.252   6.515   4.282  0.1668 -0.3637  0.4047
 3754TIP3    H132753   0.194   6.503   4.207  0.8230  0.4518 -0.2481
 3754TIP3    H232754   0.282   6.605   4.275  2.3754 -1.0739  0.1031
 3755TIP3   OH232755   6.503   2.742   0.716  0.2105 -0.7943  0.3606
 3755TIP3    H132756   6.411   2.724   0.737  0.0220  0.6296  0.8556
 3755TIP3    H232757   6.521   2.827   0.757  2.3021 -1.8831  1.9016
 3756TIP3   OH232758   3.668   4.161   2.876 -0.0567  0.7855 -0.1162
 3756TIP3    H132759   3.675   4.153   2.971 -0.9664  3.2115  0.2392
 3756TIP3    H232760   3.630   4.248   2.862 -2.2919 -0.4347 -2.6090
 3757TIP3   OH232761   1.624   3.859  14.719  0.2356  0.0722  0.0354
 3757TIP3    H132762   1.689   3.790  14.732  0.2341  0.3293  1.6195
 3757TIP3    H232763   1.661   3.913  14.649  1.6843  0.1228  0.7951
 3758TIP3   OH232764   2.101   4.657   0.203 -0.3493  0.0477  0.0165
 3758TIP3    H132765   2.170   4.679   0.266 -0.1882  0.3451 -0.2606
 3758TIP3    H232766   2.100   4.561   0.202 -1.4720 -0.0104  1.6927
 3759TIP3   OH232767   1.638   1.590   2.015 -0.1940 -0.3850 -0.0924
 3759TIP3    H132768   1.543   1.583   2.027 -0.0534 -2.4030  0.1373
 3759TIP3    H232769   1.672   1.506   2.046  1.4584 -0.6221 -2.3423
 3760TIP3   OH232770   3.503   6.758   2.792 -0.1610 -0.6570 -0.5243
 3760TIP3    H132771   3.410   6.744   2.810 -0.0726 -0.3969  0.1765
 3760TIP3    H232772   3.513   6.854   2.795 -0.0266 -0.6420 -1.3963
 3761TIP3   OH232773   5.122   1.243   0.464  0.6401  0.0441  0.6213
 3761TIP3    H132774   5.136   1.327   0.421 -2.2738  0.2234 -0.1330
 3761TIP3    H232775   5.207   1.198   0.456  1.1776  1.3446 -2.4953
 3762TIP3   OH232776   0.168   6.554  12.692  0.9291 -0.4489  0.3270
 3762TIP3    H132777   0.105   6.548  12.763  1.6482 -2.0487  0.8706
 3762TIP3    H232778   0.178   6.648  12.676 -4.0635 -0.0262 -2.0840
 3763TIP3   OH232779   0.230   5.423  16.337  0.0247 -0.3628 -0.2590
 3763TIP3    H132780   0.259   5.336  16.364 -1.3096 -0.5158  0.7558
 3763TIP3    H232781   0.135   5.421  16.345 -0.2323  0.4808 -2.4133
 3764TIP3   OH232782   6.018   1.674   1.259 -0.1632 -0.1313 -0.3620
 3764TIP3    H132783   6.055   1.744   1.205  0.7777  1.1435  1.7897
 3764TIP3    H232784   5.930   1.659   1.223 -0.0745  1.5966 -1.3992
 3765TIP3   OH232785   0.255   4.513  13.864  0.1560 -0.2933 -0.5562
 3765TIP3    H132786   0.302   4.440  13.905  1.1643  0.9020  0.4871
 3765TIP3    H232787   0.164   4.501  13.891  0.1296 -1.6029 -1.0941
 3766TIP3   OH232788   1.955   6.353  13.472  0.1222  0.0058  0.0239
 3766TIP3    H132789   1.878   6.344  13.415 -0.8341  0.6674  1.1679
 3766TIP3    H232790   1.956   6.445  13.497  1.0700 -0.0802  0.3568
 3767TIP3   OH232791   6.162   0.116   2.341 -0.4965  0.1577 -0.0706
 3767TIP3    H132792   6.073   0.122   2.374  0.2256 -1.0880  2.3395
 3767TIP3    H232793   6.153   0.121   2.245 -3.1066  0.1049  0.1051
 3768TIP3   OH232794   5.972   0.114   4.100 -0.7475  0.1488 -0.2889
 3768TIP3    H132795   6.010   0.149   4.181  0.7077  0.9475 -1.2746
 3768TIP3    H232796   5.911   0.047   4.130 -0.4767  0.6276  1.4855
 3769TIP3   OH232797   1.334   4.312  13.920  0.6217 -0.5299 -0.2619
 3769TIP3    H132798   1.332   4.385  13.857 -0.9123 -3.0364 -3.4007
 3769TIP3    H232799   1.398   4.340  13.986  0.5093  3.3904 -1.5106
 3770TIP3   OH232800   4.733   4.137  12.324 -0.2220  0.0009  0.5785
 3770TIP3    H132801   4.826   4.149  12.306  0.4641 -2.1611  2.2608
 3770TIP3    H232802   4.692   4.130  12.237  1.4622 -0.8296 -0.1847
 3771TIP3   OH232803   2.057   0.198   0.863  0.7441 -0.5504 -0.5316
 3771TIP3    H132804   2.092   0.110   0.851  1.6342 -0.4610  1.0679
 3771TIP3    H232805   2.129   0.256   0.837  0.5242 -0.3209 -0.6234
 3772TIP3   OH232806   6.736   2.126   1.187 -0.3101 -0.0963  0.1900
 3772TIP3    H132807   6.677   2.169   1.124 -0.1899  0.0408  0.1723
 3772TIP3    H232808   6.681   2.060   1.230 -0.1589 -0.8524 -0.7352
 3773TIP3   OH232809   2.815   5.442  16.984  0.3321  0.2050 -0.3268
 3773TIP3    H132810   2.799   5.536  16.977  0.6465  0.4526  1.7632
 3773TIP3    H232811   2.910   5.434  16.973  0.5574  0.3786  1.2136
 3774TIP3   OH232812   4.165   0.695  15.262 -0.2814 -0.4233  0.3385
 3774TIP3    H132813   4.236   0.727  15.318  0.5710 -0.2432 -0.8241
 3774TIP3    H232814   4.106   0.770  15.253  0.9860  0.4301 -1.2201
 3775TIP3   OH232815   5.014   0.966   1.439  0.4844  0.0722  0.3085
 3775TIP3    H132816   5.006   0.871   1.447 -1.6888  0.1583 -0.2052
 3775TIP3    H232817   5.020   0.998   1.529 -2.7181 -0.3408  0.7648
 3776TIP3   OH232818   6.455   5.358   3.800  0.2536 -0.3130  0.0143
 3776TIP3    H132819   6.514   5.330   3.870  2.3945  2.1251 -0.6435
 3776TIP3    H232820   6.512   5.372   3.724 -1.7819 -1.4836 -1.8529
 3777TIP3   OH232821   0.345   0.884  17.036  0.4869  0.0810 -0.6661
 3777TIP3    H132822   0.277   0.897  17.103 -0.7789  2.3724 -2.2283
 3777TIP3    H232823   0.334   0.793  17.007 -0.7136 -0.1337  0.3914
 3778TIP3   OH232824   2.049   1.205  14.175  0.2467  0.5130 -0.0934
 3778TIP3    H132825   2.111   1.173  14.241 -0.2957  0.6488  0.4892
 3778TIP3    H232826   2.102   1.214  14.096  0.3008 -2.4402 -0.4935
 3779TIP3   OH232827   1.253   2.310   0.572  0.1937  0.0119 -0.2314
 3779TIP3    H132828   1.327   2.319   0.511  0.6003  3.5770  0.5187
 3779TIP3    H232829   1.284   2.352   0.652 -1.7900 -0.7799  1.0035
 3780TIP3   OH232830   5.972   4.246   0.470 -0.2513 -0.1354 -0.4225
 3780TIP3    H132831   6.026   4.178   0.511 -0.5314 -0.9272 -1.3478
 3780TIP3    H232832   5.886   4.205   0.459  0.0172 -0.2215 -2.5067
 3781TIP3   OH232833   0.291   1.393   3.969 -0.4095 -0.3762  0.1638
 3781TIP3    H132834   0.372   1.443   3.971 -1.0540  0.8001  3.6108
 3781TIP3    H232835   0.275   1.377   3.876  2.9050  0.6890 -0.7288
 3782TIP3   OH232836   0.556   3.133   4.380 -0.6535  0.0101  0.0560
 3782TIP3    H132837   0.554   3.040   4.404  0.2452 -0.4561 -1.5015
 3782TIP3    H232838   0.532   3.179   4.460 -2.3181 -1.6082  0.5582
 3783TIP3   OH232839   4.940   5.284   5.320 -0.2047  0.0659  0.2262
 3783TIP3    H132840   4.856   5.237   5.322 -0.4065  0.4256  2.9599
 3783TIP3    H232841   4.968   5.289   5.411  1.6899  1.9721 -0.3739
 3784TIP3   OH232842   5.129   5.716  16.769  0.5975 -0.3774  0.3875
 3784TIP3    H132843   5.044   5.686  16.800  1.5824 -3.9040  0.1216
 3784TIP3    H232844   5.113   5.747  16.680 -0.3438 -1.3907  0.1875
 3785TIP3   OH232845   1.199   5.263  16.035 -0.5067  0.7276  0.0105
 3785TIP3    H132846   1.265   5.301  16.093  0.3321  0.0251 -0.4659
 3785TIP3    H232847   1.224   5.291  15.947 -0.0559 -0.6288 -0.3171
 3786TIP3   OH232848   1.574   5.626  14.488  0.2159  0.5422  0.1636
 3786TIP3    H132849   1.642   5.693  14.482  1.7722 -0.8568  1.2471
 3786TIP3    H232850   1.502   5.669  14.534  0.4769  1.9522 -0.6685
 3787TIP3   OH232851   1.624   4.738   2.255 -0.3695 -0.1327 -0.4414
 3787TIP3    H132852   1.718   4.722   2.248 -0.4913 -1.6428  0.8945
 3787TIP3    H232853   1.605   4.799   2.184  1.3695 -0.9067 -1.6421
 3788TIP3   OH232854   4.683   3.850   2.157  0.0219 -0.6327 -0.5394
 3788TIP3    H132855   4.632   3.792   2.101  0.0147 -2.7941  1.5739
 3788TIP3    H232856   4.692   3.803   2.240  0.6360  2.0906  1.0848
 3789TIP3   OH232857   2.695   0.961  13.788  0.1086  0.2099  0.1192
 3789TIP3    H132858   2.695   1.003  13.874 -0.3964 -0.2920  0.3785
 3789TIP3    H232859   2.688   0.867  13.808  0.9595  0.0210 -0.4461
 3790TIP3   OH232860   5.818   5.004   6.210  0.4501 -0.7284 -0.5255
 3790TIP3    H132861   5.783   4.915   6.216  0.8020 -0.7809  1.2231
 3790TIP3    H232862   5.910   4.993   6.184  0.9512 -1.0138  1.2468
 3791TIP3   OH232863   1.784   4.707   5.813  0.1955  0.1276  0.0255
 3791TIP3    H132864   1.823   4.789   5.843 -0.5996  0.8635 -0.8758
 3791TIP3    H232865   1.689   4.719   5.825  0.1116 -1.0678  0.8350
 3792TIP3   OH232866   5.270   3.765  11.858  0.6744  0.4384  0.0522
 3792TIP3    H132867   5.207   3.815  11.908 -1.3959 -1.3856 -0.5613
 3792TIP3    H232868   5.317   3.713  11.923  0.1844  0.3797  0.3572
 3793TIP3   OH232869   2.666   4.664  12.100  0.1847 -0.4512 -0.1545
 3793TIP3    H132870   2.726   4.667  12.025  0.6189  2.8384  0.1990
 3793TIP3    H232871   2.580   4.686  12.063  0.0802 -0.4885  0.0634
 3794TIP3   OH232872   5.155   4.695  16.022 -0.2515  0.2919  0.6447
 3794TIP3    H132873   5.242   4.733  16.035  0.2087 -0.6375  0.3573
 3794TIP3    H232874   5.095   4.763  16.053  0.6135  0.2361  2.5603
 3795TIP3   OH232875   6.070   4.880  16.594  0.1733 -0.2261 -0.1624
 3795TIP3    H132876   6.100   4.879  16.685 -0.4781 -1.2309  0.0671
 3795TIP3    H232877   6.148   4.862  16.543  0.4880  0.0172  0.2242
 3796TIP3   OH232878   5.787   1.408  14.196  0.5471 -0.0585  0.0032
 3796TIP3    H132879   5.735   1.457  14.259  1.4572 -1.6845  2.1654
 3796TIP3    H232880   5.747   1.427  14.111 -1.9162  0.7574  1.2598
 3797TIP3   OH232881   3.325   4.459   3.397 -0.1228 -0.3647 -0.4336
 3797TIP3    H132882   3.267   4.525   3.360  0.1526  0.1307 -0.0096
 3797TIP3    H232883   3.330   4.482   3.490 -0.8585 -1.6191 -0.0652
 3798TIP3   OH232884   3.468   2.116  15.028 -0.4166  0.1663 -0.5793
 3798TIP3    H132885   3.535   2.054  15.055  0.4038  0.7648 -1.1976
 3798TIP3    H232886   3.516   2.192  14.996 -1.3767  0.4489 -1.4192
 3799TIP3   OH232887   6.552   1.373   0.185 -0.0387  0.1795 -0.1347
 3799TIP3    H132888   6.488   1.369   0.256  0.4772  0.2968  0.3411
 3799TIP3    H232889   6.539   1.291   0.137  0.0099 -0.1642  0.4389
 3800TIP3   OH232890   4.748   3.182   3.790  0.2431 -0.4735 -0.0287
 3800TIP3    H132891   4.658   3.154   3.773 -0.1841  0.4141  0.6266
 3800TIP3    H232892   4.740   3.276   3.809  1.4749 -0.0982 -1.2075
 3801TIP3   OH232893   1.605   6.287  15.538  0.2589  0.3754  0.4241
 3801TIP3    H132894   1.525   6.331  15.566  0.9130  2.7317 -1.1281
 3801TIP3    H232895   1.630   6.232  15.612 -1.2102  1.8308  2.0805
 3802TIP3   OH232896   1.136   6.595  15.455 -0.4548  0.3743 -0.3755
 3802TIP3    H132897   1.111   6.593  15.548  1.8087 -0.1581  0.2837
 3802TIP3    H232898   1.141   6.688  15.434  0.4806  0.5444  0.5031
 3803TIP3   OH232899   2.454   1.729  12.582 -0.2211  0.3141  0.2536
 3803TIP3    H132900   2.545   1.715  12.557 -0.1736 -0.2978  0.7422
 3803TIP3    H232901   2.450   1.699  12.673 -1.1497 -0.6583 -0.0968
 3804TIP3   OH232902   0.258   0.512   2.207 -0.5363 -0.2626  0.2329
 3804TIP3    H132903   0.250   0.574   2.134 -0.2957 -1.6219 -1.0031
 3804TIP3    H232904   0.345   0.527   2.242 -0.6892  0.4718  0.3213
 3805TIP3   OH232905   3.106   6.693  15.293  0.0743  0.4823 -0.0824
 3805TIP3    H132906   3.124   6.770  15.239  0.1308  0.0246 -0.7303
 3805TIP3    H232907   3.184   6.638  15.284 -0.7345 -0.5312 -1.1908
 3806TIP3   OH232908   5.857   5.572  15.798  0.3369 -0.1096 -0.1905
 3806TIP3    H132909   5.855   5.491  15.849  3.6036  1.1284  2.2340
 3806TIP3    H232910   5.810   5.635  15.852  1.7808  0.6357  0.2586
 3807TIP3   OH232911   1.918   2.029   2.623 -0.2501  0.3570 -0.0853
 3807TIP3    H132912   1.860   2.019   2.699  1.9874 -2.0492  1.4790
 3807TIP3    H232913   1.897   1.956   2.566 -0.9257  1.3342 -1.1257
 3808TIP3   OH232914   4.711   3.349   3.314  0.2982 -1.1829 -0.3793
 3808TIP3    H132915   4.782   3.366   3.253 -0.9346  1.2109 -1.2795
 3808TIP3    H232916   4.747   3.368   3.400  0.7473  0.0585 -0.8295
 3809TIP3   OH232917   3.034   5.151   2.710  0.0956 -0.1335  0.6078
 3809TIP3    H132918   3.087   5.173   2.633 -0.3920  0.6654  0.4968
 3809TIP3    H232919   2.973   5.085   2.678 -2.1407  2.3055 -0.5449
 3810TIP3   OH232920   4.028   3.537  17.034 -0.0937  0.6748  1.0224
 3810TIP3    H132921   3.933   3.546  17.043 -0.2599  1.0569 -0.7651
 3810TIP3    H232922   4.040   3.450  16.995  0.2859  0.7102  1.0575
 3811TIP3   OH232923   0.443   5.275   0.693 -0.3109 -0.5323 -0.0900
 3811TIP3    H132924   0.507   5.298   0.761  0.1680 -3.1512  0.4862
 3811TIP3    H232925   0.423   5.183   0.710 -0.0221 -1.4040 -3.5937
 3812TIP3   OH232926   2.292   4.930   4.842  0.6325  0.0090 -0.2436
 3812TIP3    H132927   2.328   4.842   4.850  1.2203  0.0531 -1.9160
 3812TIP3    H232928   2.259   4.933   4.752  0.5951  1.4934 -0.1919
 3813TIP3   OH232929   3.650   0.349  11.804 -0.2995 -0.2704 -0.2787
 3813TIP3    H132930   3.734   0.350  11.850 -0.3625  0.3037 -0.1694
 3813TIP3    H232931   3.623   0.441  11.801 -0.4012 -0.3182 -1.2727
 3814TIP3   OH232932   0.317   1.848  16.044 -0.0855 -0.2114 -0.5234
 3814TIP3    H132933   0.300   1.754  16.052 -0.5151 -0.2906 -2.0766
 3814TIP3    H232934   0.240   1.889  16.084 -0.1037 -0.5268 -0.2293
 3815TIP3   OH232935   4.397   3.479   0.780  0.0093 -0.5135  0.1740
 3815TIP3    H132936   4.475   3.517   0.819  0.5462  0.1962 -1.4662
 3815TIP3    H232937   4.430   3.414   0.717 -0.6901 -0.1758 -0.5711
 3816TIP3   OH232938   3.677   5.716   5.121 -0.0573 -0.4577 -0.0970
 3816TIP3    H132939   3.709   5.635   5.081  0.1980 -0.8884  0.9469
 3816TIP3    H232940   3.666   5.776   5.047 -1.7229 -1.8905 -1.1005
 3817TIP3   OH232941   3.531   6.324  15.142 -0.3488  0.0668  0.1839
 3817TIP3    H132942   3.543   6.408  15.097 -0.1870  0.5154  1.0451
 3817TIP3    H232943   3.449   6.290  15.107 -0.5183  0.6837 -0.0375
 3818TIP3   OH232944   5.825   2.784   0.873  0.0479  0.1093 -0.2991
 3818TIP3    H132945   5.751   2.755   0.926  0.7912  0.8838  1.2005
 3818TIP3    H232946   5.819   2.731   0.793  0.3613 -2.9242  1.5620
 3819TIP3   OH232947   3.751   3.566   2.370 -0.2554 -0.2367 -0.0371
 3819TIP3    H132948   3.687   3.588   2.302  1.2401  0.9397 -1.1181
 3819TIP3    H232949   3.752   3.642   2.428  0.1658 -0.2447 -0.0302
 3820TIP3   OH232950   2.374   5.870   4.728 -0.0038 -0.8364 -0.4344
 3820TIP3    H132951   2.294   5.902   4.687  0.6616  1.6153  0.0056
 3820TIP3    H232952   2.417   5.817   4.661 -0.7995 -0.1351 -1.5268
 3821TIP3   OH232953   5.298   2.586   0.736  0.3253 -0.0071  0.5929
 3821TIP3    H132954   5.271   2.495   0.753  0.5120  0.1034  1.5393
 3821TIP3    H232955   5.392   2.581   0.721  0.6590  0.2233  2.3996
 3822TIP3   OH232956   5.923   3.358   1.404  0.3056  0.2886  0.0963
 3822TIP3    H132957   6.007   3.360   1.450  0.0635  0.2807  0.5463
 3822TIP3    H232958   5.881   3.277   1.434  0.1680  0.2547 -0.1840
 3823TIP3   OH232959   5.586   6.619  17.094  0.0119  0.7709 -0.7280
 3823TIP3    H132960   5.594   6.697  17.040 -0.6751  1.1353 -0.3128
 3823TIP3    H232961   5.545   6.554  17.037  0.3500  0.7929 -0.9935
 3824TIP3   OH232962   3.817   3.083  16.597  0.1004 -0.7965  0.0915
 3824TIP3    H132963   3.780   3.171  16.608  2.2581  0.3936 -1.3556
 3824TIP3    H232964   3.751   3.035  16.547 -1.7917 -0.5661  2.2099
 3825TIP3   OH232965   6.235   5.836  13.156  0.4954 -0.0053 -0.5992
 3825TIP3    H132966   6.235   5.755  13.206  1.5876  0.3372 -0.0061
 3825TIP3    H232967   6.142   5.858  13.145  0.2215 -0.6450  0.3664
 3826TIP3   OH232968   2.521   6.682   4.636  0.7383  0.1788 -0.0963
 3826TIP3    H132969   2.472   6.694   4.555  0.9027  2.1654  0.0384
 3826TIP3    H232970   2.563   6.597   4.627 -0.2582 -0.1860 -1.5428
 3827TIP3   OH232971   6.658   4.796   1.298  0.3442 -0.4422 -0.1585
 3827TIP3    H132972   6.597   4.812   1.370 -0.0466 -0.0079 -0.5803
 3827TIP3    H232973   6.691   4.883   1.275 -0.9581 -0.3291 -1.7450
 3828TIP3   OH232974   0.390   3.090  14.912  0.1560 -0.1236 -0.5330
 3828TIP3    H132975   0.473   3.131  14.888 -0.0711  0.4311 -0.3910
 3828TIP3    H232976   0.324   3.140  14.863 -0.0127 -1.2475 -1.4993
 3829TIP3   OH232977   4.238   3.780   0.949 -0.3108 -0.0237  0.8651
 3829TIP3    H132978   4.290   3.703   0.972 -1.8111 -1.1294  0.6987
 3829TIP3    H232979   4.161   3.775   1.006 -0.8192  0.9237  0.2926
 3830TIP3   OH232980   5.869   6.447  12.109  0.7821 -0.2539  0.2853
 3830TIP3    H132981   5.855   6.415  12.020  0.8934  1.1253 -0.2578
 3830TIP3    H232982   5.909   6.374  12.155  0.5545 -1.0521 -0.7452
 3831TIP3   OH232983   5.109   3.766  16.092  0.1718 -0.3198  0.1447
 3831TIP3    H132984   5.139   3.806  16.010 -1.8636 -0.9171 -0.9763
 3831TIP3    H232985   5.177   3.702  16.114  1.0571  0.2934 -0.7241
 3832TIP3   OH232986   0.350   2.595  14.188 -0.1184 -0.3699 -0.1351
 3832TIP3    H132987   0.370   2.634  14.273  0.3618  0.4202 -0.5926
 3832TIP3    H232988   0.433   2.561  14.157 -0.2496 -0.4692 -0.3777
 3833TIP3   OH232989   5.915   2.479   2.924  0.1035  0.0374  0.3031
 3833TIP3    H132990   5.990   2.525   2.884 -0.8113  0.3036 -1.1773
 3833TIP3    H232991   5.949   2.393   2.947  1.2520  0.6529  1.0475
 3834TIP3   OH232992   0.727   1.041   0.769  0.1222  0.0211 -0.3182
 3834TIP3    H132993   0.647   1.005   0.732 -0.3168  0.1079  0.5252
 3834TIP3    H232994   0.797   1.011   0.710 -0.4551 -0.5708 -0.7092
 3835TIP3   OH232995   2.551   2.199   3.598 -0.2557 -0.1937  0.1327
 3835TIP3    H132996   2.583   2.220   3.686 -1.6515 -1.2266  0.9155
 3835TIP3    H232997   2.505   2.278   3.570  2.5475  1.2099 -0.8841
 3836TIP3   OH232998   0.168   1.154   4.029 -0.0262 -0.1245 -0.1856
 3836TIP3    H132999   0.176   1.105   3.947 -0.4518  0.1297 -0.3832
 3836TIP3    H233000   0.231   1.225   4.022 -0.6427  0.3879 -0.6538
 3837TIP3   OH233001   5.392   5.903   5.265 -0.4998 -0.1180 -0.5415
 3837TIP3    H133002   5.310   5.857   5.283  1.0059 -3.2300 -1.0070
 3837TIP3    H233003   5.419   5.938   5.350 -0.2791 -2.7454  0.5580
 3838TIP3   OH233004   6.322   0.151   5.466  0.2445 -0.0332 -0.3087
 3838TIP3    H133005   6.353   0.097   5.394  0.1049 -0.6569  0.0875
 3838TIP3    H233006   6.235   0.116   5.487 -1.2439  2.3471 -2.0802
 3839TIP3   OH233007   5.694   1.710  12.449 -0.0623  0.1786  0.1023
 3839TIP3    H133008   5.700   1.804  12.435 -3.4543  0.7046  1.2249
 3839TIP3    H233009   5.783   1.684  12.475  1.3470  2.7051 -1.7565
 3840TIP3   OH233010   3.264   1.289   3.927 -0.4908 -0.3487  0.2899
 3840TIP3    H133011   3.192   1.337   3.885  1.7330  2.4384 -0.6312
 3840TIP3    H233012   3.249   1.303   4.021 -0.9679  0.4872  0.1032
 3841TIP3   OH233013   2.610   2.530   3.019 -0.1447  0.2072  0.3918
 3841TIP3    H133014   2.553   2.605   3.036  0.1947  0.6771 -0.4425
 3841TIP3    H233015   2.648   2.549   2.933  0.5077 -0.5739  0.4998
 3842TIP3   OH233016   6.495   0.457  14.873 -0.0970 -0.0711  0.3167
 3842TIP3    H133017   6.462   0.430  14.787  1.0267  0.7649 -0.4091
 3842TIP3    H233018   6.497   0.376  14.924 -0.8993 -0.5625 -0.3978
 3843TIP3   OH233019   6.812   5.122  10.101  0.0143  0.3312  0.0845
 3843TIP3    H133020   6.792   5.030  10.089 -0.6925  0.3245  1.1671
 3843TIP3    H233021   6.734   5.168  10.070  0.1076  0.5264  0.1334
 3844TIP3   OH233022   1.198   1.187   3.200 -0.0695  0.2905 -0.0862
 3844TIP3    H133023   1.211   1.222   3.112 -0.8895 -1.9378 -1.1642
 3844TIP3    H233024   1.200   1.264   3.257 -0.3100  1.8915 -2.1262
 3845TIP3   OH233025   4.168   3.962   3.033  0.1946  0.2202 -0.3689
 3845TIP3    H133026   4.136   3.890   3.086  0.7969  0.6070  0.5321
 3845TIP3    H233027   4.256   3.936   3.007 -0.4518 -0.4320 -2.0839
 3846TIP3   OH233028   2.681   0.592  14.703 -0.1859  0.0817 -0.2904
 3846TIP3    H133029   2.710   0.671  14.748 -1.1912  0.8648 -0.9713
 3846TIP3    H233030   2.591   0.578  14.733 -0.0067 -0.8406 -0.1446
 3847TIP3   OH233031   4.733   3.004   1.935  0.2561  0.1379  0.8709
 3847TIP3    H133032   4.787   3.004   2.015  0.3082  1.5114  0.8520
 3847TIP3    H233033   4.647   3.034   1.965  0.2264  0.4746  0.4520
 3848TIP3   OH233034   4.344   5.092  10.591 -0.7751 -0.3190 -0.1922
 3848TIP3    H133035   4.288   5.036  10.537 -1.1030  1.4311 -1.7673
 3848TIP3    H233036   4.373   5.161  10.531 -0.7015  1.4075  1.7466
 3849TIP3   OH233037   0.228   2.090   4.998  0.3780 -0.4542  0.6528
 3849TIP3    H133038   0.284   2.085   5.076 -0.1544 -0.0287  1.0623
 3849TIP3    H233039   0.183   2.174   5.005 -1.5127 -1.4587  1.1471
 3850TIP3   OH233040   3.769   1.888  10.846  0.1889 -0.8545 -0.3713
 3850TIP3    H133041   3.847   1.891  10.791  0.8740 -0.6263  0.5925
 3850TIP3    H233042   3.800   1.908  10.934 -1.4090  2.8490 -0.4484
 3851TIP3   OH233043   4.435   1.097  14.961 -0.5202  0.1273  1.0771
 3851TIP3    H133044   4.342   1.092  14.985 -0.7161  1.0473  0.5741
 3851TIP3    H233045   4.436   1.081  14.867 -0.2472  0.6965  0.9762
 3852TIP3   OH233046   1.374   3.015   2.975  0.0288 -0.1309 -0.5298
 3852TIP3    H133047   1.442   2.966   3.020  1.1702  0.0550 -1.9783
 3852TIP3    H233048   1.364   3.095   3.026 -0.5458 -1.0137  0.8065
 3853TIP3   OH233049   4.551   0.373   4.873  0.3578 -0.3080  0.9312
 3853TIP3    H133050   4.474   0.422   4.844 -0.2190 -1.3469  0.6716
 3853TIP3    H233051   4.528   0.282   4.858  1.9892 -0.5973 -0.0068
 3854TIP3   OH233052   4.619   6.489   3.328  0.4576 -0.0179  0.1298
 3854TIP3    H133053   4.667   6.571   3.338 -0.5193  0.6678 -0.7051
 3854TIP3    H233054   4.643   6.438   3.406 -1.1636  2.1650  2.2015
 3855TIP3   OH233055   5.652   3.500  16.904 -0.1642 -0.1947  0.0530
 3855TIP3    H133056   5.593   3.457  16.843  1.1813 -0.1021 -1.3719
 3855TIP3    H233057   5.727   3.442  16.911  0.5465  0.6993  0.1131
 3856TIP3   OH233058   3.653   1.434   4.998 -0.4028 -0.3070  0.0375
 3856TIP3    H133059   3.578   1.387   5.034 -1.0407 -0.1046 -0.9784
 3856TIP3    H233060   3.633   1.526   5.016  0.3529 -0.3310  1.1144
 3857TIP3   OH233061   2.845   3.217   1.375  0.3437 -0.5202 -0.3140
 3857TIP3    H133062   2.886   3.304   1.371  1.2253 -0.9516 -0.9107
 3857TIP3    H233063   2.778   3.219   1.308  0.4714 -0.3543 -0.4372
 3858TIP3   OH233064   4.340   0.007   3.632 -0.4860 -0.0714 -0.0771
 3858TIP3    H133065   4.306   0.028   3.719 -1.1022 -0.0071 -0.3296
 3858TIP3    H233066   4.295   0.068   3.573  0.1126  0.0533 -0.4137
 3859TIP3   OH233067   0.411   5.336   1.942  0.7564  0.4607 -0.3704
 3859TIP3    H133068   0.506   5.334   1.932  0.6917  0.5558 -1.0429
 3859TIP3    H233069   0.379   5.272   1.879  0.2941  1.5012 -1.2143
 3860TIP3   OH233070   0.938   3.985   0.941 -0.1468 -0.1212 -0.1937
 3860TIP3    H133071   0.898   4.046   1.002  0.4323 -1.0494  1.1527
 3860TIP3    H233072   1.032   4.004   0.945 -0.0451 -0.5628 -0.3756
 3861TIP3   OH233073   6.156   1.494  16.633 -0.3770  0.0928 -0.4613
 3861TIP3    H133074   6.185   1.417  16.584 -1.7966 -0.2740 -0.7557
 3861TIP3    H233075   6.200   1.486  16.717 -0.7153 -1.2072 -0.3801
 3862TIP3   OH233076   4.256   1.093   0.549 -0.3581  0.2006 -0.1700
 3862TIP3    H133077   4.304   1.075   0.630  1.6912 -0.2796 -1.4204
 3862TIP3    H233078   4.277   1.020   0.491 -0.2473  1.4581 -1.7780
 3863TIP3   OH233079   0.837   4.883   1.012  0.5990  0.0019 -0.1253
 3863TIP3    H133080   0.854   4.864   1.105 -0.3492 -1.4858 -0.2303
 3863TIP3    H233081   0.922   4.909   0.977  1.6118 -2.2614  0.5050
 3864TIP3   OH233082   4.740   2.088   0.478  0.1811 -0.3055  0.4491
 3864TIP3    H133083   4.719   2.015   0.537 -1.5748 -0.6341 -0.5263
 3864TIP3    H233084   4.756   2.162   0.537  1.0982 -1.2370  1.4229
 3865TIP3   OH233085   6.137   1.274   0.175 -0.1499 -0.0565 -0.5565
 3865TIP3    H133086   6.045   1.294   0.192 -0.0643  0.5839 -0.7917
 3865TIP3    H233087   6.136   1.192   0.127 -0.5820 -0.1988 -0.3073
 3866TIP3   OH233088   2.297   4.143   2.989  0.1275  0.0581 -0.4693
 3866TIP3    H133089   2.294   4.056   3.029  0.0501 -0.5477 -1.7666
 3866TIP3    H233090   2.368   4.188   3.036  2.3464 -1.7695 -1.8584
 3867TIP3   OH233091   2.013   1.197   2.214 -0.0701  0.0478 -0.5225
 3867TIP3    H133092   1.946   1.161   2.156 -0.5000 -1.9644  1.0963
 3867TIP3    H233093   1.964   1.245   2.281  0.2138 -0.0089 -0.2683
 3868TIP3   OH233094   5.802   5.232   0.717 -0.4471  0.1928  0.4159
 3868TIP3    H133095   5.712   5.264   0.708 -0.0111  1.1468 -0.8305
 3868TIP3    H233096   5.840   5.288   0.785 -0.0428  1.6245 -0.9230
 3869TIP3   OH233097   1.329   0.946  15.991 -0.3423  0.2061  0.2394
 3869TIP3    H133098   1.302   0.854  15.982  0.5356  0.0625 -1.3684
 3869TIP3    H233099   1.398   0.944  16.057  0.5215 -0.5302 -0.6315
 3870TIP3   OH233100   6.116   2.346   6.912 -0.0795  0.4546  0.2900
 3870TIP3    H133101   6.149   2.351   6.822 -1.2928  1.9353 -0.1197
 3870TIP3    H233102   6.097   2.253   6.925 -1.2083  0.3798 -1.5154
 3871TIP3   OH233103   1.039   4.234  10.924  0.2285  0.5569 -0.1072
 3871TIP3    H133104   1.088   4.218  11.004  0.5944  0.0829 -0.4226
 3871TIP3    H233105   1.055   4.326  10.903 -1.5689  1.3178  1.5117
 3872TIP3   OH233106   2.178   6.110   1.441  0.2232 -0.2222  0.0293
 3872TIP3    H133107   2.117   6.037   1.427 -0.5201  0.4068 -0.0830
 3872TIP3    H233108   2.197   6.108   1.535 -1.4145  0.6708  0.4159
 3873TIP3   OH233109   3.301   3.269   3.709 -0.3321  0.3871 -0.1834
 3873TIP3    H133110   3.256   3.191   3.676 -0.7681  1.2443 -1.7112
 3873TIP3    H233111   3.369   3.286   3.644 -0.0703  1.1292  0.2786
 3874TIP3   OH233112   4.886   2.543   0.644 -0.2431 -0.0047  0.1309
 3874TIP3    H133113   4.959   2.594   0.607 -0.1481  0.2151  0.6102
 3874TIP3    H233114   4.916   2.520   0.732  0.6280 -2.7458 -0.7759
 3875TIP3   OH233115   5.144   3.752   4.923  0.5204 -0.2315 -0.5538
 3875TIP3    H133116   5.115   3.732   5.012  1.2487 -0.2447 -0.3186
 3875TIP3    H233117   5.231   3.714   4.916 -0.1199 -1.5774 -1.7803
 3876TIP3   OH233118   5.979   2.895   0.584 -0.2307 -0.2728  0.2229
 3876TIP3    H133119   5.885   2.906   0.593 -0.4119 -2.0949  0.9851
 3876TIP3    H233120   5.995   2.906   0.490 -1.5659 -2.1390 -0.2812
 3877TIP3   OH233121   3.944   0.136  13.862 -0.1803  0.3124  0.2577
 3877TIP3    H133122   3.968   0.162  13.952  0.6759  1.0322 -0.1610
 3877TIP3    H233123   3.904   0.215  13.825 -0.8082 -0.0771  0.0879
 3878TIP3   OH233124   2.689   2.034   1.097  0.4822  0.6719  0.5925
 3878TIP3    H133125   2.616   1.983   1.060 -1.1943  0.6961  3.5783
 3878TIP3    H233126   2.764   1.975   1.093  0.1112  0.2703 -1.6084
 3879TIP3   OH233127   1.220   3.731   1.670  0.3045 -0.6844  0.0454
 3879TIP3    H133128   1.223   3.667   1.741  1.3089  0.7795  1.3933
 3879TIP3    H233129   1.198   3.814   1.713 -1.4297 -0.1663 -1.7111
 3880TIP3   OH233130   5.697   3.212  17.118 -0.1999  0.0335 -0.3050
 3880TIP3    H133131   5.753   3.233  17.043  1.4894  0.6110  1.0540
 3880TIP3    H233132   5.748   3.149  17.169 -1.0746  0.0693  0.6519
 3881TIP3   OH233133   1.069   5.971  15.469  0.4892 -0.1218 -0.3706
 3881TIP3    H133134   1.022   6.024  15.405  0.9736 -0.5786 -1.1173
 3881TIP3    H233135   0.999   5.931  15.522  0.0541 -0.3935 -1.1399
 3882TIP3   OH233136   1.100   4.830  11.382 -0.1275 -0.1288 -0.5750
 3882TIP3    H133137   1.128   4.910  11.336  0.2389  2.4299  3.5403
 3882TIP3    H233138   1.015   4.853  11.420  0.5001 -1.1628  1.6348
 3883TIP3   OH233139   3.529   0.905  11.845 -0.3176  0.7302 -0.7614
 3883TIP3    H133140   3.554   0.845  11.915 -2.4577  0.2096 -0.3725
 3883TIP3    H233141   3.465   0.964  11.885  0.5479  2.2897 -1.5667
 3884TIP3   OH233142   4.147   4.922   4.220 -0.8634  0.5355  0.2706
 3884TIP3    H133143   4.221   4.981   4.227 -1.1436  0.8726  0.4093
 3884TIP3    H233144   4.144   4.896   4.128 -0.7868  0.7961  0.1964
 3885TIP3   OH233145   4.750   3.459  14.786 -0.5183 -0.2840 -0.6553
 3885TIP3    H133146   4.662   3.475  14.819 -0.6397 -0.5104 -0.8675
 3885TIP3    H233147   4.778   3.543  14.749 -0.1694  0.1272  0.5021
 3886TIP3   OH233148   5.838   0.479  11.427 -0.2334 -0.1759  0.4387
 3886TIP3    H133149   5.835   0.435  11.342  0.6207 -0.8150  0.7290
 3886TIP3    H233150   5.750   0.516  11.437 -0.6174 -0.8312 -0.3319
 3887TIP3   OH233151   6.211   0.981  11.650  0.5699  0.4449  0.0583
 3887TIP3    H133152   6.298   0.942  11.641 -0.0956 -0.7556 -1.8347
 3887TIP3    H233153   6.207   1.046  11.579 -0.2718  0.0561 -0.2641
 3888TIP3   OH233154   3.858   2.229  17.224 -0.7307 -0.1382  0.6670
 3888TIP3    H133155   3.810   2.227  17.141 -0.3336  1.9557  0.3149
 3888TIP3    H233156   3.791   2.251  17.290 -1.1975 -2.5788  1.0939
 3889TIP3   OH233157   5.682   5.312   3.580  0.3670  0.0064  0.3481
 3889TIP3    H133158   5.714   5.399   3.603  1.7439 -0.2130 -0.6156
 3889TIP3    H233159   5.720   5.254   3.647  0.1421  0.0382  0.5026
 3890TIP3   OH233160   6.283   0.519   3.953 -0.3129 -0.4238  0.1850
 3890TIP3    H133161   6.202   0.469   3.965  0.8426 -2.2388  0.8159
 3890TIP3    H233162   6.309   0.501   3.863  0.3049 -1.3026  0.5302
 3891TIP3   OH233163   5.581   0.646   0.447 -0.2687 -0.2432 -0.6394
 3891TIP3    H133164   5.565   0.646   0.353  1.1206 -0.0743 -0.8859
 3891TIP3    H233165   5.610   0.735   0.467  1.6971 -0.8800 -0.4796
 3892TIP3   OH233166   4.219   4.499   5.824  0.3752  0.2048  0.6074
 3892TIP3    H133167   4.162   4.514   5.899  0.6794  0.8979  0.7085
 3892TIP3    H233168   4.285   4.568   5.829  0.1459  0.5302 -0.5311
 3893TIP3   OH233169   0.910   2.087   0.811  0.2658 -0.3745  0.1558
 3893TIP3    H133170   0.859   2.007   0.826 -0.0123 -0.0575  0.9265
 3893TIP3    H233171   0.966   2.094   0.888  0.2490  0.2081  0.1151
 3894TIP3   OH233172   2.177   6.115  11.559  0.1564 -0.5008 -0.4463
 3894TIP3    H133173   2.174   6.143  11.651 -0.5741  2.4013 -1.2704
 3894TIP3    H233174   2.086   6.121  11.530  0.6888  0.8218 -1.9353
 3895TIP3   OH233175   3.362   0.645   4.055  0.0844 -0.1220 -0.0628
 3895TIP3    H133176   3.452   0.617   4.038  0.2768  0.2707  0.2951
 3895TIP3    H233177   3.371   0.719   4.115 -0.5097 -0.4871  0.4887
 3896TIP3   OH233178   4.153   3.408   0.879  0.4222  0.2036  0.1037
 3896TIP3    H133179   4.226   3.439   0.825  0.8932 -0.9895  0.0168
 3896TIP3    H233180   4.098   3.359   0.819 -1.0631  1.9858 -0.0646
 3897TIP3   OH233181   5.337   1.004  11.505  0.2991 -0.5544  0.0793
 3897TIP3    H133182   5.377   1.002  11.592 -0.3422 -1.3056  0.3655
 3897TIP3    H233183   5.245   1.021  11.521  0.2049 -0.5294 -0.4655
 3898TIP3   OH233184   4.792   1.229   1.093  0.2061  0.2069 -0.0941
 3898TIP3    H133185   4.799   1.172   1.169 -0.5114 -0.2599 -0.3643
 3898TIP3    H233186   4.804   1.317   1.128  2.5411 -0.1563  0.1445
 3899TIP3   OH233187   6.135   0.068   3.875  0.1380 -0.1424 -0.1644
 3899TIP3    H133188   6.103   0.096   3.960  0.6993 -0.8599  0.2910
 3899TIP3    H233189   6.109  -0.024   3.868 -0.8351  0.1897 -1.2223
 3900TIP3   OH233190   0.610   5.150  15.112 -0.4715 -0.4887  0.3687
 3900TIP3    H133191   0.679   5.084  15.110 -0.2826 -0.2851 -0.0081
 3900TIP3    H233192   0.561   5.132  15.192  2.5753  1.9795  3.0299
 3901TIP3   OH233193   3.055   4.825  15.677 -0.0980 -0.2047 -0.5220
 3901TIP3    H133194   3.043   4.869  15.593  1.5238  0.6010 -0.3702
 3901TIP3    H233195   2.997   4.872  15.737 -0.4461 -0.0802 -0.9440
 3902TIP3   OH233196   5.367   2.626   1.612 -0.3512 -0.0948 -0.2041
 3902TIP3    H133197   5.412   2.660   1.690  1.0917 -0.2819 -0.9132
 3902TIP3    H233198   5.325   2.545   1.641  2.2748 -1.5420 -0.1387
 3903TIP3   OH233199   4.954   3.273  11.697 -0.0110 -0.5171  0.3909
 3903TIP3    H133200   5.028   3.301  11.750 -0.1101  0.9786 -0.2041
 3903TIP3    H233201   4.945   3.341  11.630 -1.7070 -0.8245  0.2455
 3904TIP3   OH233202   6.561   0.571  13.727 -0.0636 -0.0036 -0.0809
 3904TIP3    H133203   6.562   0.475  13.720 -1.4682  0.0267 -1.0282
 3904TIP3    H233204   6.591   0.602  13.642 -0.7010  0.3893 -0.1688
 3905TIP3   OH233205   2.406   1.157   0.574  0.6542  0.1088  0.5912
 3905TIP3    H133206   2.410   1.123   0.663  0.3217  2.0089  1.3850
 3905TIP3    H233207   2.489   1.203   0.561  0.3945  0.4806  0.1953
 3906TIP3   OH233208   0.822   4.432  10.731 -0.2754 -0.2265  0.6284
 3906TIP3    H133209   0.882   4.506  10.747  1.4519 -1.4546  0.1814
 3906TIP3    H233210   0.784   4.414  10.816 -1.3928  1.6894  0.5892
 3907TIP3   OH233211   1.665   0.454  13.595  0.1125 -0.2583  0.0957
 3907TIP3    H133212   1.740   0.404  13.627 -0.8874 -0.7683  1.8140
 3907TIP3    H233213   1.656   0.429  13.503  1.8922 -0.3413 -0.0868
 3908TIP3   OH233214   3.620   6.633   5.334 -0.0186 -0.6530  0.2811
 3908TIP3    H133215   3.682   6.585   5.280 -1.4674 -0.3033 -1.8000
 3908TIP3    H233216   3.554   6.568   5.360  0.6901 -0.8290  1.7171
 3909TIP3   OH233217   0.085   3.540   4.716 -0.1829  0.2459  0.0184
 3909TIP3    H133218   0.173   3.575   4.698 -0.7890  1.2319 -1.1259
 3909TIP3    H233219   0.082   3.458   4.667 -0.3763  0.9044 -1.1033
 3910TIP3   OH233220   0.291   1.725   4.983  0.1071  0.5681 -0.3913
 3910TIP3    H133221   0.252   1.699   4.900  0.1689  0.7719 -0.4837
 3910TIP3    H233222   0.343   1.803   4.963  1.2910 -0.2104 -0.4451
 3911TIP3   OH233223   1.744   5.957   1.929  0.2374 -0.1664  0.5978
 3911TIP3    H133224   1.766   6.010   1.853 -2.3368 -0.9168 -0.7693
 3911TIP3    H233225   1.691   6.015   1.984  0.2939 -0.2732  0.7639
 3912TIP3   OH233226   5.692   0.778  11.181 -0.1502  0.4727 -0.1760
 3912TIP3    H133227   5.641   0.750  11.105 -0.3551 -1.8898  0.7339
 3912TIP3    H233228   5.774   0.730  11.175  0.5652  1.5965  0.1988
 3913TIP3   OH233229   3.609   5.252  10.390  0.0821 -0.3396 -0.8493
 3913TIP3    H133230   3.668   5.288  10.456  0.3272 -0.3843 -1.0449
 3913TIP3    H233231   3.667   5.215  10.324 -0.1076 -2.5667  0.1298
 3914TIP3   OH233232   3.672   6.429  13.060  0.1245  0.0250  0.0681
 3914TIP3    H133233   3.599   6.475  13.102 -0.0794 -0.3846  0.1596
 3914TIP3    H233234   3.696   6.361  13.122  0.0285 -0.3819 -0.3402
 3915TIP3   OH233235   3.271   5.674   0.860  0.4196  0.1224 -0.0995
 3915TIP3    H133236   3.248   5.644   0.948  1.1871 -0.2533 -0.0209
 3915TIP3    H233237   3.187   5.692   0.818  0.0604  1.2294  1.0230
 3916TIP3   OH233238   4.148   5.566   5.582 -0.5226 -0.9034 -0.3845
 3916TIP3    H133239   4.177   5.652   5.613 -0.2140 -0.4652 -1.8177
 3916TIP3    H233240   4.054   5.578   5.563 -0.2409 -0.5301 -1.6553
 3917TIP3   OH233241   2.057   4.049  10.969  0.2751 -0.2162 -0.3852
 3917TIP3    H133242   2.128   4.056  10.906  0.1499  1.7946 -0.3776
 3917TIP3    H233243   1.978   4.038  10.916  0.1279  1.8161 -0.6560
 3918TIP3   OH233244   4.857   0.728  14.291 -0.0842  0.7850  0.5764
 3918TIP3    H133245   4.841   0.795  14.358 -2.5134 -1.1637  2.0975
 3918TIP3    H233246   4.950   0.707  14.300  0.8221  3.9516 -0.0842
 3919TIP3   OH233247   3.980   3.816  15.726 -0.2242  0.5968 -0.7047
 3919TIP3    H133248   3.907   3.780  15.675 -1.0586 -0.4307  1.0924
 3919TIP3    H233249   3.979   3.910  15.708 -2.2199  0.6527 -0.4980
 3920TIP3   OH233250   3.663   4.180  16.032  0.4326 -0.4873  0.2523
 3920TIP3    H133251   3.620   4.251  15.984 -2.5967 -1.2445  1.6277
 3920TIP3    H233252   3.726   4.225  16.088  1.8455  0.6478 -2.0644
 3921TIP3   OH233253   1.404   5.698  17.015 -0.4778  0.2514  0.1836
 3921TIP3    H133254   1.382   5.736  17.100  0.2346 -0.3275  0.6433
 3921TIP3    H233255   1.414   5.774  16.957 -0.5725  0.6754  0.7166
 3922TIP3   OH233256   4.414   4.142  10.980 -0.5865 -0.0187 -0.2864
 3922TIP3    H133257   4.469   4.181  11.048  1.3107 -0.7525 -1.3330
 3922TIP3    H233258   4.364   4.215  10.944  0.4937  0.8712 -0.0163
 3923TIP3   OH233259   0.702   0.984   4.157  0.0143  0.2742  0.0539
 3923TIP3    H133260   0.772   0.939   4.110 -1.0699 -1.5054  0.0431
 3923TIP3    H233261   0.724   0.971   4.250  1.2118  2.2548  0.0893
 3924TIP3   OH233262   3.624   0.348  13.496 -0.1842  0.0087 -0.3907
 3924TIP3    H133263   3.699   0.320  13.444  0.0814 -1.0349  0.5305
 3924TIP3    H233264   3.550   0.297  13.462  0.1395 -1.2582  0.7348
 3925TIP3   OH233265   6.816   2.574   1.637  0.2061  0.2265 -0.4817
 3925TIP3    H133266   6.862   2.552   1.719 -0.6888 -0.1021 -0.0477
 3925TIP3    H233267   6.774   2.492   1.611 -1.2127  0.8174 -0.1436
 3926TIP3   OH233268   1.353   3.845  16.774  0.0525  0.1590  0.0063
 3926TIP3    H133269   1.332   3.847  16.867 -1.2396  1.5517 -0.2715
 3926TIP3    H233270   1.340   3.936  16.745 -0.3273 -0.4038 -1.6727
 3927TIP3   OH233271   5.256   2.793  12.353 -0.3922 -0.6552  0.5880
 3927TIP3    H133272   5.169   2.825  12.329  0.5298  1.6358 -0.0097
 3927TIP3    H233273   5.244   2.750  12.438 -1.7993  1.5358  1.5890
 3928TIP3   OH233274   5.303   3.567  16.035 -0.4091 -0.0709  0.7272
 3928TIP3    H133275   5.357   3.563  15.956  0.4460  0.8966  1.2343
 3928TIP3    H233276   5.319   3.483  16.079  1.8313  0.6823  1.5429
 3929TIP3   OH233277   4.084   5.921   4.378 -0.3208  0.3523 -0.7241
 3929TIP3    H133278   4.107   6.005   4.418  0.5441 -0.0072 -0.4296
 3929TIP3    H233279   4.143   5.858   4.419 -0.3999 -0.2684 -1.5303
 3930TIP3   OH233280   5.492   5.997   0.674  0.4224 -0.1791  0.4356
 3930TIP3    H133281   5.537   6.008   0.758  1.7703  2.3629 -0.5148
 3930TIP3    H233282   5.400   5.992   0.697  0.8857 -1.8650  2.1907
 3931TIP3   OH233283   2.933   5.664  12.886 -0.2967  0.0234  0.8384
 3931TIP3    H133284   2.972   5.577  12.879 -0.8072 -0.3189  2.0117
 3931TIP3    H233285   2.964   5.711  12.808  0.5712 -0.9655  0.5714
 3932TIP3   OH233286   6.065   4.497  15.630 -0.0314 -0.5140  0.1894
 3932TIP3    H133287   6.134   4.526  15.571 -1.8174  0.6982 -1.4135
 3932TIP3    H233288   6.059   4.402  15.615  0.1104 -0.3561 -0.9699
 3933TIP3   OH233289   3.794   0.893   5.961 -0.0692  0.2027 -0.3753
 3933TIP3    H133290   3.711   0.923   5.997 -0.6445 -1.4700 -0.2610
 3933TIP3    H233291   3.860   0.932   6.019 -0.8399  0.2471  0.4981
 3934TIP3   OH233292   0.706   5.259   2.007  0.4244 -0.6124  0.5839
 3934TIP3    H133293   0.693   5.174   1.966  0.9782 -0.9097  1.0095
 3934TIP3    H233294   0.797   5.281   1.986  0.4171 -0.3301  0.8534
 3935TIP3   OH233295   0.029   0.899  11.545  0.1927  0.3605  0.1541
 3935TIP3    H133296  -0.054   0.853  11.553 -0.1585  0.8222 -0.6917
 3935TIP3    H233297   0.077   0.849  11.478 -0.0880  1.0555 -0.5805
 3936TIP3   OH233298   5.037   5.205  14.552 -0.0067 -0.2575  0.8172
 3936TIP3    H133299   5.013   5.286  14.507  0.5030  0.2729  1.4814
 3936TIP3    H233300   4.963   5.146  14.536 -0.2470  0.2326  0.0806
 3937TIP3   OH233301   4.297   5.816  16.235 -0.4535  0.2415 -0.0068
 3937TIP3    H133302   4.344   5.735  16.214 -2.3836 -0.8909 -0.1392
 3937TIP3    H233303   4.265   5.802  16.324 -0.4246  1.0642  0.1359
 3938TIP3   OH233304   2.834   3.249   6.224 -0.2919  0.0161  0.0144
 3938TIP3    H133305   2.822   3.321   6.162 -0.2343 -0.5737 -0.6872
 3938TIP3    H233306   2.910   3.202   6.192  0.4559  0.3742  1.2003
 3939TIP3   OH233307   5.649   3.405   4.104 -0.2011 -0.5503  0.0364
 3939TIP3    H133308   5.629   3.452   4.185  0.3014  0.3001 -0.3196
 3939TIP3    H233309   5.579   3.341   4.096 -0.6262 -0.1994  0.8035
 3940TIP3   OH233310   6.323   5.979  16.521 -0.7199 -0.3242 -0.4430
 3940TIP3    H133311   6.356   6.060  16.482  0.4562 -0.7700 -0.4055
 3940TIP3    H233312   6.297   5.925  16.446 -0.2802 -0.4134 -0.5375
 3941TIP3   OH233313   3.143   2.964   1.531 -0.5183 -0.4020  0.0934
 3941TIP3    H133314   3.065   2.972   1.476 -0.3302 -1.0244 -0.2646
 3941TIP3    H233315   3.109   2.971   1.621 -0.8209  0.6626 -0.0808
 3942TIP3   OH233316   3.858   5.509   3.321 -0.1409  0.1286 -0.0148
 3942TIP3    H133317   3.922   5.440   3.339 -2.0467 -2.4856 -2.4890
 3942TIP3    H233318   3.911   5.585   3.297  2.0695 -1.5993 -0.9191
 3943TIP3   OH233319   1.001   6.780  12.409 -0.5726  0.2607  0.1784
 3943TIP3    H133320   0.914   6.813  12.428 -0.3785  0.0215  1.6152
 3943TIP3    H233321   0.999   6.758  12.316 -2.1637 -0.1295  0.2796
 3944TIP3   OH233322   0.846   0.378   3.669 -0.0803 -0.0944  0.1912
 3944TIP3    H133323   0.836   0.454   3.725 -1.3010  0.4216 -0.6873
 3944TIP3    H233324   0.828   0.410   3.580  2.3429 -0.7497 -0.6373
 3945TIP3   OH233325   1.457   1.671   3.780  0.2887  0.2862  0.2165
 3945TIP3    H133326   1.477   1.744   3.722 -0.3170 -0.0357 -0.4038
 3945TIP3    H233327   1.491   1.699   3.865  0.2988  1.1761 -0.0663
 3946TIP3   OH233328   0.271   6.205   4.600 -0.1703 -0.2995 -0.0051
 3946TIP3    H133329   0.316   6.201   4.685  1.8965  2.1466 -0.8345
 3946TIP3    H233330   0.327   6.153   4.542  0.8816  1.5188 -0.7120
 3947TIP3   OH233331   2.739   1.993   2.717 -0.2712 -0.5014 -0.5413
 3947TIP3    H133332   2.720   1.907   2.755 -0.8661 -0.4794 -0.7781
 3947TIP3    H233333   2.713   1.985   2.626 -1.3723  0.2625 -0.3090
 3948TIP3   OH233334   1.030   3.680  17.216  0.1373 -0.1901  0.0152
 3948TIP3    H133335   0.936   3.665  17.220  0.2210 -0.7182  0.0685
 3948TIP3    H233336   1.039   3.775  17.215 -0.3575 -0.0944  1.3898
 3949TIP3   OH233337   2.977   0.381  17.018  0.2529 -0.8059  0.5918
 3949TIP3    H133338   2.882   0.374  17.004  0.5957 -2.5970 -1.3319
 3949TIP3    H233339   2.988   0.461  17.069 -2.1251  0.7930 -1.1703
 3950TIP3   OH233340   1.192   2.843   4.638 -0.1727 -0.0874 -0.1393
 3950TIP3    H133341   1.226   2.888   4.716  0.2739  1.3357 -1.1108
 3950TIP3    H233342   1.169   2.756   4.669 -3.4063  1.4838  2.4412
 3951TIP3   OH233343   4.298   0.010   5.995 -0.2911 -0.3268  0.1931
 3951TIP3    H133344   4.378   0.048   6.033 -0.1081 -0.5350  0.0197
 3951TIP3    H233345   4.227   0.063   6.031  0.1277  2.4379 -2.6184
 3952TIP3   OH233346   3.229   4.715  13.654  0.0464 -0.0738  0.0381
 3952TIP3    H133347   3.171   4.726  13.579  2.2156  1.4589 -1.5296
 3952TIP3    H233348   3.299   4.658  13.623 -0.4292 -1.7593  1.8483
 3953TIP3   OH233349   5.175   5.937  13.529  0.7284  0.8505 -0.0374
 3953TIP3    H133350   5.083   5.960  13.542  0.3074  1.2406 -3.0673
 3953TIP3    H233351   5.173   5.855  13.480  2.0282  0.4815  0.4935
 3954TIP3   OH233352   0.874   5.668  16.454 -0.0796  0.2359 -0.0279
 3954TIP3    H133353   0.916   5.588  16.425 -1.9826 -0.0843 -2.1228
 3954TIP3    H233354   0.795   5.639  16.499  0.3620  0.9286  1.2794
 3955TIP3   OH233355   2.153   0.989   4.454  0.2616 -1.0448 -0.1767
 3955TIP3    H133356   2.201   1.026   4.380  0.1049 -1.2368 -0.3739
 3955TIP3    H233357   2.062   0.984   4.425  0.0748 -0.4570  0.2816
 3956TIP3   OH233358   0.282   1.362  13.052 -0.1165  0.1544 -0.2656
 3956TIP3    H133359   0.275   1.325  13.140  0.3046  1.3229  0.2704
 3956TIP3    H233360   0.243   1.295  12.995  0.4026 -1.0069  0.6909
 3957TIP3   OH233361   2.020   5.939  15.231 -0.6101 -0.3313 -0.0002
 3957TIP3    H133362   2.081   5.875  15.193  0.8316  0.8656  0.2199
 3957TIP3    H233363   1.956   5.886  15.277 -0.4311 -1.6882 -1.2282
 3958TIP3   OH233364   3.162   3.264   5.550 -0.0299  0.3375 -0.3622
 3958TIP3    H133365   3.162   3.357   5.572  0.4837  0.1885  0.2603
 3958TIP3    H233366   3.194   3.220   5.628 -0.6672 -0.4054 -0.5029
 3959TIP3   OH233367   1.321   1.523   0.189 -0.1975  0.1735 -0.3314
 3959TIP3    H133368   1.410   1.557   0.183  1.0803 -2.4818  1.3755
 3959TIP3    H233369   1.310   1.471   0.109  0.6416 -1.1184  0.3431
 3960TIP3   OH233370   1.066   1.321  10.815  0.4873 -0.3281 -0.1673
 3960TIP3    H133371   1.117   1.371  10.752 -1.0354  1.1776 -0.2681
 3960TIP3    H233372   1.129   1.260  10.854  1.8932  0.0994 -1.6712
 3961TIP3   OH233373   2.846   3.741  14.359 -0.3281 -0.1482 -0.3124
 3961TIP3    H133374   2.776   3.807  14.358  0.9878  1.3473  1.0477
 3961TIP3    H233375   2.862   3.725  14.452  1.5177 -0.0264 -0.5838
 3962TIP3   OH233376   4.186   6.726  11.411  0.2352  0.5499 -0.0616
 3962TIP3    H133377   4.226   6.694  11.330  0.9640  1.6204 -0.1603
 3962TIP3    H233378   4.261   6.752  11.465 -0.0844 -2.3668  2.0032
 3963TIP3   OH233379   0.542   5.661  12.671 -0.2178  0.0151  0.2092
 3963TIP3    H133380   0.636   5.676  12.657 -0.2831  0.0614 -0.1690
 3963TIP3    H233381   0.503   5.669  12.584 -0.5036 -0.5224  0.2835
 3964TIP3   OH233382   2.855   5.903  13.482  0.1306  0.0073  0.3881
 3964TIP3    H133383   2.882   5.868  13.567  1.5145  0.3783  0.1165
 3964TIP3    H233384   2.833   5.994  13.499 -2.0040 -0.5328  0.7986
 3965TIP3   OH233385   1.861   1.432  14.137  0.4585 -0.1618  0.3071
 3965TIP3    H133386   1.887   1.434  14.045 -0.4545 -0.3408  0.0364
 3965TIP3    H233387   1.882   1.344  14.166 -0.5695 -0.5676 -0.1362
 3966TIP3   OH233388   6.392   4.623   5.246  0.2171  0.5095 -0.4560
 3966TIP3    H133389   6.464   4.619   5.308  1.1782  1.6894 -1.4434
 3966TIP3    H233390   6.351   4.708   5.262 -1.0521 -0.1885  0.1624
 3967TIP3   OH233391   6.498   2.469   5.654 -0.3405 -0.3703  0.3249
 3967TIP3    H133392   6.566   2.442   5.592 -0.6295  0.6222 -0.4502
 3967TIP3    H233393   6.533   2.446   5.740  0.8661 -0.0909 -0.0792
 3968TIP3   OH233394   2.868   1.064   6.168  0.2669  0.4911 -0.0908
 3968TIP3    H133395   2.889   1.026   6.253  0.2877  1.3595  0.3045
 3968TIP3    H233396   2.944   1.046   6.114  0.3571  0.1468  0.1450
 3969TIP3   OH233397   0.249   4.310   1.577 -0.1101  0.4585  0.1921
 3969TIP3    H133398   0.264   4.254   1.501  1.4136 -1.2197  1.6445
 3969TIP3    H233399   0.232   4.397   1.539  2.0036  0.0172 -2.0410
 3970TIP3   OH233400   2.846   4.426  12.724 -0.1055  0.5171 -0.0984
 3970TIP3    H133401   2.808   4.483  12.658 -1.1083 -1.5648 -1.4052
 3970TIP3    H233402   2.774   4.370  12.752  1.2192 -1.3070 -0.1958
 3971TIP3   OH233403   2.029   0.432   2.983  0.0732  0.0659  0.9153
 3971TIP3    H133404   2.083   0.355   3.002 -2.3089 -2.6769 -2.1467
 3971TIP3    H233405   1.948   0.417   3.032 -0.5593  0.4005  0.0001
 3972TIP3   OH233406   1.666   2.038  11.941 -0.3040  0.4456  0.0087
 3972TIP3    H133407   1.622   1.986  11.873  1.1080 -2.7257  1.2994
 3972TIP3    H233408   1.602   2.045  12.011 -0.2290 -0.4668  0.1910
 3973TIP3   OH233409   0.496   0.204   3.361 -0.2141  0.0796  0.5354
 3973TIP3    H133410   0.451   0.218   3.278  0.8485  2.2739  0.2594
 3973TIP3    H233411   0.433   0.232   3.427 -0.3523  0.2259  0.3425
 3974TIP3   OH233412   4.324   0.662  14.363  0.2794  0.5947  0.5075
 3974TIP3    H133413   4.403   0.612  14.386 -0.0985 -0.1283  0.2679
 3974TIP3    H233414   4.357   0.738  14.316  0.8461  0.3406  0.4813
 3975TIP3   OH233415   0.177   5.507   1.544  0.0543 -0.2423  0.7437
 3975TIP3    H133416   0.136   5.503   1.458  3.5305 -3.5093 -1.0430
 3975TIP3    H233417   0.154   5.424   1.585  2.3179 -0.8821  0.8475
 3976TIP3   OH233418   6.053   6.521   1.896 -0.3803 -0.0474  0.3777
 3976TIP3    H133419   6.140   6.543   1.927 -0.4047 -0.4093  0.7197
 3976TIP3    H233420   6.061   6.432   1.862 -0.5422  0.0393  0.1072
 3977TIP3   OH233421   3.392   0.205  12.152 -0.1118 -0.1671  0.6227
 3977TIP3    H133422   3.436   0.144  12.211  1.2052 -1.8258 -1.9082
 3977TIP3    H233423   3.314   0.158  12.122  0.9197 -0.7124 -1.3584
 3978TIP3   OH233424   1.575   3.230   3.860  0.9160 -0.1177  0.2117
 3978TIP3    H133425   1.551   3.285   3.786  1.9059  1.5002  1.0314
 3978TIP3    H233426   1.492   3.200   3.897  0.3750  0.4098 -0.5593
 3979TIP3   OH233427   1.038   2.930  12.901 -0.2010  0.0192 -0.6107
 3979TIP3    H133428   1.070   2.971  12.820 -0.0049 -1.1976 -1.1727
 3979TIP3    H233429   1.095   2.966  12.970 -0.4625  1.1756 -0.9745
 3980TIP3   OH233430   2.882   4.815   4.038 -0.5578 -0.1197  0.5144
 3980TIP3    H133431   2.925   4.809   4.124  0.7914 -0.9874 -0.1918
 3980TIP3    H233432   2.923   4.890   3.996  0.5035 -1.1158 -0.2696
 3981TIP3   OH233433   1.836   2.376   4.894  0.1356  0.3772  0.1088
 3981TIP3    H133434   1.757   2.428   4.883  0.9259  1.6155  0.1247
 3981TIP3    H233435   1.908   2.435   4.872  1.0176 -1.1224 -1.3197
 3982TIP3   OH233436   0.106   1.151   5.524 -0.3028 -0.2229  0.7101
 3982TIP3    H133437   0.151   1.093   5.585 -0.1494 -0.8485  0.0242
 3982TIP3    H233438   0.176   1.204   5.484 -0.4178  0.2882  1.1728
 3983TIP3   OH233439   1.978   2.910  14.081  0.1480 -0.2423 -0.1570
 3983TIP3    H133440   2.010   2.892  13.993 -0.4254 -0.1964 -0.3826
 3983TIP3    H233441   1.894   2.954  14.067 -0.1777 -0.6664  0.4158
 3984TIP3   OH233442   1.053   1.656  12.815  0.1250 -0.0030 -0.1520
 3984TIP3    H133443   1.071   1.611  12.898 -1.3613  1.1323  0.8413
 3984TIP3    H233444   1.122   1.722  12.808  2.0996 -2.0563 -1.4347
 3985TIP3   OH233445   2.554   5.561  14.953  0.7013  0.5699 -0.1428
 3985TIP3    H133446   2.528   5.652  14.940 -2.0119 -0.1592 -0.6129
 3985TIP3    H233447   2.503   5.533  15.030  3.1128 -0.0317  1.3405
 3986TIP3   OH233448   0.510   6.482   1.650 -0.0329  0.4695 -0.0490
 3986TIP3    H133449   0.554   6.425   1.588  1.7729 -0.6222  2.0942
 3986TIP3    H233450   0.572   6.554   1.664 -0.0184  0.2405  1.1286
 3987TIP3   OH233451   4.258   2.534   1.366 -0.0934  0.3064  0.0543
 3987TIP3    H133452   4.233   2.457   1.417  1.0840  0.4586  0.8916
 3987TIP3    H233453   4.248   2.507   1.274  1.0273 -1.1041  0.3228
 3988TIP3   OH233454   6.291   1.329  12.085 -0.0607 -0.1878 -0.2908
 3988TIP3    H133455   6.298   1.334  11.990  2.1824 -4.1690 -0.5623
 3988TIP3    H233456   6.201   1.302  12.102 -0.2927 -0.0851 -1.3431
 3989TIP3   OH233457   3.394   1.707  10.939 -0.0144 -0.0304 -0.4629
 3989TIP3    H133458   3.414   1.720  10.846  0.3809  0.4945 -0.3132
 3989TIP3    H233459   3.468   1.656  10.971 -0.8382 -1.4258 -0.7280
 3990TIP3   OH233460   0.813   1.678   4.012 -0.2496  0.3651  0.4086
 3990TIP3    H133461   0.901   1.640   4.003  1.4288  3.9970 -0.4220
 3990TIP3    H233462   0.811   1.712   4.101  0.1178  2.2198 -0.2571
 3991TIP3   OH233463   2.387   6.345  15.974  0.7845  0.1443 -0.0977
 3991TIP3    H133464   2.313   6.405  15.961  0.0768 -0.4535  0.9970
 3991TIP3    H233465   2.357   6.263  15.934  0.7650 -0.1554  0.5235
 3992TIP3   OH233466   3.310   6.178   1.183  0.0112 -0.1498  0.1014
 3992TIP3    H133467   3.328   6.239   1.112 -0.2840  0.4193  0.5069
 3992TIP3    H233468   3.384   6.117   1.181 -0.0256 -0.1794 -0.7247
 3993TIP3   OH233469   0.221   0.558   4.641  0.2400 -0.1857 -0.2177
 3993TIP3    H133470   0.241   0.484   4.584  2.0641  0.9988 -1.1916
 3993TIP3    H233471   0.202   0.518   4.726  1.5579 -1.7515 -0.6161
 3994TIP3   OH233472   6.260   5.692   5.554 -0.6338 -0.4769  0.0508
 3994TIP3    H133473   6.246   5.676   5.647 -1.7501  1.8098  0.3610
 3994TIP3    H233474   6.336   5.751   5.551 -1.1524  0.1899 -0.3844
 3995TIP3   OH233475   6.479   0.651  13.220 -0.3096  0.6768  0.4236
 3995TIP3    H133476   6.429   0.623  13.297 -0.6604 -0.9555 -0.3747
 3995TIP3    H233477   6.417   0.649  13.148  0.6499 -0.5210 -0.4169
 3996TIP3   OH233478   4.182   6.128  11.953  0.3126 -0.1737  0.2637
 3996TIP3    H133479   4.199   6.102  12.044 -0.8929  0.6474  0.7557
 3996TIP3    H233480   4.104   6.183  11.959  1.5439  1.7786 -1.0197
 3997TIP3   OH233481   1.828   4.575  17.056 -0.2877 -0.5659 -0.2405
 3997TIP3    H133482   1.831   4.670  17.066  2.2511 -0.6244  0.2288
 3997TIP3    H233483   1.815   4.560  16.962  1.3203  0.3013 -0.6322
 3998TIP3   OH233484   2.820   0.146   1.537 -0.2298  0.2635  0.5417
 3998TIP3    H133485   2.798   0.115   1.625 -3.1546 -0.5339 -0.3696
 3998TIP3    H233486   2.771   0.227   1.527 -2.8186 -1.3790 -1.4451
 3999TIP3   OH233487   5.540   6.349   3.896 -0.3407 -0.2432 -0.0776
 3999TIP3    H133488   5.501   6.436   3.901  0.4622  0.0906  0.5325
 3999TIP3    H233489   5.465   6.289   3.890 -0.8856  0.5227 -1.2634
 4000TIP3   OH233490   0.605   4.968  15.577 -0.6752 -0.1229 -0.1035
 4000TIP3    H133491   0.550   4.937  15.649 -1.3217  1.7594  0.2488
 4000TIP3    H233492   0.544   5.008  15.515  0.0062 -0.6340 -1.1368
 4001TIP3   OH233493   6.741   2.365  16.617  0.4064  0.3125 -0.5974
 4001TIP3    H133494   6.732   2.460  16.626  0.7308  0.4928 -2.0139
 4001TIP3    H233495   6.655   2.335  16.589  0.7040  0.4030 -1.6535
 4002TIP3   OH233496   3.136   6.032  15.532 -0.1861  0.0848  0.4641
 4002TIP3    H133497   3.041   6.027  15.521 -0.1391 -0.5850  0.3426
 4002TIP3    H233498   3.171   6.024  15.443 -0.0233  0.6015  0.4790
 4003TIP3   OH233499   3.623   5.151  10.696 -0.4098 -0.3111 -0.3339
 4003TIP3    H133500   3.585   5.203  10.625 -0.6901  0.1479  0.1373
 4003TIP3    H233501   3.628   5.213  10.770  1.5924 -0.2446 -0.4772
 4004TIP3   OH233502   5.602   6.071   1.147 -0.4318 -0.0520 -0.1339
 4004TIP3    H133503   5.660   6.027   1.209 -0.1308  1.2766  0.5852
 4004TIP3    H233504   5.519   6.024   1.153  0.6232 -2.1876 -1.4188
 4005TIP3   OH233505   5.331   5.770   6.053  0.1543  0.4658 -0.6089
 4005TIP3    H133506   5.364   5.843   6.000  4.0703 -0.3074  0.4567
 4005TIP3    H233507   5.362   5.790   6.141 -2.0771 -0.6426  0.4788
 4006TIP3   OH233508   6.672   1.307   6.044  0.2249 -0.3845 -0.2381
 4006TIP3    H133509   6.595   1.260   6.075  1.4579 -1.8117  0.8041
 4006TIP3    H233510   6.661   1.397   6.076 -0.8660 -0.6277  0.0874
 4007TIP3   OH233511   0.451   1.438   4.412 -0.3403 -0.1638  0.0354
 4007TIP3    H133512   0.493   1.352   4.409  2.9157  1.2928 -2.5034
 4007TIP3    H233513   0.371   1.427   4.360 -1.6175 -2.2450  2.2261
 4008TIP3   OH233514   3.949   3.813   2.168  0.6267  0.0246 -0.2129
 4008TIP3    H133515   3.855   3.811   2.150  0.1557  1.5570  1.7041
 4008TIP3    H233516   3.960   3.888   2.227  2.9614 -0.5172  0.1200
 4009TIP3   OH233517   3.913   5.530  14.612  0.0797 -0.3894  0.0705
 4009TIP3    H133518   3.919   5.447  14.659 -3.5937  0.1425  1.8649
 4009TIP3    H233519   3.984   5.584  14.647  0.0314 -1.4564  1.8788
 4010TIP3   OH233520   3.489   0.322   4.416  0.0169 -0.6208 -0.5302
 4010TIP3    H133521   3.521   0.406   4.384  1.4784 -1.1597 -0.5135
 4010TIP3    H233522   3.462   0.275   4.337  1.3747 -1.0174 -0.7806
 4011TIP3   OH233523   3.466   1.210  15.028 -0.1490  0.1108 -0.4216
 4011TIP3    H133524   3.440   1.283  15.083 -0.0085  0.3044 -0.6126
 4011TIP3    H233525   3.471   1.246  14.939  1.6679  0.3172 -0.2786
 4012TIP3   OH233526   6.286   3.191  15.986  0.4625  0.1379 -0.0310
 4012TIP3    H133527   6.379   3.213  15.986  1.1533 -2.3961 -0.8665
 4012TIP3    H233528   6.279   3.117  16.047 -1.1227  0.6152  0.4287
 4013TIP3   OH233529   4.269   6.309   0.698 -0.3220  0.2887  0.1580
 4013TIP3    H133530   4.327   6.238   0.725 -3.2784 -1.9479  1.3358
 4013TIP3    H233531   4.294   6.329   0.609  1.0295 -1.9008 -0.0290
 4014TIP3   OH233532   4.093   2.808  12.760  0.8253 -0.3791 -0.9064
 4014TIP3    H133533   4.085   2.782  12.851 -2.8365  1.5632 -0.4883
 4014TIP3    H233534   4.099   2.725  12.712  1.3188 -1.4886  0.9565
 4015TIP3   OH233535   4.371   2.907  12.705 -0.5750 -0.2628  0.4940
 4015TIP3    H133536   4.404   2.868  12.786  0.7721 -0.7095 -0.2346
 4015TIP3    H233537   4.283   2.938  12.727 -0.2786 -0.4721  2.0866
 4016TIP3   OH233538   0.681   3.133  13.286  0.3446  0.1624  0.4004
 4016TIP3    H133539   0.725   3.214  13.311  0.9555  1.1117 -3.2347
 4016TIP3    H233540   0.738   3.094  13.221 -1.5171 -1.5241 -0.3067
 4017TIP3   OH233541   2.912   0.941  16.467 -0.1843 -0.1199 -0.0483
 4017TIP3    H133542   2.969   0.902  16.401 -1.1841 -1.6731 -0.0582
 4017TIP3    H233543   2.965   0.944  16.547  1.1328  2.0393 -0.8993
 4018TIP3   OH233544   2.993   5.993  12.890  0.0215 -0.0854 -0.2960
 4018TIP3    H133545   3.086   6.009  12.877 -0.1056 -0.3249 -1.6018
 4018TIP3    H233546   2.969   5.932  12.821 -1.0112 -0.4029  0.3157
 4019TIP3   OH233547   6.129   0.125  10.647  0.5401 -0.2300  0.2530
 4019TIP3    H133548   6.219   0.109  10.677  0.9016 -0.4843 -0.9144
 4019TIP3    H233549   6.105   0.208  10.688  1.7055  0.3895 -0.2554
 4020TIP3   OH233550   2.275   4.044   1.507 -0.1214 -0.1950  0.0483
 4020TIP3    H133551   2.203   4.036   1.569 -0.5668 -3.3606 -0.7194
 4020TIP3    H233552   2.323   3.962   1.515  1.1666  0.2641 -2.1481
 4021TIP3   OH233553   6.323   5.054   1.659  0.1287 -0.2094 -0.0904
 4021TIP3    H133554   6.351   5.078   1.747  0.7009  1.7622 -0.7472
 4021TIP3    H233555   6.328   5.136   1.609  1.9528 -1.6414 -2.5124
 4022TIP3   OH233556   2.969   0.042  10.987  0.0242  0.1990  0.4134
 4022TIP3    H133557   2.909   0.085  11.047 -1.1609 -0.6398 -0.1224
 4022TIP3    H233558   2.937  -0.049  10.982  1.1868 -0.2081 -0.0827
 4023TIP3   OH233559   4.837   1.651   4.803  0.1303 -0.2064  0.3298
 4023TIP3    H133560   4.846   1.589   4.730  0.3809 -0.2424  0.3898
 4023TIP3    H233561   4.746   1.678   4.800 -0.0779 -0.8545  0.5180
 4024TIP3   OH233562   5.566   6.460  11.143 -0.3078 -0.4192 -0.3078
 4024TIP3    H133563   5.617   6.526  11.096  0.6761 -0.2516  0.9517
 4024TIP3    H233564   5.488   6.447  11.089  0.4698  0.2400 -1.6304
 4025TIP3   OH233565   3.025   0.532  12.456  0.6769  0.3006 -0.0700
 4025TIP3    H133566   3.111   0.510  12.420  0.1845 -0.4184 -0.8214
 4025TIP3    H233567   3.021   0.484  12.539  0.3849 -0.9367 -0.7806
 4026TIP3   OH233568   6.578   4.636   3.261 -0.0562 -0.6392  0.7575
 4026TIP3    H133569   6.624   4.684   3.330  0.1310  0.5022 -0.1351
 4026TIP3    H233570   6.644   4.621   3.194 -0.6302 -0.2307  0.0840
 4027TIP3   OH233571   4.867   4.351  16.002  0.1423  0.5460  0.2291
 4027TIP3    H133572   4.819   4.298  15.938  1.4716  0.9808 -1.1921
 4027TIP3    H233573   4.908   4.287  16.061  2.0638 -0.1152 -1.7052
 4028TIP3   OH233574   3.517   5.550   5.349 -0.1203  1.0720 -0.0611
 4028TIP3    H133575   3.527   5.455   5.350 -0.4709  0.9960 -1.5592
 4028TIP3    H233576   3.572   5.581   5.421  1.8572 -0.1077 -0.9837
 4029TIP3   OH233577   6.471   3.186   4.212 -0.0345  0.4621  0.1200
 4029TIP3    H133578   6.560   3.214   4.229 -0.1198  1.1414 -0.5135
 4029TIP3    H233579   6.479   3.115   4.149  0.1505 -0.6784  1.3699
 4030TIP3   OH233580   4.131   0.203   6.094  0.1909  0.0498  0.1802
 4030TIP3    H133581   4.066   0.164   6.152  1.2345  0.7202  1.8870
 4030TIP3    H233582   4.189   0.252   6.152  1.7823  0.1038 -1.3540
 4031TIP3   OH233583   2.400   3.436  17.132 -0.2692  0.4593  0.0457
 4031TIP3    H133584   2.376   3.360  17.078 -1.2116  0.4464  0.4697
 4031TIP3    H233585   2.372   3.512  17.080 -2.6608  0.4150  1.1579
 4032TIP3   OH233586   2.064   0.733  16.160  0.6468  0.2795  0.1998
 4032TIP3    H133587   2.030   0.793  16.227  0.9095  1.0500 -0.3354
 4032TIP3    H233588   2.099   0.791  16.093 -0.1609 -0.4777 -0.8990
 4033TIP3   OH233589   5.213   1.653  10.655 -0.5105  0.1284  0.2551
 4033TIP3    H133590   5.233   1.745  10.672  0.0049 -0.0143  0.4521
 4033TIP3    H233591   5.215   1.646  10.559  1.2735 -0.0445  0.2631
 4034TIP3   OH233592   2.669   3.330   5.614  0.0683  0.5945 -0.0406
 4034TIP3    H133593   2.592   3.377   5.647  1.8706  3.2764  0.6282
 4034TIP3    H233594   2.658   3.240   5.647 -2.2338  1.1505  0.9046
 4035TIP3   OH233595   5.059   3.196   3.440  0.1675  0.0565 -0.4067
 4035TIP3    H133596   5.057   3.114   3.390  0.2139 -0.3836  0.3004
 4035TIP3    H233597   5.103   3.173   3.522 -0.7271  0.5546  0.2257
 4036TIP3   OH233598   6.237   4.955   2.391 -0.2317 -0.5835 -0.0185
 4036TIP3    H133599   6.305   4.989   2.450 -1.1263  1.2380  0.0250
 4036TIP3    H233600   6.216   5.028   2.333  0.2138 -2.1476 -2.2927
 4037TIP3   OH233601   3.765   3.661  11.160 -0.1013  0.3481  0.4726
 4037TIP3    H133602   3.717   3.651  11.242  0.3512  1.9099  0.9514
 4037TIP3    H233603   3.838   3.600  11.167  0.9104  1.6768  1.9963
 4038TIP3   OH233604   5.016   2.215  16.411  0.4464  0.3388  0.1122
 4038TIP3    H133605   4.994   2.128  16.377 -2.2988  0.6313  0.8689
 4038TIP3    H233606   5.104   2.206  16.446  0.1953 -2.1684  0.2402
 4039TIP3   OH233607   0.912   5.466  13.430 -0.2655 -0.0406 -0.1273
 4039TIP3    H133608   0.941   5.461  13.339  0.1643  0.4736 -0.0229
 4039TIP3    H233609   0.885   5.377  13.452  0.6413 -0.4048 -0.4264
 4040TIP3   OH233610   1.016   1.412  14.200  0.5609 -0.8447 -0.1157
 4040TIP3    H133611   0.984   1.382  14.115 -0.3091  1.6777 -0.7600
 4040TIP3    H233612   0.944   1.396  14.261 -1.5137  3.0590 -1.1933
 4041TIP3   OH233613   4.038   0.072   2.317  0.2974 -0.3903  0.1081
 4041TIP3    H133614   3.956   0.070   2.268  0.8334 -1.0929 -0.7817
 4041TIP3    H233615   4.028   0.147   2.376 -0.8155 -0.2191 -0.2678
 4042TIP3   OH233616   1.414   6.239   6.555  0.4699  0.1522 -0.2300
 4042TIP3    H133617   1.418   6.144   6.562  2.1296  0.1981 -0.3220
 4042TIP3    H233618   1.349   6.265   6.621  0.4494 -0.9956  0.2226
 4043TIP3   OH233619   2.641   5.046   4.458  0.0275 -0.0637  0.4825
 4043TIP3    H133620   2.706   5.069   4.392 -0.6108  0.2389 -0.0533
 4043TIP3    H233621   2.622   4.953   4.441  0.4857 -0.2202  0.7964
 4044TIP3   OH233622   2.592   4.056   3.721 -0.0509 -0.4060  0.0738
 4044TIP3    H133623   2.541   4.051   3.801  0.4729  1.0632  0.5427
 4044TIP3    H233624   2.683   4.056   3.750  0.1551 -0.2722 -0.5488
 4045TIP3   OH233625   3.602   1.854  12.144  0.1682 -0.6019 -0.4091
 4045TIP3    H133626   3.612   1.767  12.185 -0.6565 -0.9579 -0.9456
 4045TIP3    H233627   3.521   1.889  12.180  0.4010 -0.1250 -0.3385
 4046TIP3   OH233628   1.836   3.267   6.687 -0.8424  0.1701  0.4486
 4046TIP3    H133629   1.825   3.338   6.624 -2.6301 -0.1132  0.3883
 4046TIP3    H233630   1.789   3.193   6.648 -0.4568 -0.5493  1.3030
 4047TIP3   OH233631   4.582   4.724  14.384 -0.3162  0.0534 -0.1715
 4047TIP3    H133632   4.673   4.750  14.396 -0.0988 -1.4831  2.0515
 4047TIP3    H233633   4.546   4.719  14.472 -2.4658  0.2147 -0.9680
 4048TIP3   OH233634   5.541   3.097  15.074  0.4799  0.0024  0.3673
 4048TIP3    H133635   5.457   3.089  15.118  0.4096  0.3331  0.2934
 4048TIP3    H233636   5.521   3.090  14.981  0.5985 -0.4394  0.3713
 4049TIP3   OH233637   4.851   0.781   4.586  0.1879 -0.6750  0.3453
 4049TIP3    H133638   4.849   0.873   4.562  0.0485 -0.7526  0.0546
 4049TIP3    H233639   4.942   0.763   4.607  0.4723 -0.8026 -0.9016
 4050TIP3   OH233640   3.257   0.736   6.190  0.3117  0.9844  0.4005
 4050TIP3    H133641   3.275   0.826   6.163  0.4093  1.3263  1.5301
 4050TIP3    H233642   3.289   0.682   6.118  2.4565  1.7448  0.7226
 4051TIP3   OH233643   0.606   1.235   1.156  0.0287  0.5620  0.2874
 4051TIP3    H133644   0.529   1.242   1.098 -0.1205 -2.4772 -0.0407
 4051TIP3    H233645   0.571   1.251   1.243 -0.4795  1.5205 -0.0716
 4052TIP3   OH233646   1.198   0.327  10.693 -0.2896 -0.0823  0.4187
 4052TIP3    H133647   1.123   0.282  10.731 -0.7411  0.6326  0.3786
 4052TIP3    H233648   1.235   0.378  10.765 -0.0590 -0.1475  0.3481
 4053TIP3   OH233649   0.276   1.069  12.551 -0.3864 -0.5215 -0.3606
 4053TIP3    H133650   0.202   1.070  12.489  0.9803 -0.2978 -2.0495
 4053TIP3    H233651   0.320   1.153  12.536  2.6317 -2.2934 -2.4991
 4054TIP3   OH233652   6.435   3.658   3.694  0.4394  0.0622  0.1926
 4054TIP3    H133653   6.356   3.604   3.706  0.3259  0.1559 -0.1329
 4054TIP3    H233654   6.494   3.628   3.763  0.4873 -0.6837 -0.1653
 4055TIP3   OH233655   4.775   2.074   1.408  0.7140  0.3970 -0.0816
 4055TIP3    H133656   4.725   2.139   1.357 -1.0702 -0.9354 -0.1455
 4055TIP3    H233657   4.736   2.078   1.496  0.7053 -0.4286 -0.0379
 4056TIP3   OH233658   5.955   2.534   4.882  0.4909  0.1075 -0.6360
 4056TIP3    H133659   5.918   2.602   4.827  0.1722 -0.6489 -1.3919
 4056TIP3    H233660   6.043   2.520   4.846  0.5265  0.0704 -0.5340
 4057TIP3   OH233661   5.920   0.715   1.174  0.4342  0.0001  0.1218
 4057TIP3    H133662   5.864   0.653   1.128 -0.2293 -1.0567  2.2529
 4057TIP3    H233663   5.986   0.662   1.217  1.9189  1.0806 -0.7219
 4058TIP3   OH233664   3.957   3.798  16.793  0.1746 -0.1510 -0.7051
 4058TIP3    H133665   3.901   3.723  16.814 -1.1846  1.3166  1.2323
 4058TIP3    H233666   4.043   3.772  16.825 -0.4556 -0.6023  0.7399
 4059TIP3   OH233667   5.567   1.609   5.915 -0.1324  0.1061  0.2599
 4059TIP3    H133668   5.611   1.534   5.875  0.2249 -0.2375  1.2617
 4059TIP3    H233669   5.556   1.584   6.007  0.0567  1.3063  0.6315
 4060TIP3   OH233670   5.779   5.547   3.926 -0.5621 -0.3247 -1.0601
 4060TIP3    H133671   5.693   5.557   3.884 -0.7616 -1.4424 -0.9505
 4060TIP3    H233672   5.836   5.606   3.877 -1.4626  0.7302 -0.8933
 4061TIP3   OH233673   2.127   6.277   3.765 -0.2139 -0.1643  0.2496
 4061TIP3    H133674   2.088   6.243   3.846 -0.2726 -2.1516 -0.5409
 4061TIP3    H233675   2.203   6.221   3.750  1.7222  2.2315  0.5825
 4062TIP3   OH233676   3.087   0.939  15.675  0.3295  0.4596  0.3861
 4062TIP3    H133677   3.018   0.913  15.737 -0.5929 -1.3575 -1.2716
 4062TIP3    H233678   3.166   0.895  15.707 -0.1733 -0.6027  0.2179
 4063TIP3   OH233679   0.803   3.849   4.499  0.4092  0.6896  0.3578
 4063TIP3    H133680   0.780   3.937   4.530  2.2469  1.9156 -1.4273
 4063TIP3    H233681   0.899   3.850   4.495  0.4036 -0.3830 -2.2564
 4064TIP3   OH233682   3.217   0.538  11.760  0.0426  0.1666 -1.1543
 4064TIP3    H133683   3.188   0.450  11.784 -0.9444 -0.4578 -4.1152
 4064TIP3    H233684   3.266   0.569  11.835 -0.4785 -2.4949  0.4135
 4065TIP3   OH233685   3.710   2.653   3.225  0.4666  0.0113  0.1540
 4065TIP3    H133686   3.626   2.642   3.180 -0.4580  1.6063  1.4070
 4065TIP3    H233687   3.742   2.564   3.237  0.1034 -0.5398 -2.4073
 4066TIP3   OH233688   1.286   6.713  11.659 -0.1024 -0.2873 -0.0952
 4066TIP3    H133689   1.310   6.747  11.572 -0.7250  0.2096 -0.0819
 4066TIP3    H233690   1.360   6.658  11.684  0.9426  1.0430 -0.1399
 4067TIP3   OH233691   1.816   0.566   4.110  0.0328  0.6077  0.3557
 4067TIP3    H133692   1.740   0.563   4.052  0.5959 -1.7434 -0.3476
 4067TIP3    H233693   1.779   0.571   4.198 -0.8709  1.5733 -0.0569
 4068TIP3   OH233694   0.403   0.400   5.564  0.0123  0.3045  0.0376
 4068TIP3    H133695   0.427   0.342   5.635 -0.0057 -0.6562 -0.7244
 4068TIP3    H233696   0.344   0.464   5.604  1.5101  0.9637  1.2933
 4069TIP3   OH233697   3.838   3.423  13.589 -0.5746  0.3987  0.5397
 4069TIP3    H133698   3.923   3.462  13.609  0.4672 -1.7165  0.5067
 4069TIP3    H233699   3.858   3.335  13.558 -2.5481  0.9335 -2.8538
 4070TIP3   OH233700   3.565   1.643  15.405 -0.3548  0.0658  0.0869
 4070TIP3    H133701   3.500   1.577  15.378 -0.6141  0.4066 -0.1372
 4070TIP3    H233702   3.603   1.608  15.486 -0.2109 -0.5430 -0.2379
 4071TIP3   OH233703   2.858   1.441  16.113  0.3583  0.5269  0.2064
 4071TIP3    H133704   2.906   1.375  16.163 -0.0521 -0.3457 -0.5013
 4071TIP3    H233705   2.780   1.459  16.165 -0.9455 -1.6556 -0.8429
 4072TIP3   OH233706   4.647   1.421  14.441  0.0196 -0.2024  0.0485
 4072TIP3    H133707   4.643   1.442  14.347 -0.1153  0.1628  0.1331
 4072TIP3    H233708   4.590   1.486  14.482 -0.7672 -1.0215  0.2839
 4073TIP3   OH233709   3.939   3.067   2.912 -0.1973  0.2321 -0.3431
 4073TIP3    H133710   4.027   3.095   2.940  0.0504  1.1019 -1.8642
 4073TIP3    H233711   3.943   2.971   2.912  0.4069  0.2386  0.5728
 4074TIP3   OH233712   4.498   2.656   1.059  0.5902 -0.4432 -0.5115
 4074TIP3    H133713   4.421   2.621   1.015  0.7681 -1.1694 -0.2491
 4074TIP3    H233714   4.526   2.729   1.003 -0.4834  0.0528 -0.4223
 4075TIP3   OH233715   0.087   5.003   3.551 -0.0003 -0.1343  0.6070
 4075TIP3    H133716   0.085   5.059   3.629 -2.9046 -1.0384  1.2831
 4075TIP3    H233717   0.177   5.012   3.519 -0.1809  4.9476  0.6108
 4076TIP3   OH233718   3.432   6.220   5.205  0.2513  0.4550  0.3124
 4076TIP3    H133719   3.406   6.295   5.153 -0.1515  1.0225  1.2965
 4076TIP3    H233720   3.457   6.153   5.141  1.7659  1.8056 -0.5958
 4077TIP3   OH233721   2.654   2.031   1.584 -0.2275  0.3047 -0.3769
 4077TIP3    H133722   2.621   1.944   1.560 -0.6331 -0.0536  1.3318
 4077TIP3    H233723   2.682   2.022   1.675  0.9219  1.6563 -0.5581
 4078TIP3   OH233724   0.692   6.318   2.943  0.1134  0.2055 -0.6438
 4078TIP3    H133725   0.701   6.411   2.961 -0.8337  0.2859 -0.5196
 4078TIP3    H233726   0.708   6.275   3.028  2.6158  0.0799 -1.1069
 4079TIP3   OH233727   6.493   5.003   0.456 -0.4660 -0.3921 -0.0485
 4079TIP3    H133728   6.585   5.005   0.432 -1.3417 -0.2274 -4.1847
 4079TIP3    H233729   6.464   5.094   0.444 -1.5595 -0.8400 -0.9960
 4080TIP3   OH233730   0.727   5.211   5.236 -0.9613 -0.6301  0.0644
 4080TIP3    H133731   0.647   5.177   5.276 -1.3127 -0.2848 -0.3346
 4080TIP3    H233732   0.778   5.133   5.213 -0.6634 -0.8428  1.3308
 4081TIP3   OH233733   0.051   0.415  11.204  0.1844  0.6393  0.0984
 4081TIP3    H133734   0.005   0.405  11.121 -0.2724 -1.6728  0.5435
 4081TIP3    H233735   0.136   0.452  11.181  0.0994 -0.0479 -1.4361
 4082TIP3   OH233736   0.732   6.603   3.580  0.0406 -0.4397 -0.3580
 4082TIP3    H133737   0.742   6.584   3.487  0.6174  0.2832 -0.4543
 4082TIP3    H233738   0.653   6.658   3.585  0.6057  0.3990 -0.5526
 4083TIP3   OH233739   1.926   0.963  17.029  0.1432  0.0193  0.1087
 4083TIP3    H133740   1.966   0.900  16.969 -0.6242 -0.5170  0.1472
 4083TIP3    H233741   1.959   1.048  17.000  2.2149 -0.4743  0.8303
 4084TIP3   OH233742   5.758   2.889   1.167  0.1799  0.5063  0.5189
 4084TIP3    H133743   5.730   2.912   1.256 -1.2199  3.0094 -0.4515
 4084TIP3    H233744   5.749   2.971   1.118  2.5346 -0.3663 -1.5787
 4085TIP3   OH233745   2.057   2.011  14.209 -0.0402  0.1165 -0.1907
 4085TIP3    H133746   2.034   2.060  14.130  1.4936  1.2013  0.0063
 4085TIP3    H233747   2.152   2.000  14.204 -0.2093 -1.9505  0.3010
 4086TIP3   OH233748   6.267   3.680   3.373  0.3039  0.1815  0.1942
 4086TIP3    H133749   6.325   3.607   3.395  0.4453  0.0331 -0.6377
 4086TIP3    H233750   6.312   3.725   3.302 -1.5472 -1.1924 -2.0024
 4087TIP3   OH233751   5.718   1.509  13.243 -0.2941 -0.0760  0.0785
 4087TIP3    H133752   5.683   1.419  13.242  0.0724 -0.2713  1.5557
 4087TIP3    H233753   5.802   1.501  13.288  0.8482  0.6771 -1.7859
 4088TIP3   OH233754   4.123   5.472  13.385  0.1247 -0.5428 -0.1208
 4088TIP3    H133755   4.187   5.409  13.418  0.3300  0.5212  1.6109
 4088TIP3    H233756   4.168   5.557  13.390 -0.7875 -0.0083 -0.6583
 4089TIP3   OH233757   3.213   0.125  12.570 -0.3441  0.0582 -0.0597
 4089TIP3    H133758   3.236   0.202  12.622  1.2065 -0.3197 -0.1144
 4089TIP3    H233759   3.141   0.084  12.617  0.4015  0.2395  1.2925
 4090TIP3   OH233760   4.894   1.822   1.383 -0.0859 -0.5451 -0.3128
 4090TIP3    H133761   4.822   1.793   1.439 -0.0106  0.5746  0.3921
 4090TIP3    H233762   4.889   1.917   1.386  1.8817 -0.4281  0.3563
 4091TIP3   OH233763   4.814   2.308  13.682 -0.5840  0.2266 -0.6830
 4091TIP3    H133764   4.765   2.306  13.600 -1.9032  2.4429 -0.0245
 4091TIP3    H233765   4.868   2.387  13.676 -0.5314  0.3038  0.4812
 4092TIP3   OH233766   3.931   0.642  13.810  0.6287  0.2007  0.2447
 4092TIP3    H133767   3.838   0.643  13.831  0.5751 -1.2572  0.1927
 4092TIP3    H233768   3.975   0.639  13.895  0.5346 -1.2284  0.2811
 4093TIP3   OH233769   2.662   0.393   5.763 -0.1831  0.5734  0.2403
 4093TIP3    H133770   2.728   0.345   5.714  0.2627  1.3377  0.0776
 4093TIP3    H233771   2.651   0.344   5.845 -0.7786 -0.5965 -0.5036
 4094TIP3   OH233772   3.507   6.736  10.690  0.0412  0.1663 -0.4193
 4094TIP3    H133773   3.587   6.787  10.675 -0.0522  1.0138  1.6902
 4094TIP3    H233774   3.436   6.800  10.684 -0.6153 -0.6480 -2.7026
 4095TIP3   OH233775   6.774   0.638   5.669 -0.2971 -0.5317  0.2687
 4095TIP3    H133776   6.679   0.631   5.666 -0.3126 -0.2161 -0.9884
 4095TIP3    H233777   6.805   0.551   5.692 -0.8979 -0.5524  1.0074
 4096TIP3   OH233778   1.721   0.762  12.570 -0.0065  0.3616 -0.3767
 4096TIP3    H133779   1.699   0.685  12.622  1.2734 -0.4411 -0.9725
 4096TIP3    H233780   1.715   0.731  12.479 -0.0746  1.1319 -0.6358
 4097TIP3   OH233781   1.751   3.100  14.102 -0.0549  0.0748 -0.1534
 4097TIP3    H133782   1.681   3.159  14.072  1.5376  1.2116 -1.7962
 4097TIP3    H233783   1.711   3.013  14.098 -0.7025  0.3780 -3.5335
 4098TIP3   OH233784   1.562   5.678  12.908  0.2319 -0.2923  0.6406
 4098TIP3    H133785   1.652   5.713  12.903 -0.8487  2.8027  0.4896
 4098TIP3    H233786   1.539   5.685  13.001  0.3042 -1.6438  0.7775
 4099TIP3   OH233787   6.001   4.227  15.595  0.4806  0.2394  0.4245
 4099TIP3    H133788   6.039   4.174  15.525  1.3003  1.4004 -0.0432
 4099TIP3    H233789   5.953   4.165  15.649  0.9647 -0.8867 -0.4033
 4100TIP3   OH233790   6.573   3.245   0.278 -0.0084  0.1130 -0.1069
 4100TIP3    H133791   6.592   3.332   0.312 -3.4929  1.2966 -0.7688
 4100TIP3    H233792   6.584   3.187   0.353 -0.2434  1.5489  1.0978
 4101TIP3   OH233793   6.610   3.408   4.528 -0.2100 -0.1290 -0.5144
 4101TIP3    H133794   6.613   3.430   4.621  0.5124  0.2222 -0.6170
 4101TIP3    H233795   6.597   3.491   4.484  1.2387 -0.0367 -0.8272
 4102TIP3   OH233796   5.030   0.259  15.805 -0.1509 -0.2189 -0.2797
 4102TIP3    H133797   5.067   0.207  15.876 -0.6850 -0.8979 -0.4824
 4102TIP3    H233798   4.935   0.256  15.819 -0.4681 -2.3108 -2.2616
 4103TIP3   OH233799   5.018   4.903  14.897  0.1257  0.0453 -0.0408
 4103TIP3    H133800   5.008   4.809  14.912  2.3897  0.1167  2.9259
 4103TIP3    H233801   4.973   4.944  14.971 -1.1795  1.3946 -1.5032
 4104TIP3   OH233802   1.160   1.719  11.107  0.1649 -0.0281 -0.3049
 4104TIP3    H133803   1.071   1.687  11.090 -0.8098  0.5336  3.0214
 4104TIP3    H233804   1.216   1.660  11.057 -2.0150 -1.0256 -1.7332
 4105TIP3   OH233805   3.161   0.678  15.204  0.1740 -0.4081 -0.2625
 4105TIP3    H133806   3.139   0.687  15.297 -0.5749  0.2653 -0.4960
 4105TIP3    H233807   3.257   0.686  15.201  0.3851 -2.1168  0.6295
 4106TIP3   OH233808   0.146   1.060   3.765 -0.2886 -0.1322  0.2821
 4106TIP3    H133809   0.179   1.142   3.727 -0.3743 -0.4378 -0.4633
 4106TIP3    H233810   0.052   1.074   3.772 -0.0435  0.9255  2.8524
 4107TIP3   OH233811   0.046   2.436   1.226 -0.2792  0.1942 -0.2007
 4107TIP3    H133812   0.106   2.484   1.283  0.8234 -0.6996 -0.5737
 4107TIP3    H233813   0.076   2.345   1.230 -0.5588  0.0013 -1.7011
 4108TIP3   OH233814   4.774   3.472   3.698  0.0738 -0.1203 -0.5067
 4108TIP3    H133815   4.869   3.472   3.694  0.1352 -0.5486  0.5301
 4108TIP3    H233816   4.745   3.461   3.608  0.9896  0.9339 -0.9448
 4109TIP3   OH233817   6.185   2.339   0.750 -0.0272 -0.2901  0.3691
 4109TIP3    H133818   6.206   2.246   0.760 -1.3535 -0.5462  0.9922
 4109TIP3    H233819   6.095   2.340   0.717 -0.8246  0.7555  2.3851
 4110TIP3   OH233820   4.423   4.736   2.349  0.0592  0.7007 -0.2958
 4110TIP3    H133821   4.463   4.814   2.310  0.1429  0.8761  0.1240
 4110TIP3    H233822   4.352   4.771   2.403  1.1346  0.6427  1.2168
 4111TIP3   OH233823   2.857   5.005   5.688 -0.0377  0.0565  0.1226
 4111TIP3    H133824   2.917   5.008   5.762 -1.4601  1.3977  1.2862
 4111TIP3    H233825   2.773   4.980   5.726 -0.5598 -0.3113 -1.2247
 4112TIP3   OH233826   6.722   1.057  13.375 -0.2278  0.2312  0.1276
 4112TIP3    H133827   6.708   1.059  13.469 -0.1290 -0.3760  0.1586
 4112TIP3    H233828   6.636   1.033  13.338  0.0096 -0.6824  0.1419
 4113TIP3   OH233829   3.473   6.188  12.982  0.2158  0.1719 -0.0946
 4113TIP3    H133830   3.485   6.173  13.076  1.0382 -2.6854 -0.5686
 4113TIP3    H233831   3.559   6.170  12.944 -0.2634  0.6735 -1.4742
 4114TIP3   OH233832   3.451   0.361  14.614  0.7887 -0.6653  0.2248
 4114TIP3    H133833   3.455   0.456  14.625 -0.1437 -0.6923  0.8213
 4114TIP3    H233834   3.464   0.326  14.702  1.1295 -1.0999  0.0065
 4115TIP3   OH233835   0.027   5.135   2.097  0.6006 -0.6672  0.1532
 4115TIP3    H133836   0.038   5.230   2.109 -1.1535 -0.5079  0.6886
 4115TIP3    H233837  -0.065   5.119   2.114  0.8039 -2.4480 -0.2554
 4116TIP3   OH233838   1.260   2.993  12.243 -0.2107 -0.3816  0.0069
 4116TIP3    H133839   1.289   3.006  12.153 -1.2166 -0.0018 -0.2763
 4116TIP3    H233840   1.270   3.080  12.284  2.1013 -0.9730  0.8490
 4117TIP3   OH233841   5.830   4.209  14.636 -0.0566 -0.3449  0.0355
 4117TIP3    H133842   5.777   4.132  14.658 -3.2595  1.5723 -0.1994
 4117TIP3    H233843   5.799   4.277  14.696  0.2231  1.6137 -1.9038
 4118TIP3   OH233844   2.505   2.029   3.885 -0.0478  0.2353  0.4383
 4118TIP3    H133845   2.454   1.959   3.843  0.1903 -0.5914  1.4900
 4118TIP3    H233846   2.441   2.075   3.939  0.1226 -0.2048  1.0192
 4119TIP3   OH233847   4.865   4.621   3.433 -0.2335  0.1041 -0.7196
 4119TIP3    H133848   4.951   4.638   3.470 -0.9436 -0.5648  1.3957
 4119TIP3    H233849   4.877   4.631   3.338  2.2345 -0.3351 -0.5279
 4120TIP3   OH233850   0.379   5.872   0.569 -0.7024 -0.5069 -0.0880
 4120TIP3    H133851   0.400   5.846   0.479 -1.0947  0.0978 -0.3652
 4120TIP3    H233852   0.390   5.793   0.621  0.3988 -0.6581 -0.5269
 4121TIP3   OH233853   2.818   2.465   6.536  0.5874 -0.0315  0.2285
 4121TIP3    H133854   2.869   2.384   6.545 -0.3420 -0.6772 -0.1429
 4121TIP3    H233855   2.855   2.524   6.602  2.2180 -0.2489 -0.4559
 4122TIP3   OH233856   3.708   0.664   1.190 -0.3935  0.2597  0.1208
 4122TIP3    H133857   3.763   0.589   1.214 -0.4369  0.1713 -0.0574
 4122TIP3    H233858   3.745   0.697   1.108 -1.9780 -1.2303 -1.2667
 4123TIP3   OH233859   5.485   5.545  12.259 -0.2360 -0.3916  1.1115
 4123TIP3    H133860   5.400   5.566  12.219  1.1789  0.5946 -1.6230
 4123TIP3    H233861   5.508   5.623  12.310  0.2903  0.5765 -0.5390
 4124TIP3   OH233862   2.918   3.771  12.901  0.0359  0.1848 -0.2988
 4124TIP3    H133863   2.990   3.796  12.843  1.9539  0.2505  1.9605
 4124TIP3    H233864   2.879   3.854  12.928 -0.7067  0.1645 -1.2880
 4125TIP3   OH233865   4.589   2.470  11.826 -0.3091 -0.1726 -0.0654
 4125TIP3    H133866   4.522   2.405  11.847  1.6066 -2.0677  0.5255
 4125TIP3    H233867   4.638   2.432  11.754 -1.5846  2.5358 -2.5635
 4126TIP3   OH233868   5.357   6.242   1.434 -0.3799  0.1627  0.2888
 4126TIP3    H133869   5.280   6.264   1.488 -0.9596  0.5288 -0.6595
 4126TIP3    H233870   5.397   6.168   1.479 -1.0040  0.2926  1.0822
 4127TIP3   OH233871   1.865   1.768   2.173 -0.4021  0.2146 -0.2151
 4127TIP3    H133872   1.859   1.677   2.142  0.8849  0.0640 -0.0728
 4127TIP3    H233873   1.776   1.802   2.163 -1.3475 -1.5874  1.3800
 4128TIP3   OH233874   6.446   5.288   1.807  0.0270  0.1547  0.5578
 4128TIP3    H133875   6.530   5.332   1.798  1.4150 -2.2800  0.7960
 4128TIP3    H233876   6.434   5.277   1.901 -0.9359  1.0984  0.5646
 4129TIP3   OH233877   6.725   4.257   1.595  0.4897  0.1377 -0.1354
 4129TIP3    H133878   6.729   4.323   1.525  1.5048  0.6189  0.3538
 4129TIP3    H233879   6.654   4.199   1.568 -0.6893  1.6197 -0.3949
 4130TIP3   OH233880   5.445   2.989  12.345  0.1596  0.9402  0.5469
 4130TIP3    H133881   5.376   2.924  12.341  1.2883 -0.2851  0.1566
 4130TIP3    H233882   5.413   3.055  12.407 -1.0374  0.0568  0.8987
 4131TIP3   OH233883   1.923   4.610   0.608 -0.2494 -0.0968  0.0186
 4131TIP3    H133884   1.853   4.673   0.625 -1.9750 -2.0517  0.5734
 4131TIP3    H233885   1.966   4.600   0.693  0.6955  1.0481 -0.3046
 4132TIP3   OH233886   1.505   0.434  11.534  0.6562  0.1414  0.0290
 4132TIP3    H133887   1.536   0.469  11.451  1.4162 -0.3942  0.0806
 4132TIP3    H233888   1.561   0.475  11.600  0.8003 -0.2909  0.1797
 4133TIP3   OH233889   1.563   4.604   2.766  0.4690  0.0362  0.0143
 4133TIP3    H133890   1.541   4.646   2.683 -0.0789 -0.2926 -0.0131
 4133TIP3    H233891   1.556   4.674   2.831  1.3253  0.3990 -0.2631
 4134TIP3   OH233892   5.217   4.966  15.235 -0.6806  0.0779 -0.5353
 4134TIP3    H133893   5.284   4.923  15.183  1.4634  0.8404  1.4306
 4134TIP3    H233894   5.219   5.057  15.206  0.9627  0.6460  1.1631
 4135TIP3   OH233895   2.726   6.100  12.276  0.1174 -0.0016 -0.1916
 4135TIP3    H133896   2.700   6.136  12.191 -0.4010  0.2821  0.0826
 4135TIP3    H233897   2.764   6.014  12.255  0.7514  0.4166 -0.7845
 4136TIP3   OH233898   1.370   1.342   3.002  0.5596 -0.6259  0.9305
 4136TIP3    H133899   1.365   1.397   3.080 -0.2581 -0.5299  0.8197
 4136TIP3    H233900   1.438   1.381   2.948  0.8260 -0.4384  1.3982
 4137TIP3   OH233901   0.648   1.057  16.378  0.2935  0.2823  0.3123
 4137TIP3    H133902   0.717   0.997  16.405  0.0031  0.8235  2.5457
 4137TIP3    H233903   0.566   1.010  16.395  0.0880  0.8551  1.0081
 4138TIP3   OH233904   3.087   6.509  10.619 -0.7282 -0.1526  0.5866
 4138TIP3    H133905   3.114   6.560  10.543  0.6622 -0.1921  1.0226
 4138TIP3    H233906   3.071   6.421  10.585 -1.0595  0.0537  0.1952
 4139TIP3   OH233907   0.708   5.994   0.003  0.1817  0.0827  0.6491
 4139TIP3    H133908   0.728   5.903  -0.018 -1.4294 -0.4847  1.4230
 4139TIP3    H233909   0.678   6.031  -0.080  0.1573 -0.2948  0.4860
 4140TIP3   OH233910   2.661   2.685   2.782  0.0543 -0.1428 -0.6581
 4140TIP3    H133911   2.606   2.763   2.786  0.2446 -0.0069 -0.7101
 4140TIP3    H233912   2.734   2.703   2.841  0.3000 -0.1230 -0.9671
 4141TIP3   OH233913   6.000   3.415   3.512  0.6388  0.0701 -0.1694
 4141TIP3    H133914   6.020   3.328   3.478 -1.3992 -0.2932 -0.6038
 4141TIP3    H233915   5.914   3.435   3.475  1.8212  3.0984 -1.6438
 4142TIP3   OH233916   5.571   0.817   3.928 -0.5303  0.7953  0.2563
 4142TIP3    H133917   5.572   0.900   3.880 -3.7472  0.8810  0.0990
 4142TIP3    H233918   5.590   0.751   3.862  3.2837  1.3272  0.5977
 4143TIP3   OH233919   5.978   5.677   3.785 -0.2902 -0.4495  0.5221
 4143TIP3    H133920   6.035   5.713   3.853 -0.5483  1.5522 -0.2602
 4143TIP3    H233921   6.038   5.632   3.726 -0.0756 -2.3691  2.0732
 4144TIP3   OH233922   2.690   0.883  14.756  0.1000 -1.1827  0.2078
 4144TIP3    H133923   2.772   0.889  14.806  0.2170 -1.0486  0.0049
 4144TIP3    H233924   2.625   0.926  14.811  0.5890  0.5823 -0.5069
 4145TIP3   OH233925   6.675   0.674   0.849  0.1238  0.0440  0.3844
 4145TIP3    H133926   6.728   0.686   0.927  1.6237 -3.7376  0.1383
 4145TIP3    H233927   6.586   0.663   0.882  0.6483 -0.9314  1.5274
 4146TIP3   OH233928   6.358   6.087  17.021  0.1221  0.3830  0.0103
 4146TIP3    H133929   6.327   6.019  16.960  0.0781  0.2626  0.1651
 4146TIP3    H233930   6.354   6.045  17.107  0.5281  0.4318  0.0553
 4147TIP3   OH233931   0.085   3.869  16.992 -0.4151  0.1913  0.4542
 4147TIP3    H133932   0.047   3.927  17.058 -1.3053  2.0161 -1.5443
 4147TIP3    H233933   0.026   3.794  16.988 -1.0003  0.6261  0.8869
 4148TIP3   OH233934   2.469   6.490   1.915  0.4528  0.5525  0.1714
 4148TIP3    H133935   2.434   6.431   1.850  0.2304 -0.1522  0.9163
 4148TIP3    H233936   2.555   6.515   1.881  0.1238  0.6070 -0.6302
 4149TIP3   OH233937   3.444   3.961  13.513 -0.8897 -0.5809 -0.2677
 4149TIP3    H133938   3.533   3.931  13.499 -1.2689 -1.7021 -0.3869
 4149TIP3    H233939   3.393   3.920  13.443 -1.6525 -0.7191  0.3525
 4150TIP3   OH233940   6.577   2.013  13.025  0.0808  0.4240  0.4856
 4150TIP3    H133941   6.618   2.065  12.956 -2.0678  2.3045  0.4940
 4150TIP3    H233942   6.562   1.927  12.986  0.1078  1.0544 -0.9436
 4151TIP3   OH233943   6.055   2.179  14.904 -0.2597  0.0941 -0.1445
 4151TIP3    H133944   6.109   2.102  14.919  2.9692  2.4634  1.7785
 4151TIP3    H233945   6.006   2.190  14.986  0.7458  1.0541  0.3530
 4152TIP3   OH233946   2.651   0.285   3.582 -0.1191 -0.7079  0.2261
 4152TIP3    H133947   2.558   0.262   3.582 -0.5538  0.9064  1.2895
 4152TIP3    H233948   2.682   0.258   3.669  0.5451 -1.6647 -0.2894
 4153TIP3   OH233949   2.629   1.753   0.978  0.1881  0.0224  0.1304
 4153TIP3    H133950   2.670   1.684   0.925 -0.9685  0.5177 -1.4871
 4153TIP3    H233951   2.598   1.817   0.914 -0.6532  1.0150  1.4755
 4154TIP3   OH233952   6.474   0.662   5.140 -0.7281 -0.5528  0.9431
 4154TIP3    H133953   6.544   0.653   5.204 -1.0356 -1.1296  1.2078
 4154TIP3    H233954   6.464   0.756   5.127 -1.1140 -0.3942  2.2497
 4155TIP3   OH233955   6.266   0.925   3.056  0.2558  0.2885 -0.1057
 4155TIP3    H133956   6.273   0.905   3.149  0.0078  0.9403  0.0602
 4155TIP3    H233957   6.173   0.917   3.037  0.3608 -0.2841 -0.4065
 4156TIP3   OH233958   6.597   2.990  11.534 -0.2127  0.0855 -0.0898
 4156TIP3    H133959   6.527   2.943  11.489 -1.0190  2.0377 -0.9988
 4156TIP3    H233960   6.616   3.064  11.477  1.6687  0.3434  0.8172
 4157TIP3   OH233961   4.578   0.936  14.366  0.0340  0.7555  0.0576
 4157TIP3    H133962   4.487   0.955  14.387 -0.6586 -1.4604 -0.6174
 4157TIP3    H233963   4.616   1.021  14.343 -2.4719  1.4813 -1.8488
 4158TIP3   OH233964   4.813   2.304  13.951  0.0785 -0.0859 -0.2648
 4158TIP3    H133965   4.842   2.311  13.860 -1.9477 -1.1503 -1.0435
 4158TIP3    H233966   4.730   2.352  13.954  0.2628  0.1952  1.1208
 4159TIP3   OH233967   5.031   6.614  14.977  0.0696 -0.0352  0.3901
 4159TIP3    H133968   4.968   6.543  14.968  1.6363 -1.3150 -1.5169
 4159TIP3    H233969   5.020   6.666  14.897  1.2949 -0.1859  0.1086
 4160TIP3   OH233970   6.051   6.018   2.584  0.7968  0.0437  0.3155
 4160TIP3    H133971   6.130   5.998   2.634  1.4741  2.1974  0.2216
 4160TIP3    H233972   5.981   6.016   2.650  0.9695 -1.4660  0.4776
 4161TIP3   OH233973   1.635   5.920   5.331 -0.6328  0.0896  0.3943
 4161TIP3    H133974   1.554   5.869   5.330 -0.4740 -0.1683 -0.1946
 4161TIP3    H233975   1.636   5.964   5.246 -0.5058  0.6544  0.6868
 4162TIP3   OH233976   0.285   2.390   3.619  0.3308  0.2904  0.5032
 4162TIP3    H133977   0.286   2.345   3.704  0.6100 -1.6973 -0.4879
 4162TIP3    H233978   0.210   2.352   3.573 -0.1450  1.7455  0.0386
 4163TIP3   OH233979   0.304   4.371  13.145  0.2757 -0.3342  0.0055
 4163TIP3    H133980   0.301   4.298  13.083  2.0088  0.7189 -1.4104
 4163TIP3    H233981   0.239   4.433  13.112  0.2805 -0.3330 -0.0017
 4164TIP3   OH233982   5.881   3.639  16.514  0.5095  0.3095 -0.2009
 4164TIP3    H133983   5.820   3.670  16.446 -0.1576  0.1212  0.2995
 4164TIP3    H233984   5.928   3.718  16.542 -0.3236  0.6734  0.2157
 4165TIP3   OH233985   2.076   5.268  10.738 -0.1376  0.0340 -0.2492
 4165TIP3    H133986   2.035   5.348  10.705 -0.9347 -0.2528  0.0344
 4165TIP3    H233987   2.134   5.298  10.807  1.4562  0.6328 -1.7593
 4166TIP3   OH233988   6.279   5.483   4.399  0.0228  0.1797 -0.8560
 4166TIP3    H133989   6.253   5.575   4.404 -1.4010 -0.2024 -0.8245
 4166TIP3    H233990   6.217   5.444   4.338 -0.3523 -1.0684  0.2761
 4167TIP3   OH233991   6.561   0.193   4.084  0.5532  0.3133  0.6751
 4167TIP3    H133992   6.477   0.149   4.099  0.8581 -0.6515 -0.3056
 4167TIP3    H233993   6.539   0.286   4.079 -0.2023  0.2395  2.1207
 4168TIP3   OH233994   2.436   1.123  13.879 -0.6624  0.3615 -0.2675
 4168TIP3    H133995   2.445   1.053  13.944  1.9699  0.9937  0.1647
 4168TIP3    H233996   2.354   1.166  13.901 -0.2273  0.0725  2.2050
 4169TIP3   OH233997   6.604   2.875   2.300 -0.3317 -0.0527 -0.1151
 4169TIP3    H133998   6.636   2.799   2.350 -2.3589 -0.6018  0.4371
 4169TIP3    H233999   6.548   2.837   2.232  2.2003  0.7063 -2.7956
 4170TIP3   OH234000   5.673   2.681   4.823 -0.1493 -0.3597 -0.6694
 4170TIP3    H134001   5.718   2.727   4.893  1.1667 -2.0830 -0.3108
 4170TIP3    H234002   5.724   2.700   4.744  1.1737 -2.1290 -0.3024
 4171TIP3   OH234003   1.650   5.588   0.842 -0.4306 -0.2592 -1.1232
 4171TIP3    H134004   1.575   5.578   0.783 -0.6575  0.5624 -0.9930
 4171TIP3    H234005   1.699   5.661   0.805 -0.8681  0.6390 -0.0149
 4172TIP3   OH234006   3.842   4.449   5.445 -0.1201 -0.3268 -0.1247
 4172TIP3    H134007   3.880   4.536   5.459 -2.1755  0.6342 -0.1077
 4172TIP3    H234008   3.894   4.411   5.374  0.1995  1.3350 -0.8311
 4173TIP3   OH234009   3.817   3.651   5.319  0.2635 -0.1414 -0.5098
 4173TIP3    H134010   3.875   3.586   5.358 -0.0483  0.5714  1.2586
 4173TIP3    H234011   3.730   3.612   5.323  0.0500  0.4177  0.7191
 4174TIP3   OH234012   2.611   2.634   0.552  0.2658  0.1952  0.1943
 4174TIP3    H134013   2.683   2.611   0.493 -0.2146  1.0184 -0.7362
 4174TIP3    H234014   2.643   2.610   0.639  0.1765 -3.0912 -0.5540
 4175TIP3   OH234015   5.784   3.943   1.884  0.0044 -0.4820  0.2477
 4175TIP3    H134016   5.844   4.015   1.900 -2.0896  0.9941  2.0575
 4175TIP3    H234017   5.835   3.864   1.905  1.1340  0.7427  2.4855
 4176TIP3   OH234018   0.844   1.483  12.641  0.1117  0.0236  0.6698
 4176TIP3    H134019   0.846   1.461  12.734 -0.3616 -0.4191  0.5793
 4176TIP3    H234020   0.756   1.519  12.626 -0.5506 -1.7149  0.0140
 4177TIP3   OH234021   6.025   2.091  16.050 -0.2496 -0.0930 -0.2656
 4177TIP3    H134022   6.106   2.109  16.002 -1.2021  2.8531 -1.0254
 4177TIP3    H234023   6.054   2.059  16.135  1.7506  0.9327 -0.4880
 4178TIP3   OH234024   3.490   1.304  12.576 -0.2522 -0.2084 -0.0873
 4178TIP3    H134025   3.504   1.375  12.638 -1.2871  0.2468 -0.3688
 4178TIP3    H234026   3.571   1.253  12.580  0.4261  0.8630  0.2658
 4179TIP3   OH234027   5.198   0.694  15.451 -0.0526 -0.4114 -0.0417
 4179TIP3    H134028   5.278   0.747  15.454  0.0819 -0.6572  1.1796
 4179TIP3    H234029   5.166   0.693  15.542 -0.2940 -2.0462 -0.1203
 4180TIP3   OH234030   0.385   2.325  14.498  0.1395  1.1258  0.1356
 4180TIP3    H134031   0.471   2.325  14.541  0.3810  0.3254 -0.3254
 4180TIP3    H234032   0.325   2.360  14.564  0.6802  0.9179  0.7459
 4181TIP3   OH234033   3.257   1.419   4.683  0.3290 -0.0783  0.9263
 4181TIP3    H134034   3.268   1.429   4.589 -2.2595 -1.4984  0.3567
 4181TIP3    H234035   3.316   1.348   4.708 -0.4883 -1.1650 -0.1014
 4182TIP3   OH234036   1.440   4.363   5.118  0.1845 -0.0810 -0.4284
 4182TIP3    H134037   1.490   4.348   5.038  0.4007 -0.2593 -0.2603
 4182TIP3    H234038   1.438   4.458   5.128  0.7382 -0.0859 -0.2765
 4183TIP3   OH234039   0.323   3.637   4.638 -0.3503  0.1431 -0.9393
 4183TIP3    H134040   0.321   3.659   4.545 -2.0367  2.1611 -0.5088
 4183TIP3    H234041   0.403   3.677   4.671 -0.9370  1.4844 -1.1051
 4184TIP3   OH234042   5.320   4.162   0.975  0.6677  0.0344  0.0314
 4184TIP3    H134043   5.239   4.133   0.935  0.8636  0.0912 -0.4103
 4184TIP3    H234044   5.347   4.238   0.923  0.9587  0.0667  0.2264
 4185TIP3   OH234045   3.982   6.325   2.632 -0.8310 -0.0164 -0.3458
 4185TIP3    H134046   3.960   6.259   2.698  2.5871 -0.3971  0.6325
 4185TIP3    H234047   3.949   6.407   2.667 -2.0830 -0.6936  0.1139
 4186TIP3   OH234048   5.195   3.181  14.626 -1.0833 -0.0401 -0.1225
 4186TIP3    H134049   5.216   3.118  14.694 -1.4991  0.2286  0.2618
 4186TIP3    H234050   5.099   3.184  14.624 -1.0827 -0.2925 -0.9513
 4187TIP3   OH234051   1.503   0.400   6.043 -0.0424  0.0950  0.2818
 4187TIP3    H134052   1.475   0.491   6.029  0.8837  0.5763  1.3209
 4187TIP3    H234053   1.546   0.402   6.129  0.2182 -1.2816  0.2013
 4188TIP3   OH234054   5.535   2.511  14.824  0.4074  0.4298  0.1627
 4188TIP3    H134055   5.614   2.538  14.777 -1.1591  1.2844 -2.1351
 4188TIP3    H234056   5.480   2.589  14.826 -1.0277 -0.5413  0.2816
 4189TIP3   OH234057   3.737   6.460   6.380  0.2299 -0.0513  0.2396
 4189TIP3    H134058   3.692   6.465   6.296 -0.9653 -0.5308  0.8217
 4189TIP3    H234059   3.740   6.550   6.412 -2.3806 -0.2449  1.2093
 4190TIP3   OH234060   2.212   4.341   3.392  0.3671 -0.1010  0.4647
 4190TIP3    H134061   2.232   4.248   3.383  0.1264 -0.1446  0.3855
 4190TIP3    H234062   2.159   4.362   3.315  0.3665  0.0867  0.5157
 4191TIP3   OH234063   3.129   1.074  16.826 -0.1009 -0.5785 -0.8497
 4191TIP3    H134064   3.177   1.142  16.779  0.4128 -2.0370 -2.5381
 4191TIP3    H234065   3.141   0.995  16.773 -1.7030 -1.7174  0.3923
 4192TIP3   OH234066   1.302   5.773   5.673 -0.2146 -0.4864  0.1355
 4192TIP3    H134067   1.333   5.857   5.707  0.1658 -1.6283  2.8470
 4192TIP3    H234068   1.225   5.796   5.620 -0.2884  1.5301  1.0176
 4193TIP3   OH234069   2.307   2.583   1.706 -0.0534 -0.5158 -0.2250
 4193TIP3    H134070   2.352   2.526   1.769  0.0010 -1.5036 -1.1229
 4193TIP3    H234071   2.375   2.610   1.645 -0.5432 -1.5986 -1.2929
 4194TIP3   OH234072   3.738   4.068   1.950 -0.5119 -0.7695 -0.2068
 4194TIP3    H134073   3.646   4.095   1.947 -1.0917 -2.6021 -0.3888
 4194TIP3    H234074   3.735   3.982   1.992  0.8017 -2.0595 -2.5672
 4195TIP3   OH234075   0.600   0.197  16.547  0.0470  0.0138 -0.0821
 4195TIP3    H134076   0.622   0.154  16.630 -1.2404 -0.0396  0.2439
 4195TIP3    H234077   0.683   0.237  16.518  0.8507 -1.1859  0.4898
 4196TIP3   OH234078   4.953   3.704   5.233  0.0373  0.6433  0.2921
 4196TIP3    H134079   5.001   3.786   5.241  1.5498 -0.1912  0.2089
 4196TIP3    H234080   4.890   3.718   5.163  1.1866  1.3179 -0.6259
 4197TIP3   OH234081   2.060   1.533   2.343  0.3029  0.2380 -0.5005
 4197TIP3    H134082   2.100   1.618   2.322  1.5863 -0.1939  0.0921
 4197TIP3    H234083   2.120   1.469   2.306 -0.4888 -0.4318 -0.6488
 4198TIP3   OH234084   6.314   1.121   2.614  0.7402 -0.0475  0.0770
 4198TIP3    H134085   6.239   1.122   2.554 -0.6472 -0.1451  1.7298
 4198TIP3    H234086   6.307   1.204   2.661  0.4976 -0.8983  1.5956
 4199TIP3   OH234087   0.673   4.193  16.289  0.2473  0.3071 -0.6235
 4199TIP3    H134088   0.703   4.227  16.205 -0.9610 -2.3219 -2.2348
 4199TIP3    H234089   0.582   4.168  16.274  0.1108 -0.6148  1.3657
 4200TIP3   OH234090   1.404   1.028  14.922  0.0913 -0.5898  0.1654
 4200TIP3    H134091   1.357   1.107  14.893 -0.5155 -0.9080  0.2661
 4200TIP3    H234092   1.385   0.963  14.854  1.6967 -0.2798 -0.6365
 4201TIP3   OH234093   6.420   6.423   0.518 -0.5736  0.0630 -0.8314
 4201TIP3    H134094   6.381   6.502   0.554 -0.0572 -0.8612  2.0345
 4201TIP3    H234095   6.345   6.364   0.504 -0.7495  0.2653 -0.7557
 4202TIP3   OH234096   6.598   2.018   2.908 -0.4427  0.0252 -0.4673
 4202TIP3    H134097   6.660   2.068   2.960 -0.3831  2.5929 -2.7901
 4202TIP3    H234098   6.523   2.076   2.897 -1.3852 -1.3042 -1.4111
 4203TIP3   OH234099   5.544   4.624   3.413 -0.4936  0.2263  0.5865
 4203TIP3    H134100   5.582   4.567   3.479  0.4800  0.5535  0.3291
 4203TIP3    H234101   5.472   4.573   3.375  0.8294 -1.1559 -0.1838
 4204TIP3   OH234102   3.860   1.656   6.675 -0.1990  0.2694  0.5211
 4204TIP3    H134103   3.803   1.602   6.728  0.6851  0.0969  1.3228
 4204TIP3    H234104   3.802   1.695   6.609 -1.4176  0.8505  1.8694
 4205TIP3   OH234105   5.289   1.170  13.543 -0.1410 -0.4715 -0.6195
 4205TIP3    H134106   5.384   1.180  13.535 -0.0734  0.4213  1.0258
 4205TIP3    H234107   5.254   1.256  13.520 -0.6634 -1.1073 -2.3605
 4206TIP3   OH234108   4.806   0.014   0.340  0.5704 -0.5215 -0.1300
 4206TIP3    H134109   4.813  -0.082   0.337 -1.8669 -0.7934  0.7857
 4206TIP3    H234110   4.718   0.033   0.308  0.4927  1.3005  0.9895
 4207TIP3   OH234111   5.111   3.125  12.386  0.0004 -0.8616 -0.6790
 4207TIP3    H134112   5.168   3.121  12.309 -1.1240  0.8858 -1.6660
 4207TIP3    H234113   5.046   3.056  12.372 -0.3772 -0.3637 -1.4886
 4208TIP3   OH234114   0.596   5.177   1.355  0.2740 -0.0542  0.0657
 4208TIP3    H134115   0.522   5.173   1.416 -0.3803  1.3295 -0.5853
 4208TIP3    H234116   0.669   5.209   1.408  0.3521 -1.1671  0.6505
 4209TIP3   OH234117   1.596   5.573   1.244 -0.3524  0.4332  0.1991
 4209TIP3    H134118   1.547   5.642   1.199  0.1443  0.3786 -0.4436
 4209TIP3    H234119   1.550   5.560   1.327 -0.5457  1.4167  0.2486
 4210TIP3   OH234120   2.924   0.365  12.661  0.6277 -0.0968  0.4303
 4210TIP3    H134121   2.910   0.283  12.708  0.4156 -0.5999 -0.4806
 4210TIP3    H234122   2.942   0.430  12.729  0.0827 -0.7497  1.2024
 4211TIP3   OH234123   2.537   5.387  12.217 -0.5126 -0.3418  0.1768
 4211TIP3    H134124   2.562   5.474  12.186  2.3069 -1.2295 -0.3531
 4211TIP3    H234125   2.526   5.397  12.311  1.5569  0.3124  0.4016
 4212TIP3   OH234126   6.238   3.712   0.457  0.4224  0.1940 -0.0331
 4212TIP3    H134127   6.207   3.749   0.540 -1.7632 -0.0137 -0.7044
 4212TIP3    H234128   6.302   3.775   0.426  0.0747  1.1104  1.0324
 4213TIP3   OH234129   4.432   1.615  16.192 -0.4436 -0.6879 -0.0503
 4213TIP3    H134130   4.345   1.574  16.193 -1.2630  0.9731  0.4378
 4213TIP3    H234131   4.425   1.689  16.252  1.8136 -1.4145  1.2495
 4214TIP3   OH234132   4.078   2.567   2.208 -0.3806 -0.1528 -0.5245
 4214TIP3    H134133   4.060   2.621   2.285  0.0134  0.2952 -0.7398
 4214TIP3    H234134   3.998   2.573   2.156 -0.4039  0.0942 -0.4644
 4215TIP3   OH234135   2.934   3.884  16.777  0.2783  0.2931 -0.6198
 4215TIP3    H134136   2.907   3.916  16.690  0.7151 -1.5423 -1.4921
 4215TIP3    H234137   2.867   3.819  16.799  0.6314  0.1513  0.0430
 4216TIP3   OH234138   1.295   1.526  16.581 -0.0276 -0.5842  0.2902
 4216TIP3    H134139   1.298   1.552  16.489  1.5534 -2.8989 -0.3999
 4216TIP3    H234140   1.203   1.505  16.597 -0.8030  2.2766  0.0484
 4217TIP3   OH234141   5.692   1.558  16.096 -0.7185  0.2569  0.4328
 4217TIP3    H134142   5.684   1.648  16.127  0.8379  0.8143 -0.6260
 4217TIP3    H234143   5.652   1.559  16.010  1.2854  0.5761 -0.5681
 4218TIP3   OH234144   0.904   4.028  13.873 -0.3711  0.3920 -0.1233
 4218TIP3    H134145   0.999   4.039  13.866 -0.1020 -0.4631  1.6423
 4218TIP3    H234146   0.876   4.093  13.937 -0.5993 -0.8012  1.0416
 4219TIP3   OH234147   4.270   2.783  13.137  0.2887  0.3445 -0.3741
 4219TIP3    H134148   4.175   2.796  13.136  0.1972 -0.2781 -0.3081
 4219TIP3    H234149   4.283   2.709  13.196  0.8764  0.8466  0.1420
 4220TIP3   OH234150   6.037   4.676   3.111  0.1677 -0.3296  0.1973
 4220TIP3    H134151   6.036   4.655   3.018  0.8913 -2.2159  0.5805
 4220TIP3    H234152   6.129   4.667   3.137 -0.2799 -1.6671  1.4591
 4221TIP3   OH234153   2.765   6.024   2.473 -0.6927  0.0580  0.2413
 4221TIP3    H134154   2.758   6.088   2.543 -0.2893  0.5183 -0.1364
 4221TIP3    H234155   2.761   5.939   2.518 -0.8265  0.3455  0.7789
 4222TIP3   OH234156   4.706   2.100  11.186 -0.0153  0.2389 -0.9849
 4222TIP3    H134157   4.628   2.154  11.170  0.5308  0.8983 -1.4754
 4222TIP3    H234158   4.765   2.123  11.115  0.9496  0.3451 -0.1622
 4223TIP3   OH234159   3.609   3.484  15.864 -0.5125  0.3164  0.3907
 4223TIP3    H134160   3.661   3.417  15.908 -1.7897 -0.4937  0.7151
 4223TIP3    H234161   3.595   3.450  15.776  1.7315  1.7727 -0.6385
 4224TIP3   OH234162   1.889   4.224  14.677 -0.0977  0.4267  0.3428
 4224TIP3    H134163   1.914   4.234  14.585 -1.7713  1.0108 -0.1008
 4224TIP3    H234164   1.965   4.186  14.719  0.5867 -0.2056 -1.3679
 4225TIP3   OH234165   0.364   4.298  11.375 -0.2529  0.1232  0.2319
 4225TIP3    H134166   0.303   4.287  11.448 -0.0855 -0.8932  0.2428
 4225TIP3    H234167   0.414   4.376  11.397  0.2657 -0.5540  1.5792
 4226TIP3   OH234168   2.235   2.444  11.515  0.3345 -0.0233 -0.2287
 4226TIP3    H134169   2.285   2.379  11.466 -0.6043 -1.3409  0.4927
 4226TIP3    H234170   2.144   2.427  11.492  0.0778  1.2757 -0.2803
 4227TIP3   OH234171   2.457   5.955  17.159 -0.0037 -0.7539 -0.2643
 4227TIP3    H134172   2.472   6.024  17.095  2.3186 -0.2703  0.7093
 4227TIP3    H234173   2.544   5.933  17.192 -0.8340 -3.0675  0.5982
 4228TIP3   OH234174   5.484   5.490   2.728 -0.4947  0.0906 -0.0556
 4228TIP3    H134175   5.546   5.483   2.800  1.4741  0.6731 -1.6137
 4228TIP3    H234176   5.411   5.541   2.764  1.5643  2.5941  0.8486
 4229TIP3   OH234177   4.169   6.520   4.290 -0.1482 -0.0714  0.2314
 4229TIP3    H134178   4.092   6.495   4.238 -0.2274  0.1639  0.2347
 4229TIP3    H234179   4.211   6.437   4.312 -0.5937 -0.2236  0.5249
 4230TIP3   OH234180   1.997   2.206  11.890 -0.1132 -0.0132 -0.0835
 4230TIP3    H134181   1.936   2.229  11.960  0.2858  1.0411 -0.0664
 4230TIP3    H234182   1.973   2.265  11.818 -0.3498 -0.9075 -0.7417
 4231TIP3   OH234183   5.947   0.931  14.145 -0.3661 -0.5416 -0.2930
 4231TIP3    H134184   5.883   0.966  14.083 -1.2090 -0.7589  0.4490
 4231TIP3    H234185   6.032   0.955  14.107 -0.8752  2.2855  0.1582
 4232TIP3   OH234186   0.916   3.765   2.565 -0.4040  0.1756  0.6857
 4232TIP3    H134187   0.927   3.856   2.593 -0.3528  0.5755 -0.5953
 4232TIP3    H234188   0.821   3.756   2.551 -0.4584 -0.0943  1.1927
 4233TIP3   OH234189   2.144   4.365   0.158  0.0420 -0.0590  0.3264
 4233TIP3    H134190   2.095   4.389   0.079  0.0956  0.6140  0.4951
 4233TIP3    H234191   2.160   4.271   0.148  1.7216  0.3464 -1.4161
 4234TIP3   OH234192   5.531   1.593  13.510  0.3207 -0.1184 -0.3952
 4234TIP3    H134193   5.603   1.649  13.481  0.7309  0.0899  0.9635
 4234TIP3    H234194   5.453   1.648  13.502  0.5142  0.1469 -0.4902
 4235TIP3   OH234195   2.608   4.857   0.328 -0.2902 -0.2068 -0.5514
 4235TIP3    H134196   2.579   4.788   0.388  1.7209 -0.2202  0.4949
 4235TIP3    H234197   2.570   4.834   0.244 -2.1326 -0.9170  0.4119
 4236TIP3   OH234198   0.779   6.439   0.550  0.0299  0.1705 -0.6070
 4236TIP3    H134199   0.698   6.439   0.602  0.7766  0.9875  0.6106
 4236TIP3    H234200   0.749   6.445   0.460 -1.2915 -0.3290 -0.2285
 4237TIP3   OH234201   1.140   1.472   1.471 -0.2963  0.8570 -0.0708
 4237TIP3    H134202   1.044   1.473   1.469 -0.2903  0.5247 -1.0409
 4237TIP3    H234203   1.165   1.556   1.432 -0.1897  0.9378  0.1707
 4238TIP3   OH234204   4.548   4.314  12.421 -0.1003 -0.8679  0.2302
 4238TIP3    H134205   4.517   4.312  12.331  0.5650 -2.1341  0.0020
 4238TIP3    H234206   4.607   4.239  12.428  0.0931 -0.6209  1.6377
 4239TIP3   OH234207   0.057   2.645   2.090  0.1106  0.0433  0.0935
 4239TIP3    H134208   0.132   2.606   2.047 -1.3412 -0.6554 -1.9321
 4239TIP3    H234209   0.032   2.718   2.033 -1.1995 -0.2206  0.2946
 4240TIP3   OH234210   1.484   2.328   0.407  0.2276 -0.6334  0.0460
 4240TIP3    H134211   1.503   2.280   0.327 -0.2740 -2.0220  0.7291
 4240TIP3    H234212   1.465   2.417   0.378  1.7123 -0.6959 -1.2008
 4241TIP3   OH234213   2.637   0.624  12.222 -0.0854 -0.4738  0.3991
 4241TIP3    H134214   2.600   0.645  12.307 -0.1292 -1.5466  0.6691
 4241TIP3    H234215   2.727   0.597  12.241  0.1693  0.0694  0.0003
 4242TIP3   OH234216   4.764   3.533   5.747  0.1559 -0.3542 -0.3024
 4242TIP3    H134217   4.760   3.528   5.652 -3.1205 -1.5239 -0.2309
 4242TIP3    H234218   4.680   3.570   5.773 -0.5781 -3.3477  2.2140
 4243TIP3   OH234219   3.445   0.030  14.926  0.1502  0.0379 -0.0175
 4243TIP3    H134220   3.526   0.068  14.960 -0.7613  0.9227  1.2347
 4243TIP3    H234221   3.378   0.055  14.990 -0.7882 -2.3386  0.0112
 4244TIP3   OH234222   2.651   5.581   4.743  0.7193 -0.0534  0.7036
 4244TIP3    H134223   2.647   5.663   4.693  2.4062  0.0447  0.6824
 4244TIP3    H234224   2.646   5.609   4.835 -2.5241 -0.2425  0.7271
 4245TIP3   OH234225   2.415   0.829   4.711  0.0341 -0.3499 -0.1786
 4245TIP3    H134226   2.436   0.736   4.714  0.1788 -0.3521 -1.1707
 4245TIP3    H234227   2.466   0.863   4.638  0.2976  0.5938  0.4315
 4246TIP3   OH234228   2.219   0.495  16.313 -0.6223  0.1547  0.2596
 4246TIP3    H134229   2.146   0.550  16.340 -0.6445  0.4881 -0.4477
 4246TIP3    H234230   2.276   0.553  16.262 -0.2876 -0.2976  0.1071
 4247TIP3   OH234231   6.377   1.050   4.060  0.6754  0.3517  0.0411
 4247TIP3    H134232   6.363   0.968   4.107  0.6983  1.1946  1.5857
 4247TIP3    H234233   6.368   1.027   3.968  1.2341 -1.4821  0.4141
 4248TIP3   OH234234   0.368   1.644  14.189  0.2838  0.2565 -0.3633
 4248TIP3    H134235   0.342   1.554  14.166  2.3315 -0.5310  0.1984
 4248TIP3    H234236   0.383   1.686  14.105  2.4155 -0.9486 -0.6579
 4249TIP3   OH234237   2.113   1.057  12.932  0.1901  0.2477 -0.6773
 4249TIP3    H134238   2.191   1.111  12.946  0.3701 -0.3466  0.8575
 4249TIP3    H234239   2.148   0.972  12.903  0.0267  0.3228 -1.1106
 4250TIP3   OH234240   6.317   2.221  16.944 -0.8233 -0.2280  0.4512
 4250TIP3    H134241   6.296   2.160  16.873 -1.8225  1.0999 -0.4575
 4250TIP3    H234242   6.255   2.292  16.933 -1.1590 -0.0671  2.8302
 4251TIP3   OH234243   6.363   1.532   2.893  0.1961  0.3271  0.0338
 4251TIP3    H134244   6.370   1.599   2.962  1.5708  0.3536 -0.0941
 4251TIP3    H234245   6.453   1.522   2.861  0.0751 -1.8108  0.2443
 4252TIP3   OH234246   0.824   3.558  15.322  0.1509  0.1031 -0.5924
 4252TIP3    H134247   0.810   3.652  15.334  1.0208  0.1514  0.1222
 4252TIP3    H234248   0.740   3.526  15.287 -0.7715  0.8226  0.8764
 4253TIP3   OH234249   6.025   5.255  12.455  0.8390 -0.8009 -0.0416
 4253TIP3    H134250   5.961   5.206  12.403  0.1447 -0.2452  0.2789
 4253TIP3    H234251   6.108   5.209  12.440  0.4062 -1.4134 -0.6148
 4254TIP3   OH234252   0.913   6.161   4.660  0.3024  0.3972 -0.3964
 4254TIP3    H134253   0.872   6.202   4.584 -3.3184  2.2907  2.2190
 4254TIP3    H234254   0.984   6.221   4.684  0.9724  0.1841 -1.7932
 4255TIP3   OH234255   0.506   5.213   0.009 -0.2674  0.0116  0.0519
 4255TIP3    H134256   0.531   5.249  -0.077 -0.9950  0.1597 -0.0982
 4255TIP3    H234257   0.542   5.124   0.007 -0.0807  0.0891 -0.3175
 4256TIP3   OH234258   2.132   6.213   0.484  0.7334 -0.0127  0.2109
 4256TIP3    H134259   2.206   6.154   0.500 -1.1020 -2.4347  0.3794
 4256TIP3    H234260   2.133   6.274   0.557  3.2880  0.8597 -0.4748
 4257TIP3   OH234261   6.807   0.445  13.824  0.2987  0.0176  0.6018
 4257TIP3    H134262   6.824   0.522  13.879  0.6212  0.8884 -0.6791
 4257TIP3    H234263   6.871   0.452  13.753 -0.7072 -0.5723 -0.3886
 4258TIP3   OH234264   1.165   6.606   1.675  0.3497  0.0554 -0.3659
 4258TIP3    H134265   1.188   6.524   1.631  0.1680  0.2364 -0.8081
 4258TIP3    H234266   1.213   6.604   1.757  0.3292 -0.5055 -0.3660
 4259TIP3   OH234267   0.292   1.237  15.731  0.0842  0.1091  0.0021
 4259TIP3    H134268   0.289   1.332  15.742  2.3807  0.4382 -1.6425
 4259TIP3    H234269   0.329   1.204  15.813 -0.1257  0.6874  0.3308
 4260TIP3   OH234270   0.392   3.403  10.896 -0.4847  0.1154  0.5607
 4260TIP3    H134271   0.481   3.369  10.904 -0.2526  0.1995 -1.2444
 4260TIP3    H234272   0.393   3.454  10.815 -2.6767 -1.4979 -0.5874
 4261TIP3   OH234273   1.991   0.386   0.038  0.0597 -0.2605 -0.0993
 4261TIP3    H134274   1.973   0.393  -0.055 -0.3925  0.2980  0.0218
 4261TIP3    H234275   1.936   0.314   0.068  1.5684 -1.6611 -0.5882
 4262TIP3   OH234276   3.610   4.699   5.627 -0.1252  0.7115  0.4806
 4262TIP3    H134277   3.694   4.711   5.672 -0.5354  0.7286  1.2544
 4262TIP3    H234278   3.547   4.745   5.682 -0.6073  0.8947 -0.2225
 4263TIP3   OH234279   4.712   5.493  13.250 -0.3638 -0.2745 -0.1646
 4263TIP3    H134280   4.782   5.430  13.233  0.7134  1.1947 -1.5771
 4263TIP3    H234281   4.754   5.578  13.236 -1.5964  0.8108  2.2501
 4264TIP3   OH234282   3.686   6.192  12.631 -0.2892 -0.7807  0.1948
 4264TIP3    H134283   3.698   6.283  12.605 -1.7916 -0.7380 -0.4393
 4264TIP3    H234284   3.694   6.193  12.727 -2.0943  0.3517  0.3680
 4265TIP3   OH234285   0.179   2.025  12.934 -0.1379  0.3839  0.4369
 4265TIP3    H134286   0.105   2.065  12.888  0.3395 -0.1140 -0.8248
 4265TIP3    H234287   0.256   2.061  12.892  0.3234 -2.2106 -1.1993
 4266TIP3   OH234288   1.197   2.846  10.277 -0.2801  0.4855  0.9287
 4266TIP3    H134289   1.129   2.875  10.337 -0.4184 -2.1270  2.1912
 4266TIP3    H234290   1.276   2.891  10.306 -0.9056  1.4158  1.2308
 4267TIP3   OH234291   4.113   0.817  12.553 -0.0663  0.4746  0.2101
 4267TIP3    H134292   4.121   0.881  12.623  1.4005  0.1704  0.3510
 4267TIP3    H234293   4.191   0.762  12.562 -0.9110 -0.8760 -0.3603
 4268TIP3   OH234294   3.112   2.213   1.060 -0.5525 -0.4510  0.4683
 4268TIP3    H134295   3.063   2.152   1.004 -0.3712  0.1401 -0.3539
 4268TIP3    H234296   3.157   2.156   1.123 -1.8419 -1.0415  0.8995
 4269TIP3   OH234297   6.429   6.257   4.424  0.0470  0.4770  0.0134
 4269TIP3    H134298   6.349   6.231   4.377 -1.6813  2.1231  1.8572
 4269TIP3    H234299   6.461   6.333   4.376  0.2448  0.1187 -0.4351
 4270TIP3   OH234300   5.401   2.315  16.872 -0.2616  0.1039  0.5241
 4270TIP3    H134301   5.494   2.303  16.852 -0.2883  0.0791  0.4165
 4270TIP3    H234302   5.392   2.408  16.893 -0.1549  0.0451  0.8330
 4271TIP3   OH234303   5.176   4.595  13.825 -0.0781 -0.5621 -0.4712
 4271TIP3    H134304   5.256   4.553  13.794  0.3987 -0.3484  0.4177
 4271TIP3    H234305   5.205   4.682  13.855 -0.4146 -0.9311  0.9895
 4272TIP3   OH234306   1.372   2.246   5.488  0.1549  0.1203 -0.0065
 4272TIP3    H134307   1.287   2.217   5.521 -0.0040 -0.3652 -0.7912
 4272TIP3    H234308   1.401   2.312   5.550 -0.9932  0.6023  0.0420
 4273TIP3   OH234309   0.594   0.015  11.472 -0.3300 -0.3638 -0.1313
 4273TIP3    H134310   0.552   0.073  11.535  0.8957  0.3830  0.0394
 4273TIP3    H234311   0.676   0.060  11.450 -0.7670 -0.5416 -2.3390
 4274TIP3   OH234312   3.787   1.607   0.415  0.9504  0.3902  0.3593
 4274TIP3    H134313   3.854   1.569   0.357  0.2674  0.1957 -0.3100
 4274TIP3    H234314   3.772   1.695   0.379 -0.7211 -0.3457 -0.8316
 4275TIP3   OH234315   6.663   3.121  14.114  0.7571 -0.1879  0.2125
 4275TIP3    H134316   6.693   3.200  14.069  2.4524 -0.7863  0.2043
 4275TIP3    H234317   6.716   3.051  14.077 -0.2816 -1.2483  0.6599
 4276TIP3   OH234318   3.511   5.621  16.755  0.0527 -0.6827 -0.1496
 4276TIP3    H134319   3.431   5.616  16.703  0.4394  0.1982 -0.8559
 4276TIP3    H234320   3.572   5.673  16.701  0.9639 -0.9992  0.5427
 4277TIP3   OH234321   6.386   5.106   0.764 -0.0029 -0.0473 -0.6414
 4277TIP3    H134322   6.373   5.019   0.725 -0.3408 -0.2866 -0.0036
 4277TIP3    H234323   6.300   5.148   0.757 -0.2568 -0.3452  0.4447
 4278TIP3   OH234324   4.767   1.262   1.543 -0.6293  0.0293  0.4301
 4278TIP3    H134325   4.772   1.238   1.635 -0.7678  0.8860  0.6754
 4278TIP3    H234326   4.834   1.330   1.532 -0.9184  0.2514  0.0107
 4279TIP3   OH234327   2.571   2.815   0.012  0.1749  0.7428  0.3946
 4279TIP3    H134328   2.619   2.812   0.095  0.9507 -0.0880 -0.0754
 4279TIP3    H234329   2.608   2.744  -0.040 -0.5699  1.0148 -0.5309
 4280TIP3   OH234330   0.339   5.072  12.850 -0.3167 -0.3986  0.2112
 4280TIP3    H134331   0.321   5.029  12.934 -0.2294 -0.3207  0.2705
 4280TIP3    H234332   0.434   5.080  12.847 -0.1567 -2.1705 -0.7743
 4281TIP3   OH234333   2.512   3.202  13.199  0.2288  0.0245  0.6803
 4281TIP3    H134334   2.590   3.206  13.143 -2.0195 -0.9127 -2.7937
 4281TIP3    H234335   2.540   3.149  13.274  2.7246 -0.9979 -0.8275
 4282TIP3   OH234336   6.232   1.022   4.766 -0.2247  0.3447  0.5055
 4282TIP3    H134337   6.295   1.047   4.834 -0.3651 -1.0136  1.1642
 4282TIP3    H234338   6.203   1.106   4.729  1.2337  1.0312  0.8430
 4283TIP3   OH234339   2.301   0.571   4.772 -0.3902 -0.3672  0.3084
 4283TIP3    H134340   2.219   0.620   4.775 -0.3717 -0.2560 -0.5590
 4283TIP3    H234341   2.276   0.485   4.737 -0.4440 -1.0411  1.9464
 4284TIP3   OH234342   5.218   2.885  13.779  0.0592 -0.0509  0.4331
 4284TIP3    H134343   5.178   2.873  13.865  1.0306  0.2514  0.9402
 4284TIP3    H234344   5.290   2.821  13.777  0.1008  0.0085 -0.1184
 4285TIP3   OH234345   2.931   2.805   3.952 -0.0315 -0.3288 -0.4986
 4285TIP3    H134346   2.849   2.835   3.912 -0.3208  0.4216  0.5952
 4285TIP3    H234347   2.941   2.715   3.923 -0.7177 -0.1028 -1.4695
 4286TIP3   OH234348   4.247   3.943   1.841 -0.5616  0.5212  0.0463
 4286TIP3    H134349   4.160   3.983   1.839 -1.4948 -1.3225  1.0344
 4286TIP3    H234350   4.239   3.865   1.787  0.3668  0.0942  0.4977
 4287TIP3   OH234351   4.849   2.721  13.640  0.1617 -0.2153  0.2088
 4287TIP3    H134352   4.922   2.666  13.668 -0.2987 -1.2617 -0.5625
 4287TIP3    H234353   4.883   2.770  13.565  0.3367 -0.0071  0.4201
 4288TIP3   OH234354   2.647   5.014   0.753 -0.3071 -0.2389 -0.7662
 4288TIP3    H134355   2.587   5.059   0.694 -0.1067 -0.0999 -0.8668
 4288TIP3    H234356   2.724   4.996   0.700  1.0401  2.3859  0.1477
 4289TIP3   OH234357   0.278   0.748   4.107 -0.1546 -0.5694 -0.3337
 4289TIP3    H134358   0.267   0.697   4.188  1.5881 -1.0926 -0.3760
 4289TIP3    H234359   0.226   0.827   4.121  0.9631 -0.1093  1.8080
 4290TIP3   OH234360   6.359   6.575  11.598  0.1092 -0.0736  0.7325
 4290TIP3    H134361   6.390   6.489  11.625  2.3350  0.6671  0.7336
 4290TIP3    H234362   6.439   6.628  11.589 -1.0201  1.4379 -1.2618
 4291TIP3   OH234363   5.204   0.669  11.779  0.5411 -0.2926 -0.4844
 4291TIP3    H134364   5.144   0.595  11.774  0.8020 -0.4191 -2.4966
 4291TIP3    H234365   5.269   0.653  11.711  0.4006  1.9491 -1.2404
 4292TIP3   OH234366   4.365   2.786  12.323 -0.2544  0.8963  0.3197
 4292TIP3    H134367   4.375   2.715  12.386  0.1620  2.2424  1.8302
 4292TIP3    H234368   4.275   2.776  12.291  0.6278 -1.9964 -1.7207
 4293TIP3   OH234369   4.155   0.368  16.905  0.4786  0.6582 -0.1680
 4293TIP3    H134370   4.234   0.404  16.945  0.0804  0.5153  0.7790
 4293TIP3    H234371   4.148   0.412  16.821 -0.0749  2.9883  1.0072
 4294TIP3   OH234372   5.002   5.452   4.278  0.0777 -0.0793 -0.3673
 4294TIP3    H134373   5.007   5.499   4.195 -0.1549  2.5954  1.0496
 4294TIP3    H234374   5.036   5.365   4.258  1.5738  0.9854 -2.8739
 4295TIP3   OH234375   0.321   6.283  14.591  0.1244 -0.5304  0.0134
 4295TIP3    H134376   0.346   6.375  14.598 -1.2403 -0.1029 -0.4820
 4295TIP3    H234377   0.370   6.240  14.662  2.1140  0.2436 -0.8176
 4296TIP3   OH234378   6.045   1.841   0.304 -0.1346  0.0009 -0.0671
 4296TIP3    H134379   6.006   1.763   0.264 -0.5422 -0.7598  1.7158
 4296TIP3    H234380   6.086   1.887   0.231 -1.6204 -0.8302 -1.4954
 4297TIP3   OH234381   2.425   3.139  13.774  0.1815  0.0996 -0.4750
 4297TIP3    H134382   2.429   3.044  13.785 -2.1298 -0.0392 -0.4244
 4297TIP3    H234383   2.375   3.170  13.849  1.7776  1.5198  0.0610
 4298TIP3   OH234384   4.082   5.742  12.611  0.1523 -0.0133 -0.0794
 4298TIP3    H134385   3.996   5.718  12.576  0.8980 -0.6105 -1.6052
 4298TIP3    H234386   4.088   5.837  12.596 -0.1107 -0.0200 -0.2375
 4299TIP3   OH234387   6.377   4.285  12.304  0.0080 -0.2925 -0.0757
 4299TIP3    H134388   6.366   4.264  12.212 -1.3792  0.7905 -0.1892
 4299TIP3    H234389   6.365   4.202  12.350 -1.0922 -0.5249 -0.7649
 4300TIP3   OH234390   4.212   4.323  15.761 -0.2623  0.3686 -0.0615
 4300TIP3    H134391   4.119   4.304  15.747 -0.0166 -0.8322 -0.1296
 4300TIP3    H234392   4.224   4.315  15.856 -0.6332  2.5753  0.2477
 4301TIP3   OH234393   2.821   4.700   6.209  0.0767 -0.0844  0.9510
 4301TIP3    H134394   2.747   4.747   6.246 -0.6767 -1.4582  1.2563
 4301TIP3    H234395   2.896   4.725   6.263 -0.5574 -0.2463  1.9134
 4302TIP3   OH234396   4.744   2.620  12.490 -0.3532 -0.1048  0.4101
 4302TIP3    H134397   4.795   2.642  12.413  1.9857  0.3549  1.9758
 4302TIP3    H234398   4.676   2.687  12.494  1.1672  1.5188  0.2038
 4303TIP3   OH234399   3.335   0.105  10.801  1.1442  0.9632  0.0820
 4303TIP3    H134400   3.321   0.190  10.759  0.6830  1.1015  0.5048
 4303TIP3    H234401   3.299   0.115  10.889  3.9372  1.3246  1.2807
 4304TIP3   OH234402   5.959   6.429   2.136  0.1602 -0.3184  0.0614
 4304TIP3    H134403   6.049   6.400   2.153  0.5287  0.2806 -0.7970
 4304TIP3    H234404   5.966   6.481   2.056 -0.6331  1.3766  1.0506
 4305TIP3   OH234405   0.039   3.138  15.184 -0.2209  0.2119  0.1299
 4305TIP3    H134406  -0.026   3.076  15.152  1.2101 -1.8687  1.0672
 4305TIP3    H234407  -0.009   3.194  15.244 -1.9340  1.2629 -2.0677
 4306TIP3   OH234408   4.679   2.489   1.531 -0.0711  0.3785 -0.3251
 4306TIP3    H134409   4.672   2.514   1.439  2.5543  0.6837 -0.5251
 4306TIP3    H234410   4.765   2.446   1.538  0.0227  0.7860  2.0634
 4307TIP3   OH234411   2.001   2.177  15.641  0.1638 -0.1685 -0.3715
 4307TIP3    H134412   2.086   2.219  15.626  0.4503  0.1786  1.8630
 4307TIP3    H234413   1.942   2.249  15.661  0.1719 -0.6010  1.4188
 4308TIP3   OH234414   5.706   0.600  16.765  0.2581  0.2608  0.0428
 4308TIP3    H134415   5.726   0.570  16.854  0.0267  1.8309  0.6516
 4308TIP3    H234416   5.671   0.522  16.721  0.7945 -0.6561  1.1779
 4309TIP3   OH234417   4.236   5.578   2.206  0.2887 -0.0340 -1.2339
 4309TIP3    H134418   4.170   5.625   2.256  0.0260 -0.9176 -0.7369
 4309TIP3    H234419   4.186   5.519   2.149  0.6286 -1.5574 -0.0340
 4310TIP3   OH234420   3.015   6.824   5.627 -0.1126  0.3741  0.0161
 4310TIP3    H134421   3.013   6.761   5.699  0.3123 -1.3230 -1.3888
 4310TIP3    H234422   3.062   6.899   5.662  1.1236 -0.8752  1.1789
 4311TIP3   OH234423   0.473   3.160  13.855 -0.5432 -0.1616  0.4786
 4311TIP3    H134424   0.494   3.143  13.947  0.9684 -0.2295  0.1439
 4311TIP3    H234425   0.533   3.231  13.830 -1.6466  0.5693 -0.1875
 4312TIP3   OH234426   5.535   2.695  14.053 -0.5987 -0.0008 -0.0582
 4312TIP3    H134427   5.533   2.769  13.992  2.4422  2.2463  2.2136
 4312TIP3    H234428   5.479   2.723  14.126 -0.3771 -0.4712  0.2953
 4313TIP3   OH234429   6.782   5.286  10.684 -0.2377  0.1801  0.1177
 4313TIP3    H134430   6.857   5.325  10.729 -1.4283  3.3459 -0.3916
 4313TIP3    H234431   6.718   5.272  10.753 -0.5763  1.1909  0.0223
 4314TIP3   OH234432   1.050   1.371   4.964 -0.0109  0.5704  0.8066
 4314TIP3    H134433   0.987   1.443   4.962 -2.2092 -1.1114  3.2037
 4314TIP3    H234434   1.128   1.409   5.005  0.0218  2.2701 -0.7082
 4315TIP3   OH234435   3.850   6.015   1.197 -0.5583 -0.1450 -0.0066
 4315TIP3    H134436   3.891   5.965   1.126  2.5247 -0.4927  1.8583
 4315TIP3    H234437   3.827   6.099   1.156 -0.5138 -0.9595 -1.7933
 4316TIP3   OH234438   4.323   3.876  14.091  0.5266  0.0189  0.3760
 4316TIP3    H134439   4.279   3.954  14.056  1.6196  0.2017 -0.6466
 4316TIP3    H234440   4.264   3.804  14.069  0.4954  0.3116 -0.5612
 4317TIP3   OH234441   3.362   2.923  13.844 -0.1740  0.1105 -0.6403
 4317TIP3    H134442   3.399   3.009  13.861 -2.5719  1.2441 -0.7865
 4317TIP3    H234443   3.377   2.874  13.926  2.0001  0.3031 -0.8744
 4318TIP3   OH234444   3.273   2.125  12.449 -0.2082 -0.1848  0.1061
 4318TIP3    H134445   3.302   2.216  12.447  0.2378 -0.3249  0.0390
 4318TIP3    H234446   3.180   2.130  12.472 -0.1223  0.2699  0.3667
 4319TIP3   OH234447   3.730   1.696  12.551 -0.1331  0.6032 -0.0447
 4319TIP3    H134448   3.743   1.691  12.456 -1.5436 -0.1793 -0.2172
 4319TIP3    H234449   3.725   1.605  12.579 -0.6984  0.8351  0.6335
 4320TIP3   OH234450   1.814   6.783   3.754 -0.2047 -0.1167  0.2131
 4320TIP3    H134451   1.875   6.776   3.681 -0.6742  0.3839 -0.2381
 4320TIP3    H234452   1.734   6.742   3.722 -0.1810 -0.5842  0.7288
 4321TIP3   OH234453   6.345   6.459   3.894 -0.4329 -0.2556 -0.0272
 4321TIP3    H134454   6.433   6.497   3.896 -0.8006  0.8810 -2.2099
 4321TIP3    H234455   6.360   6.364   3.894  0.8939 -0.0899 -1.5226
 4322TIP3   OH234456   3.472   4.079   2.364 -0.7995 -0.3991  0.2997
 4322TIP3    H134457   3.518   4.161   2.343  0.7777 -1.5927 -1.1411
 4322TIP3    H234458   3.389   4.087   2.319 -0.1075 -0.1289 -0.9719
 4323TIP3   OH234459   6.360   1.030  14.277 -0.2830 -0.0004  0.1176
 4323TIP3    H134460   6.301   1.031  14.352  0.5909  0.8014  0.8004
 4323TIP3    H234461   6.418   0.955  14.293  1.2619  1.3962  1.3381
 4324TIP3   OH234462   0.223   4.305   1.041  0.2405 -0.8549  0.2890
 4324TIP3    H134463   0.282   4.353   0.983 -0.9005  1.6528  1.0614
 4324TIP3    H234464   0.276   4.233   1.075  2.0394 -0.2310 -1.0230
 4325TIP3   OH234465   5.490   5.286  12.083  0.6169  0.9417 -0.3771
 4325TIP3    H134466   5.561   5.307  12.144  0.3279  0.3891  0.1611
 4325TIP3    H234467   5.416   5.338  12.113  0.1442 -0.1582  0.4514
 4326TIP3   OH234468   3.037   2.215   2.227  0.1309  0.0972  0.3347
 4326TIP3    H134469   3.037   2.178   2.315 -1.1069 -0.0215  0.3029
 4326TIP3    H234470   3.091   2.156   2.176 -0.9889 -1.1362  0.5192
 4327TIP3   OH234471   4.161   2.470   2.798  0.7672  0.0316 -0.1130
 4327TIP3    H134472   4.211   2.547   2.825  0.1402  1.1291 -1.9076
 4327TIP3    H234473   4.190   2.453   2.708 -0.7394 -0.4209 -0.5432
 4328TIP3   OH234474   3.358   5.611   2.156  0.3589 -0.3752 -0.3317
 4328TIP3    H134475   3.346   5.585   2.247  0.6582  1.5136  0.2986
 4328TIP3    H234476   3.446   5.581   2.133  1.2396  1.1965  0.8146
 4329TIP3   OH234477   5.428   4.516  13.730  0.1981 -0.1837 -0.4526
 4329TIP3    H134478   5.460   4.564  13.806 -0.6132  1.2464 -0.9791
 4329TIP3    H234479   5.486   4.440  13.724  1.3237  0.5483  0.5923
 4330TIP3   OH234480   5.493   4.860  11.439  0.4854  0.1864 -0.8335
 4330TIP3    H134481   5.518   4.919  11.510  0.1575 -0.9679  0.2756
 4330TIP3    H234482   5.562   4.793  11.439 -0.0141 -0.3309 -0.9937
 4331TIP3   OH234483   1.936   1.509   3.433  0.3833 -0.1652  0.1487
 4331TIP3    H134484   1.978   1.553   3.507  0.4387 -1.4062  0.8819
 4331TIP3    H234485   2.006   1.459   3.392  0.0055 -0.8437  0.3113
 4332TIP3   OH234486   6.773   4.709   2.960  0.4109 -0.3932  0.2335
 4332TIP3    H134487   6.819   4.662   2.891 -0.0181  0.3958 -0.6080
 4332TIP3    H234488   6.817   4.683   3.041  1.3388 -0.8212 -0.3988
 4333TIP3   OH234489   2.542   3.642  15.848 -0.3399  0.2428 -0.5114
 4333TIP3    H134490   2.537   3.635  15.943 -0.2946  0.1705 -0.5144
 4333TIP3    H234491   2.497   3.563  15.816 -0.4426  0.3168 -0.5498
 4334TIP3   OH234492   1.841   4.833  17.087  0.2590  0.2688 -0.2454
 4334TIP3    H134493   1.771   4.843  17.151 -0.9891  0.0040 -1.5049
 4334TIP3    H234494   1.914   4.883  17.123 -0.7390  0.9618  0.8848
 4335TIP3   OH234495   6.769   4.582   5.546 -0.7413  0.3252 -0.1548
 4335TIP3    H134496   6.736   4.655   5.599  0.8645  1.1758 -0.2461
 4335TIP3    H234497   6.813   4.526   5.610 -1.1503 -0.0709 -0.2205
 4336TIP3   OH234498   1.936   3.876  13.942 -0.3606 -0.4667 -0.3697
 4336TIP3    H134499   1.991   3.863  13.865 -1.7553 -1.7460 -1.2305
 4336TIP3    H234500   1.877   3.947  13.917 -1.1525 -1.2243 -0.7291
 4337TIP3   OH234501   3.895   6.364  17.222  0.7822  0.2123  0.3905
 4337TIP3    H134502   3.903   6.298  17.154  2.1267 -0.8857  1.5368
 4337TIP3    H234503   3.917   6.317  17.303 -0.5066  1.5237  1.5465
 4338TIP3   OH234504   6.307   4.976  12.962  0.1473 -0.1195 -0.0992
 4338TIP3    H134505   6.338   5.067  12.970  1.4838 -0.4221 -1.3782
 4338TIP3    H234506   6.240   4.968  13.030  1.3185  1.2691  1.3219
 4339TIP3   OH234507   0.647   3.199  11.437  0.0273 -0.4053 -0.0706
 4339TIP3    H134508   0.692   3.280  11.460  2.1558 -1.6962  0.6240
 4339TIP3    H234509   0.604   3.170  11.517  2.5067 -1.8657  0.8392
 4340TIP3   OH234510   5.502   3.752  14.736  0.2029  0.6199 -0.1800
 4340TIP3    H134511   5.504   3.658  14.718  2.0627  0.2615  1.5222
 4340TIP3    H234512   5.458   3.760  14.821 -0.0085  1.3106 -0.3418
 4341TIP3   OH234513   5.943   4.654  15.832 -0.4910  0.3655  0.4378
 4341TIP3    H134514   5.899   4.570  15.842 -1.2173  0.4404 -1.5781
 4341TIP3    H234515   6.008   4.639  15.764 -1.7691  1.7839 -1.1943
 4342TIP3   OH234516   3.014   5.612  12.619  0.1820  0.2725 -0.2013
 4342TIP3    H134517   3.045   5.561  12.694  0.1357  1.4321  0.6217
 4342TIP3    H234518   3.092   5.658  12.588 -0.1619  1.1840  0.2638
 4343TIP3   OH234519   5.606   0.106  11.105  0.2158 -0.1587  0.2242
 4343TIP3    H134520   5.568   0.168  11.042  0.2127  0.8516  1.1829
 4343TIP3    H234521   5.662   0.049  11.052  0.6679  1.0232 -0.6167
 4344TIP3   OH234522   2.649   6.695  12.762 -0.0268  0.0849  0.2760
 4344TIP3    H134523   2.646   6.607  12.801 -0.3527  0.5398  1.3210
 4344TIP3    H234524   2.733   6.698  12.717 -0.3505 -1.0388 -0.4575
 4345TIP3   OH234525   2.260   0.541   0.956  0.4161 -0.2392  0.4887
 4345TIP3    H134526   2.287   0.458   0.917  2.0028  0.8650 -0.8915
 4345TIP3    H234527   2.317   0.606   0.916  0.5265  1.3037  2.9559
 4346TIP3   OH234528   0.980   4.007  17.170  0.4672 -0.4731 -0.0399
 4346TIP3    H134529   0.947   3.993  17.082 -1.4937 -0.6331  0.6800
 4346TIP3    H234530   0.939   4.089  17.198  0.2761 -0.9265  1.0649
 4347TIP3   OH234531   4.271   5.761   5.714 -0.2144  0.3754  0.3768
 4347TIP3    H134532   4.302   5.847   5.740 -0.4865  0.9709 -1.1493
 4347TIP3    H234533   4.349   5.706   5.713  0.2584  1.0563 -0.3519
 4348TIP3   OH234534   4.923   5.455   1.517 -0.0048 -0.4171  0.0896
 4348TIP3    H134535   4.899   5.393   1.586 -1.6596 -0.4831 -0.4884
 4348TIP3    H234536   4.895   5.541   1.551 -0.9554 -0.4678 -0.5300
 4349TIP3   OH234537   3.973   4.783  13.934 -0.0824 -0.1119 -0.3924
 4349TIP3    H134538   4.036   4.822  13.874  0.6216  0.0665  0.4478
 4349TIP3    H234539   3.895   4.838  13.926  0.2171  0.2727 -0.6823
 4350TIP3   OH234540   1.960   0.812   3.049 -0.3346  0.0368 -0.0019
 4350TIP3    H134541   1.870   0.819   3.080 -0.1074  0.4874  0.5692
 4350TIP3    H234542   2.001   0.896   3.073  0.2359 -0.1626 -0.2468
 4351TIP3   OH234543   3.066   5.064  12.929 -0.3076  0.0519 -0.2937
 4351TIP3    H134544   3.022   4.984  12.960  0.9500 -1.5819 -2.4271
 4351TIP3    H234545   3.022   5.085  12.847  1.2644 -0.2499 -1.2605
 4352TIP3   OH234546   3.298   2.505   5.025 -0.0568 -0.0976  0.2544
 4352TIP3    H134547   3.385   2.488   5.061 -0.2970 -1.6003  0.1936
 4352TIP3    H234548   3.272   2.589   5.063  1.7671  0.8496 -0.4336
 4353TIP3   OH234549   2.263   6.122  13.156 -0.0020  0.2259 -0.1629
 4353TIP3    H134550   2.213   6.071  13.220 -0.7934 -1.2620 -1.8930
 4353TIP3    H234551   2.200   6.147  13.089  1.1458  0.1638 -1.3151
 4354TIP3   OH234552   0.200   6.306  14.964  0.2448  0.2175  0.2197
 4354TIP3    H134553   0.107   6.327  14.958  0.5950  1.8285  0.0990
 4354TIP3    H234554   0.242   6.388  14.989  1.4913 -0.8037  1.6580
 4355TIP3   OH234555   6.100   4.152   5.606  0.3596 -0.1194 -0.9298
 4355TIP3    H134556   6.193   4.154   5.584  0.2297  0.2892 -1.4608
 4355TIP3    H234557   6.094   4.093   5.681  0.9260 -0.8761 -1.4722
 4356TIP3   OH234558   4.240   2.549  11.192  0.3844 -0.3489  0.0840
 4356TIP3    H134559   4.150   2.520  11.180 -0.4362  1.0259  2.3370
 4356TIP3    H234560   4.281   2.537  11.106 -2.1117 -0.3798 -1.1848
 4357TIP3   OH234561   2.141   0.921   2.609 -0.2096 -0.2318  0.1312
 4357TIP3    H134562   2.073   0.883   2.665 -1.2379  0.5051 -0.5893
 4357TIP3    H234563   2.220   0.921   2.664 -0.8754 -0.7384  1.1166
 4358TIP3   OH234564   6.283   0.692  17.105 -0.2045  0.1949 -0.6031
 4358TIP3    H134565   6.273   0.741  17.024 -0.9140  2.4138  0.7279
 4358TIP3    H234566   6.370   0.716  17.137 -0.1521 -0.2318 -0.4116
 4359TIP3   OH234567   4.710   5.871   5.889 -0.1543  0.3562 -0.1089
 4359TIP3    H134568   4.627   5.897   5.929 -0.4094 -1.3659  0.5722
 4359TIP3    H234569   4.774   5.882   5.959  0.0503  0.8007 -0.3585
 4360TIP3   OH234570   3.617   0.844   4.360  0.5185  0.2763 -0.9501
 4360TIP3    H134571   3.591   0.833   4.452  2.6358  0.7726 -0.2262
 4360TIP3    H234572   3.535   0.851   4.312 -0.6454  1.0190  1.0390
 4361TIP3   OH234573   6.064   6.482  15.019  0.3232  0.0434  0.0782
 4361TIP3    H134574   6.122   6.540  14.969 -2.1954  2.1283 -0.6273
 4361TIP3    H234575   6.006   6.444  14.953 -0.7052 -0.0355  1.0026
 4362TIP3   OH234576   5.668   5.135   2.815 -0.5108 -0.1539  0.0458
 4362TIP3    H134577   5.621   5.053   2.827 -0.5776 -0.1426 -0.1340
 4362TIP3    H234578   5.625   5.177   2.741 -0.0373 -0.2780 -0.3061
 4363TIP3   OH234579   0.851   1.620   4.346  0.3877  0.0979  0.2636
 4363TIP3    H134580   0.937   1.662   4.340  1.0070 -1.1536  0.1634
 4363TIP3    H234581   0.868   1.536   4.387 -0.4915 -1.0080 -1.5244
 4364TIP3   OH234582   2.191   0.263  12.638 -0.0015  0.2782  0.1932
 4364TIP3    H134583   2.204   0.191  12.699  0.6279  1.3243  1.3204
 4364TIP3    H234584   2.263   0.256  12.576 -1.5392 -1.7787 -1.5123
 4365TIP3   OH234585   0.789   2.123   1.292 -0.1789 -0.7940  0.2922
 4365TIP3    H134586   0.716   2.122   1.354 -0.6827  0.3496 -0.2610
 4365TIP3    H234587   0.800   2.216   1.269  0.6224 -1.0949 -0.6021
 4366TIP3   OH234588   0.559   1.045  15.030 -0.2417  0.3172 -0.2960
 4366TIP3    H134589   0.507   1.099  14.970  0.1508  1.3932  0.3038
 4366TIP3    H234590   0.565   1.097  15.110 -0.0430 -0.7289  0.3891
 4367TIP3   OH234591   5.020   0.117   5.948 -0.5796 -0.0616 -0.4401
 4367TIP3    H134592   5.025   0.201   5.994 -0.0140  0.4487 -1.4056
 4367TIP3    H234593   4.928   0.110   5.921 -0.7940 -0.1077  0.2847
 4368TIP3   OH234594   6.589   1.870   3.463 -0.1360 -0.4439 -0.3944
 4368TIP3    H134595   6.621   1.808   3.397  1.6927 -0.0593  0.0896
 4368TIP3    H234596   6.622   1.836   3.546 -0.0478  0.5868  0.0076
 4369TIP3   OH234597   5.833   5.942   5.246 -0.0929 -0.1054  0.1149
 4369TIP3    H134598   5.765   5.891   5.201  0.5960 -2.2290  1.3734
 4369TIP3    H234599   5.804   5.945   5.337  1.8607 -1.8296  0.8656
 4370TIP3   OH234600   4.367   1.344  13.505  0.4888  0.0860  0.5454
 4370TIP3    H134601   4.280   1.310  13.528  0.7684 -0.9872  0.0717
 4370TIP3    H234602   4.390   1.402  13.578 -0.4516  0.0753  0.8699
 4371TIP3   OH234603   3.792   2.884  16.273  0.5212 -0.0278  0.3944
 4371TIP3    H134604   3.853   2.861  16.204 -0.9821 -0.4583 -0.8337
 4371TIP3    H234605   3.728   2.942  16.231  1.0400  1.8838  2.0650
 4372TIP3   OH234606   1.035   4.301  11.796 -0.5821 -0.5236 -0.3544
 4372TIP3    H134607   1.076   4.240  11.735  0.6902 -0.6888  0.6303
 4372TIP3    H234608   1.046   4.261  11.882  1.7710  1.7573  0.5489
 4373TIP3   OH234609   5.727   5.782   4.700 -0.6865 -0.3683  0.3999
 4373TIP3    H134610   5.658   5.716   4.690 -0.3191 -0.9150  1.3273
 4373TIP3    H234611   5.768   5.761   4.784 -1.1580  1.6087  1.1726
 4374TIP3   OH234612   6.363   2.006   1.622 -0.2066 -0.2683  0.6972
 4374TIP3    H134613   6.443   1.968   1.585  0.2363 -0.5150  1.8652
 4374TIP3    H234614   6.378   2.101   1.621 -1.0829 -0.0921 -1.6972
 4375TIP3   OH234615   0.250   4.772  15.442 -0.0465  0.0899 -0.0517
 4375TIP3    H134616   0.295   4.855  15.424  1.8461 -1.3160 -2.3916
 4375TIP3    H234617   0.203   4.753  15.361 -2.4798 -0.0058  1.3048
 4376TIP3   OH234618   1.980   2.021  14.459 -0.3928 -0.2546 -0.2445
 4376TIP3    H134619   1.981   2.116  14.471 -1.3450 -0.1258 -1.0497
 4376TIP3    H234620   2.011   2.008  14.370  0.1818 -0.7376  0.0231
 4377TIP3   OH234621   1.140   3.096   4.499  0.3205  0.2229  0.5606
 4377TIP3    H134622   1.227   3.120   4.466 -0.3622 -1.1950 -2.6375
 4377TIP3    H234623   1.156   3.017   4.551  0.8422 -1.0259 -1.3969
 4378TIP3   OH234624   6.652   1.537   5.088 -0.1597 -0.4502  0.7169
 4378TIP3    H134625   6.593   1.605   5.055 -0.8296 -0.5832  1.5696
 4378TIP3    H234626   6.679   1.569   5.174  0.4075 -0.7533  0.6539
 4379TIP3   OH234627   0.763   5.693   2.641  0.0252  0.0157  0.0986
 4379TIP3    H134628   0.739   5.785   2.652  0.9296  0.2533  0.1195
 4379TIP3    H234629   0.716   5.648   2.712 -1.3925  0.2696 -0.6300
 4380TIP3   OH234630   3.727   4.836   5.384 -0.3363 -0.7177 -0.1136
 4380TIP3    H134631   3.680   4.801   5.459 -1.4728  0.2481 -0.3397
 4380TIP3    H234632   3.798   4.773   5.368 -0.0975 -0.9691  1.7053
 4381TIP3   OH234633   1.377   1.656   5.823 -0.3747  0.4104  0.4610
 4381TIP3    H134634   1.312   1.590   5.799  0.4860 -0.3392  0.1667
 4381TIP3    H234635   1.416   1.623   5.904 -0.2946  0.8190  0.5917
 4382TIP3   OH234636   1.335   6.289   1.031  0.1739  0.4822 -0.2173
 4382TIP3    H134637   1.360   6.382   1.032  0.8655  0.2995  0.6884
 4382TIP3    H234638   1.353   6.261   0.941  0.9299  0.9773 -0.2353
 4383TIP3   OH234639   6.630   1.370   5.783 -0.1318 -0.2239 -0.3934
 4383TIP3    H134640   6.609   1.338   5.870 -0.9190 -1.7983 -1.1172
 4383TIP3    H234641   6.720   1.341   5.768 -0.3660 -0.9255 -0.5026
 4384TIP3   OH234642   4.708   3.898   5.377  0.1938  0.5018 -0.1371
 4384TIP3    H134643   4.727   3.804   5.368 -0.9388  0.3803 -1.5046
 4384TIP3    H234644   4.628   3.902   5.429 -0.3070  0.6729 -0.9235
 4385TIP3   OH234645   6.429   3.742  16.170 -0.1447  0.7348 -0.0472
 4385TIP3    H134646   6.352   3.798  16.162 -1.5183 -1.1446 -0.8033
 4385TIP3    H234647   6.420   3.700  16.255  0.1712  0.6807 -0.0398
 4386TIP3   OH234648   6.205   5.265   3.163  0.6816  0.8863 -0.1580
 4386TIP3    H134649   6.263   5.270   3.238  0.8261 -0.6223 -0.1297
 4386TIP3    H234650   6.172   5.175   3.165  1.0675  0.6587 -2.1715
 4387TIP3   OH234651   6.033   4.912   1.796 -0.0432  0.0900  0.1171
 4387TIP3    H134652   6.008   4.829   1.755  0.2233 -0.6769  1.4719
 4387TIP3    H234653   6.099   4.888   1.861 -0.7200  1.2048  1.2592
 4388TIP3   OH234654   6.655   1.190   3.235 -0.2690 -0.0052 -0.4630
 4388TIP3    H134655   6.562   1.165   3.232 -0.6027  1.2081 -0.5018
 4388TIP3    H234656   6.688   1.148   3.314 -0.1897 -2.5756 -1.7426
 4389TIP3   OH234657   4.810   3.920   0.073 -0.2019  0.2731  0.0549
 4389TIP3    H134658   4.819   3.838   0.123 -1.3267 -0.7455 -1.3104
 4389TIP3    H234659   4.715   3.931   0.063 -0.0209  0.8395 -1.2127
 4390TIP3   OH234660   3.505   2.507   0.528 -0.0879  0.3648  0.1791
 4390TIP3    H134661   3.473   2.587   0.488  0.1933 -0.1029 -1.0392
 4390TIP3    H234662   3.427   2.458   0.552 -0.2833  1.5191  2.1020
 4391TIP3   OH234663   5.047   1.463   3.407 -0.2205  0.2494  0.1377
 4391TIP3    H134664   5.138   1.458   3.437 -0.1196 -1.5752 -0.3381
 4391TIP3    H234665   5.050   1.511   3.324  0.1502  1.0831  0.6241
 4392TIP3   OH234666   2.667   5.727  14.738  0.3111  0.3522  0.1087
 4392TIP3    H134667   2.584   5.769  14.719 -0.3823 -0.8367  0.4286
 4392TIP3    H234668   2.707   5.782  14.805 -0.2001  0.9416 -0.0644
 4393TIP3   OH234669   4.818   5.359   0.456 -0.3663 -0.0079 -0.6422
 4393TIP3    H134670   4.759   5.433   0.468 -1.6943 -1.0567 -0.4718
 4393TIP3    H234671   4.761   5.285   0.436  0.8240 -1.2550  0.3723
 4394TIP3   OH234672   0.861   6.713  12.149  0.0095 -0.3584 -0.1242
 4394TIP3    H134673   0.815   6.739  12.229  0.6702  1.6105 -0.3201
 4394TIP3    H234674   0.801   6.737  12.078  0.6998  0.8926 -0.3171
 4395TIP3   OH234675   5.572   0.335  13.732 -0.4800 -0.0576 -0.2173
 4395TIP3    H134676   5.497   0.393  13.741  0.3518  0.7494  2.2110
 4395TIP3    H234677   5.626   0.376  13.664 -1.0662  0.6781 -0.2526
 4396TIP3   OH234678   6.074   2.596  11.935 -0.7196  0.2335  0.6660
 4396TIP3    H134679   6.054   2.677  11.889  0.1822 -0.4526 -1.0414
 4396TIP3    H234680   5.992   2.547  11.934 -0.6155  0.0280 -0.7182
 4397TIP3   OH234681   2.580   3.015   3.001  0.2277 -0.1442  0.2778
 4397TIP3    H134682   2.590   2.982   2.912  0.7108 -0.8096  0.5742
 4397TIP3    H234683   2.654   3.075   3.012  1.0658 -1.2261  0.7403
 4398TIP3   OH234684   1.886   6.628  12.983  0.2646 -0.2622  0.3021
 4398TIP3    H134685   1.833   6.559  12.942 -0.1743  0.2097  0.0643
 4398TIP3    H234686   1.941   6.581  13.046  0.3486 -0.8907 -0.2263
 4399TIP3   OH234687   1.833   2.980  16.259  0.2266 -0.6854  0.4538
 4399TIP3    H134688   1.915   2.931  16.262  0.2244 -0.6334  1.5076
 4399TIP3    H234689   1.858   3.068  16.233  0.6551 -0.3788  1.8477
 4400TIP3   OH234690   3.073   3.166  12.562 -0.6666  0.3116 -0.0366
 4400TIP3    H134691   3.167   3.157  12.577 -0.4198 -0.7622 -1.8619
 4400TIP3    H234692   3.035   3.090  12.607 -0.6613  0.6975  0.6288
 4401TIP3   OH234693   2.537   3.389  13.822 -0.1315  0.2338 -0.2837
 4401TIP3    H134694   2.499   3.307  13.854  0.4301  0.0860  0.0269
 4401TIP3    H234695   2.480   3.415  13.750 -0.4773 -0.2841 -0.2074
 4402TIP3   OH234696   1.456   3.304   3.616  0.3245 -0.1135  0.3668
 4402TIP3    H134697   1.515   3.299   3.541  0.0973  2.7490 -0.1221
 4402TIP3    H234698   1.398   3.228   3.606 -0.9937  1.1756 -3.5623
 4403TIP3   OH234699   2.324   0.158   4.994 -0.5308 -0.0453 -0.4202
 4403TIP3    H134700   2.401   0.104   4.975  1.0621  2.1426 -0.5274
 4403TIP3    H234701   2.271   0.153   4.914 -1.3673 -2.8231  0.2139
 4404TIP3   OH234702   4.584   1.192   3.222 -0.3880  0.1739  0.0173
 4404TIP3    H134703   4.532   1.196   3.302 -0.2416 -0.8355  0.1828
 4404TIP3    H234704   4.671   1.163   3.252 -0.3068 -0.1161 -0.4938
 4405TIP3   OH234705   2.570   5.643  17.139  0.5019 -0.2330 -0.0872
 4405TIP3    H134706   2.488   5.651  17.188 -0.3058  1.1614 -1.5751
 4405TIP3    H234707   2.633   5.693  17.190  0.0663 -0.1023  0.3293
 4406TIP3   OH234708   5.815   2.619  13.990 -0.2930 -0.2857  0.0574
 4406TIP3    H134709   5.726   2.589  13.972 -1.4329  3.4340 -1.3644
 4406TIP3    H234710   5.816   2.639  14.083 -0.7252 -0.8914  0.1989
 4407TIP3   OH234711   5.160   0.221  12.126  0.1527 -0.4034 -0.0374
 4407TIP3    H134712   5.241   0.267  12.103 -0.3151  0.8823  0.7913
 4407TIP3    H234713   5.092   0.267  12.077 -0.0634 -1.6832 -0.9836
 4408TIP3   OH234714   3.965   6.468  14.314  0.4371  0.4583  0.4551
 4408TIP3    H134715   3.953   6.521  14.235  1.4785  1.5288  0.9836
 4408TIP3    H234716   4.013   6.525  14.374 -0.7887 -0.1452  2.0774
 4409TIP3   OH234717   5.955   1.140   1.545 -0.2373  0.0100 -0.1281
 4409TIP3    H134718   5.949   1.069   1.609  1.8567 -0.8987 -0.8461
 4409TIP3    H234719   5.912   1.214   1.587 -2.8054 -1.7223  0.5236
 4410TIP3   OH234720   4.404   3.879   2.646 -0.4256  0.3683  0.1022
 4410TIP3    H134721   4.397   3.906   2.738 -0.3967 -1.8850  0.8303
 4410TIP3    H234722   4.420   3.961   2.598  0.0930  1.5436  2.1495
 4411TIP3   OH234723   5.517   5.247   2.605  0.2172 -0.3125 -0.3728
 4411TIP3    H134724   5.501   5.333   2.644  0.2953 -0.3377 -0.2855
 4411TIP3    H234725   5.437   5.228   2.557 -0.5873 -1.0707  1.2270
 4412TIP3   OH234726   3.121   1.229  13.262  0.0169 -0.6073  0.2182
 4412TIP3    H134727   3.151   1.139  13.257  3.7146  0.5006 -0.5156
 4412TIP3    H234728   3.169   1.275  13.194 -0.0472  2.3166  1.9428
 4413TIP3   OH234729   6.775   5.773  16.551 -0.7750 -0.0710 -0.2711
 4413TIP3    H134730   6.718   5.748  16.623 -0.7850 -0.5101 -0.4250
 4413TIP3    H234731   6.728   5.747  16.472  0.0614 -1.3989 -0.3716
 4414TIP3   OH234732   0.906   4.674  14.841 -0.2225  0.2878  0.2349
 4414TIP3    H134733   0.856   4.655  14.920  2.1923  1.0000  2.0475
 4414TIP3    H234734   0.978   4.611  14.843 -0.1515  0.2775 -1.4658
 4415TIP3   OH234735   1.191   2.140   3.744  0.1699  0.0386 -0.0953
 4415TIP3    H134736   1.192   2.172   3.654  2.7796  1.0180  0.2221
 4415TIP3    H234737   1.158   2.213   3.795  0.1768  0.0259 -0.0724
 4416TIP3   OH234738   4.380   6.345   4.808  0.2764 -0.3419 -0.1423
 4416TIP3    H134739   4.364   6.350   4.902  2.7663  0.2148  0.3305
 4416TIP3    H234740   4.357   6.255   4.785 -1.4900 -0.1626  0.7074
 4417TIP3   OH234741   4.488   3.211   0.150 -0.3764 -0.8875 -0.7785
 4417TIP3    H134742   4.548   3.142   0.123  0.1988 -0.4508 -0.6473
 4417TIP3    H234743   4.441   3.174   0.225  0.2512 -0.9741 -0.4217
 4418TIP3   OH234744   5.201   6.238  10.045  0.3296 -0.1920  0.0257
 4418TIP3    H134745   5.237   6.286   9.970  2.9650 -0.5003  1.0166
 4418TIP3    H234746   5.224   6.292  10.121 -0.4020 -0.9633  0.8131
 4419TIP3   OH234747   6.565   2.795  14.303  0.4918  0.0332 -0.3637
 4419TIP3    H134748   6.496   2.732  14.324 -0.0717  1.0093  0.7876
 4419TIP3    H234749   6.539   2.875  14.348  3.1334  0.0195  1.3472
 4420TIP3   OH234750   1.242   5.206  12.895  0.1487  0.2318  0.4870
 4420TIP3    H134751   1.237   5.301  12.893  0.6500  0.2614  0.4618
 4420TIP3    H234752   1.335   5.187  12.883  0.0690 -0.2562  0.6276
 4421TIP3   OH234753   3.399   3.180  12.131  0.3569  0.3769  0.0012
 4421TIP3    H134754   3.374   3.088  12.117  0.2427  0.2466  0.9893
 4421TIP3    H234755   3.336   3.230  12.079 -0.4916 -0.0566  0.5801
 4422TIP3   OH234756   3.352   1.972  12.676  0.3832  0.0762  0.1154
 4422TIP3    H134757   3.447   1.961  12.670  0.7571  2.1550  1.5293
 4422TIP3    H234758   3.328   2.018  12.596  0.8775  1.2259  0.6112
 4423TIP3   OH234759   4.739   5.962  14.263  0.5503 -0.0768 -0.7214
 4423TIP3    H134760   4.832   5.961  14.242  0.9867  3.8163  0.2354
 4423TIP3    H234761   4.695   5.978  14.180  1.1388  2.0516 -0.6643
 4424TIP3   OH234762   0.224   5.068   2.900 -0.0428  0.0802 -0.3665
 4424TIP3    H134763   0.203   5.149   2.946 -0.5243  0.8293 -1.8280
 4424TIP3    H234764   0.309   5.084   2.859 -0.3301  0.0052 -1.0035
 4425TIP3   OH234765   1.098   1.303  16.457 -0.1704  0.3313 -0.1397
 4425TIP3    H134766   1.037   1.377  16.457 -1.4788 -0.6835  0.5858
 4425TIP3    H234767   1.057   1.239  16.516  1.3518 -0.6196 -0.0637
 4426TIP3   OH234768   1.047   5.436   0.919 -0.3412  0.1644  0.5359
 4426TIP3    H134769   1.139   5.429   0.895 -0.5418 -1.8304  0.1731
 4426TIP3    H234770   1.000   5.425   0.836 -0.9315  1.6418  0.6418
 4427TIP3   OH234771   5.807   6.111  11.035 -0.4329 -0.0947  0.4889
 4427TIP3    H134772   5.716   6.133  11.013  0.1112  1.6723 -0.2159
 4427TIP3    H234773   5.817   6.140  11.125  0.0010  1.8429 -0.1283
 4428TIP3   OH234774   0.489   1.988   1.976  0.5849 -0.0880  0.1150
 4428TIP3    H134775   0.470   1.911   1.922  0.4010 -1.4698  2.0618
 4428TIP3    H234776   0.466   1.962   2.065  0.1668  2.3668  0.8051
 4429TIP3   OH234777   6.212   5.604  12.794  0.0108  0.5608 -0.1826
 4429TIP3    H134778   6.172   5.526  12.754  0.0326 -0.0096  0.8622
 4429TIP3    H234779   6.138   5.662  12.812 -0.1075  0.4206 -0.2110
 4430TIP3   OH234780   1.100   1.883   1.958 -0.3113 -0.7664  0.0307
 4430TIP3    H134781   1.066   1.959   1.912  1.1306 -0.2271 -0.2033
 4430TIP3    H234782   1.024   1.844   2.001 -0.8558  1.8397  1.6520
 4431TIP3   OH234783   1.792   3.323   0.067  0.1036 -0.7625  0.3642
 4431TIP3    H134784   1.805   3.416   0.088  2.8237 -1.7262  3.5847
 4431TIP3    H234785   1.715   3.298   0.118  0.3013 -0.6565  0.7140
 4432TIP3   OH234786   6.418   5.941  15.748  0.2826 -0.1938  0.0500
 4432TIP3    H134787   6.483   5.995  15.704  0.4708 -0.8455 -0.4834
 4432TIP3    H234788   6.334   5.982  15.727  0.4900  0.5581  0.6125
 4433TIP3   OH234789   1.247   4.583   2.299 -0.2276  0.0763  0.4818
 4433TIP3    H134790   1.309   4.565   2.370 -2.3944 -0.7188  2.2889
 4433TIP3    H234791   1.260   4.676   2.279 -0.9294  0.9250  3.4626
 4434TIP3   OH234792   4.453   0.269  14.733 -0.1842  0.3611 -0.1233
 4434TIP3    H134793   4.407   0.242  14.653  1.7935 -0.0551 -1.1841
 4434TIP3    H234794   4.470   0.362  14.720  2.9265 -0.2941 -1.7912
 4435TIP3   OH234795   3.143   4.748   1.501  0.0105  0.0798 -0.2972
 4435TIP3    H134796   3.171   4.663   1.536  0.7048  0.3020 -0.2821
 4435TIP3    H234797   3.158   4.810   1.572 -1.7932  0.0191  0.1692
 4436TIP3   OH234798   2.284   5.853  12.295 -0.1276  0.1355 -0.0541
 4436TIP3    H134799   2.361   5.896  12.257  0.0383  0.9985  1.1817
 4436TIP3    H234800   2.301   5.760  12.285  0.1572  0.3299 -1.5716
 4437TIP3   OH234801   2.446   5.023   1.064 -0.0971 -0.0908 -0.1634
 4437TIP3    H134802   2.398   5.000   1.144  0.2029 -0.2406 -0.0260
 4437TIP3    H234803   2.531   4.982   1.075 -0.1462 -0.3318 -0.6784
 4438TIP3   OH234804   0.975   5.919   5.029 -0.0671 -0.5487 -0.5495
 4438TIP3    H134805   1.037   5.860   4.986  1.5978 -1.0967  2.3368
 4438TIP3    H234806   1.026   5.961   5.098 -2.4214  0.5910  0.6025
 4439TIP3   OH234807   4.429   5.775   2.448 -0.7383 -0.0253 -0.1771
 4439TIP3    H134808   4.476   5.811   2.523 -1.4485 -0.8364  0.6789
 4439TIP3    H234809   4.347   5.742   2.484 -0.8190 -1.0186 -1.2023
 4440TIP3   OH234810   1.307   5.378   6.014 -0.4891  0.3542 -0.3607
 4440TIP3    H134811   1.380   5.421   6.060  0.2175 -0.6426 -0.5122
 4440TIP3    H234812   1.230   5.399   6.066  0.2908 -0.7735  1.3296
 4441TIP3   OH234813   6.011   6.419   0.058 -0.2217  1.0258 -0.0596
 4441TIP3    H134814   6.062   6.480   0.004  1.3940 -1.2939 -1.3667
 4441TIP3    H234815   5.922   6.425   0.024 -0.3455  3.2863  0.5115
 4442TIP3   OH234816   0.653   0.738   0.201  0.1097  0.6022  0.1609
 4442TIP3    H134817   0.641   0.725   0.106  0.6333  1.2221  0.0021
 4442TIP3    H234818   0.611   0.662   0.241  0.7879 -0.2062 -0.6184
 4443TIP3   OH234819   5.257   3.983  12.124  0.1957 -0.1181 -0.2884
 4443TIP3    H134820   5.299   4.010  12.042 -0.5253 -0.6977 -0.8636
 4443TIP3    H234821   5.196   4.054  12.145 -0.1761 -0.3179 -0.6749
 4444TIP3   OH234822   1.861   3.249   5.466  0.1069  0.1613 -0.4117
 4444TIP3    H134823   1.870   3.288   5.379 -0.6150  0.2805 -0.4416
 4444TIP3    H234824   1.781   3.196   5.460 -0.1041  0.3937  0.2525
 4445TIP3   OH234825   3.489   6.173   2.891 -0.5418  0.0174 -0.1704
 4445TIP3    H134826   3.456   6.155   2.802  0.2365  2.2454 -0.9771
 4445TIP3    H234827   3.580   6.199   2.878 -0.3991  0.3374  1.3184
 4446TIP3   OH234828   6.530   2.002   2.419  0.1114  0.6135  0.1793
 4446TIP3    H134829   6.462   1.949   2.460  0.5445  0.2855  0.4823
 4446TIP3    H234830   6.580   2.038   2.493 -0.0812  1.3173 -0.0259
 4447TIP3   OH234831   3.269   4.957  14.494  0.0673 -0.0931  0.1154
 4447TIP3    H134832   3.211   4.884  14.514  1.5745 -0.7417  2.5632
 4447TIP3    H234833   3.315   4.931  14.414 -1.0406 -0.7745 -0.3130
 4448TIP3   OH234834   3.128   0.497  10.984 -0.0130 -0.1295  0.0762
 4448TIP3    H134835   3.104   0.511  10.892  0.5415 -3.0731 -0.6297
 4448TIP3    H234836   3.211   0.543  10.995  0.2163 -0.2297 -1.0979
 4449TIP3   OH234837   0.565   5.687   5.556  0.4604 -0.6975  0.2511
 4449TIP3    H134838   0.612   5.708   5.637  0.7255 -0.8460  0.1340
 4449TIP3    H234839   0.473   5.681   5.584  0.4937 -0.3011  0.4576
 4450TIP3   OH234840   0.544   4.021  15.438  0.3557  0.1562 -0.3559
 4450TIP3    H134841   0.461   4.000  15.482  0.3466  0.7395 -0.0802
 4450TIP3    H234842   0.537   3.981  15.352 -0.3278  0.4237 -0.4287
 4451TIP3   OH234843   1.400   2.425  14.484 -0.1958 -0.1811 -0.2231
 4451TIP3    H134844   1.337   2.372  14.535 -0.6895  0.5184 -0.0941
 4451TIP3    H234845   1.381   2.515  14.509  2.4569 -0.0328  1.6443
 4452TIP3   OH234846   4.065   3.803   4.978 -0.3786  0.2935  0.0632
 4452TIP3    H134847   3.993   3.786   4.917 -0.8211  0.4316  0.5408
 4452TIP3    H234848   4.024   3.804   5.064  0.5720 -2.2478  0.6465
 4453TIP3   OH234849   2.976   2.785  11.404  0.1796  0.1602 -0.0300
 4453TIP3    H134850   3.007   2.776  11.494  0.8644 -0.8869 -0.3540
 4453TIP3    H234851   2.881   2.773  11.410  0.0619  1.3783  0.7097
 4454TIP3   OH234852   1.313   5.998  16.451  0.0702  0.1151  0.5830
 4454TIP3    H134853   1.254   6.009  16.525 -1.5563 -1.5229 -0.3737
 4454TIP3    H234854   1.319   6.085  16.412  1.3706  1.1162  2.8570
 4455TIP3   OH234855   4.017   2.095   2.541 -0.3682  0.3157 -0.4616
 4455TIP3    H134856   3.935   2.046   2.540  0.1512 -0.6348  1.2819
 4455TIP3    H234857   4.047   2.091   2.450 -0.9492 -1.5567 -0.6211
 4456TIP3   OH234858   6.529   6.670  15.837  0.1188  0.3309 -0.4499
 4456TIP3    H134859   6.552   6.707  15.922 -1.8527  0.7750 -0.0797
 4456TIP3    H234860   6.564   6.732  15.774 -0.0481  0.9647  0.0779
 4457TIP3   OH234861   1.256   0.098  12.389 -0.6539  0.1216 -0.2957
 4457TIP3    H134862   1.163   0.102  12.408 -0.2110  2.0573  1.9134
 4457TIP3    H234863   1.297   0.079  12.473  0.9959  0.1299 -1.0530
 4458TIP3   OH234864   4.537   1.818  13.662 -0.3713 -0.1471 -0.5292
 4458TIP3    H134865   4.522   1.907  13.694 -2.7436 -0.3914 -0.8104
 4458TIP3    H234866   4.483   1.810  13.584  0.0414 -1.7536 -0.6931
 4459TIP3   OH234867   1.062   0.940   4.483  0.0464 -0.3813 -0.1787
 4459TIP3    H134868   1.058   1.017   4.540  1.2930 -0.9042  0.6337
 4459TIP3    H234869   1.125   0.964   4.415  1.1078 -0.9819  0.5678
 4460TIP3   OH234870   2.940   5.988  17.201  0.2270 -0.1426  0.0596
 4460TIP3    H134871   2.991   5.909  17.219 -0.3020 -0.5410 -0.1990
 4460TIP3    H234872   3.004   6.049  17.164  1.0172  0.1761  1.8430
 4461TIP3   OH234873   6.677   0.593  10.767 -0.5237 -0.1349 -0.1010
 4461TIP3    H134874   6.609   0.595  10.700 -0.4878  0.3663 -0.1258
 4461TIP3    H234875   6.751   0.640  10.727 -0.8041  0.9442  0.6070
 4462TIP3   OH234876   3.144   5.452  13.878  0.1655 -0.4721  0.1083
 4462TIP3    H134877   3.207   5.414  13.938 -0.2512 -0.0778  0.8083
 4462TIP3    H234878   3.148   5.546  13.894  0.4727 -0.3004 -0.9075
 4463TIP3   OH234879   1.772   6.199  12.791  0.0044  0.0981  0.3522
 4463TIP3    H134880   1.792   6.286  12.757 -1.0888  0.0686 -0.4215
 4463TIP3    H234881   1.857   6.163  12.817  0.6531  0.8435 -0.6514
 4464TIP3   OH234882   3.121   1.714   5.194  0.2327  0.7437  0.0314
 4464TIP3    H134883   3.071   1.702   5.113 -2.8460  0.6701  1.7730
 4464TIP3    H234884   3.146   1.625   5.220 -3.1163  0.0797  1.5413
 4465TIP3   OH234885   1.244   6.781   5.070 -0.3438 -0.2255 -0.1522
 4465TIP3    H134886   1.280   6.855   5.022  0.7070 -0.3509  0.4305
 4465TIP3    H234887   1.315   6.717   5.073 -0.2030 -0.0467  1.9497
 4466TIP3   OH234888   6.638   0.082  15.337 -0.9730  0.5948  0.0933
 4466TIP3    H134889   6.577   0.034  15.281 -0.3666  0.1597 -0.2101
 4466TIP3    H234890   6.702   0.016  15.364 -1.7710  0.5643  2.0718
 4467TIP3   OH234891   0.492   2.744   4.365 -0.2659 -0.4411  0.3843
 4467TIP3    H134892   0.482   2.798   4.443  1.9296  0.0162  0.3990
 4467TIP3    H234893   0.539   2.667   4.395 -0.7702 -0.9974 -0.2159
 4468TIP3   OH234894   2.500   3.495   2.046 -0.0889  0.0476 -0.8004
 4468TIP3    H134895   2.449   3.470   2.123 -1.4887  2.1481 -0.9721
 4468TIP3    H234896   2.591   3.497   2.077 -0.8315  3.4676  1.6386
 4469TIP3   OH234897   2.659   1.814   5.972 -0.3227 -0.7643 -0.9208
 4469TIP3    H134898   2.633   1.882   5.909  0.1192 -0.0728 -0.3671
 4469TIP3    H234899   2.598   1.824   6.044  1.5805  1.1236  0.5661
 4470TIP3   OH234900   3.283   1.723  16.323  0.4357 -0.3869 -0.4387
 4470TIP3    H134901   3.303   1.674  16.403 -0.2658 -1.9055 -1.1510
 4470TIP3    H234902   3.212   1.673  16.282  0.2667  0.7930 -1.6296
 4471TIP3   OH234903   2.412   2.129   0.322 -0.1992 -0.4573  0.4579
 4471TIP3    H134904   2.465   2.149   0.245  0.1211 -1.3206  0.4472
 4471TIP3    H234905   2.370   2.046   0.301 -1.9485  0.4243  0.2753
 4472TIP3   OH234906   5.198   3.393  15.327 -0.0635 -0.2383  0.2603
 4472TIP3    H134907   5.242   3.478  15.321  1.3909 -0.5915  3.6083
 4472TIP3    H234908   5.114   3.413  15.370 -0.7146 -0.2927 -0.9308
 4473TIP3   OH234909   0.669   0.304  12.461  0.1974 -0.2636 -0.0352
 4473TIP3    H134910   0.704   0.296  12.373 -0.5608  0.4773 -0.4227
 4473TIP3    H234911   0.710   0.233  12.510  2.7748  0.9724 -0.2527
 4474TIP3   OH234912   1.117   4.896   4.548 -0.1625 -0.1388 -0.6841
 4474TIP3    H134913   1.200   4.887   4.501  0.5264 -1.2434  0.6641
 4474TIP3    H234914   1.110   4.816   4.600 -2.0914 -0.0703 -0.7600
 4475TIP3   OH234915   0.549   3.508   4.205  0.3735  0.4840 -0.4567
 4475TIP3    H134916   0.506   3.579   4.158 -0.3987  0.7520  0.6268
 4475TIP3    H234917   0.592   3.550   4.279  0.2151 -0.1374 -0.0080
 4476TIP3   OH234918   6.554   4.161  15.195 -0.4811  0.2808  0.0781
 4476TIP3    H134919   6.578   4.190  15.107  2.2009 -0.3710  0.5166
 4476TIP3    H234920   6.524   4.241  15.239 -2.5693  0.4886 -1.5728
 4477TIP3   OH234921   0.443   5.628   2.605  0.3631  0.0704 -0.0259
 4477TIP3    H134922   0.489   5.544   2.606 -0.7802 -0.5837  0.2519
 4477TIP3    H234923   0.501   5.687   2.558  2.4587 -0.1235  2.1302
 4478TIP3   OH234924   2.167   4.437   1.688 -0.3677 -0.2573  0.1066
 4478TIP3    H134925   2.233   4.369   1.702 -0.2193  0.0925  1.1744
 4478TIP3    H234926   2.187   4.504   1.753 -2.3443 -0.5691  1.1027
 4479TIP3   OH234927   2.286   6.099   3.016  0.3490 -0.2818 -0.3115
 4479TIP3    H134928   2.308   6.190   3.038  0.2246 -0.8969  2.7996
 4479TIP3    H234929   2.246   6.064   3.096 -1.7921 -2.4406 -2.1554
 4480TIP3   OH234930   6.667   4.604  16.948 -0.4467 -0.2798  0.6357
 4480TIP3    H134931   6.736   4.668  16.965  0.9231 -1.9752  1.7420
 4480TIP3    H234932   6.593   4.633  17.001  0.9166 -0.7984  2.9454
 4481TIP3   OH234933   1.464   1.714  11.925  0.1837 -0.2663  0.3727
 4481TIP3    H134934   1.527   1.690  11.994 -1.3152 -1.1425  1.4894
 4481TIP3    H234935   1.419   1.633  11.905 -1.3469  0.5533  0.3870
 4482TIP3   OH234936   0.702   3.120   2.476  0.0957  0.7052  0.5125
 4482TIP3    H134937   0.671   3.128   2.566  0.5498  0.6034  0.6797
 4482TIP3    H234938   0.635   3.163   2.423 -1.2938 -1.0839  0.6890
 4483TIP3   OH234939   1.946   5.499   5.722 -0.2458  0.0554 -0.4422
 4483TIP3    H134940   1.977   5.589   5.740  0.4321  0.1204 -1.8143
 4483TIP3    H234941   1.862   5.511   5.678  0.3686  0.0726 -1.6382
 4484TIP3   OH234942   5.445   5.543  14.233 -0.1279 -0.1913  0.3303
 4484TIP3    H134943   5.436   5.630  14.194  0.5827 -0.2593 -0.0066
 4484TIP3    H234944   5.473   5.487  14.161  1.8689 -0.1856  1.0369
 4485TIP3   OH234945   1.407   6.566  15.297  0.7578 -0.6036 -0.7012
 4485TIP3    H134946   1.439   6.511  15.225  0.0519  0.3968 -1.8144
 4485TIP3    H234947   1.313   6.552  15.298  0.3342  1.6045 -1.9774
 4486TIP3   OH234948   6.125   2.490   2.476  0.1734  0.1583  0.4990
 4486TIP3    H134949   6.108   2.406   2.434  0.6794  0.1971  0.1973
 4486TIP3    H234950   6.039   2.523   2.501 -0.2408  0.5102 -1.2393
 4487TIP3   OH234951   4.873   2.062   0.225 -0.2686  1.0898  0.1942
 4487TIP3    H134952   4.858   2.073   0.319 -1.2541  0.4262  0.1373
 4487TIP3    H234953   4.906   1.972   0.217  0.1171  1.2546 -0.0645
 4488TIP3   OH234954   0.919   6.464   5.616  0.2418 -0.1666  0.1438
 4488TIP3    H134955   0.865   6.503   5.548 -0.0728 -1.4640 -0.3931
 4488TIP3    H234956   1.008   6.464   5.580  0.2277 -0.0087  0.1122
 4489TIP3   OH234957   2.941   3.458  11.080 -0.5573  0.9836 -0.7099
 4489TIP3    H134958   2.871   3.405  11.119  0.3090  0.3115 -0.0090
 4489TIP3    H234959   2.985   3.399  11.019 -0.4362  1.3163 -0.9465
 4490TIP3   OH234960   0.935   0.540  11.208  0.1156 -0.3367  0.8000
 4490TIP3    H134961   1.025   0.563  11.229  0.4487 -2.0340  1.3972
 4490TIP3    H234962   0.882   0.607  11.252  1.0728  1.4422 -0.6246
 4491TIP3   OH234963   0.126   1.913  11.452 -0.1191  0.1905  0.0409
 4491TIP3    H134964   0.209   1.895  11.496  0.4030 -1.4913 -1.5293
 4491TIP3    H234965   0.143   1.994  11.403  0.4746  0.0635  0.0219
 4492TIP3   OH234966   1.137   3.683  14.596 -0.6022 -0.5463  0.1085
 4492TIP3    H134967   1.190   3.652  14.670 -0.4645 -2.0958 -0.6065
 4492TIP3    H234968   1.065   3.730  14.636  0.3785  0.0999  1.1702
 4493TIP3   OH234969   2.889   5.025  16.960 -0.3212 -0.5267 -0.0253
 4493TIP3    H134970   2.908   5.044  17.052 -0.9497  1.2262 -0.2135
 4493TIP3    H234971   2.928   5.098  16.912 -1.2793 -0.6419 -1.0171
 4494TIP3   OH234972   1.448   6.427  14.000 -0.0389 -0.3324  0.6204
 4494TIP3    H134973   1.354   6.407  14.001 -0.5028  1.5791  1.4907
 4494TIP3    H234974   1.482   6.386  14.080 -0.2837 -0.4053  0.6887
 4495TIP3   OH234975   4.569   6.526   3.840 -0.3517 -0.1774  0.2720
 4495TIP3    H134976   4.560   6.541   3.746  1.3621  0.3979  0.1669
 4495TIP3    H234977   4.621   6.446   3.848  0.7677  0.5627  0.6797
 4496TIP3   OH234978   6.150   3.210  15.244 -0.2687  0.4489 -0.3224
 4496TIP3    H134979   6.134   3.197  15.337 -0.4641 -0.1399 -0.4296
 4496TIP3    H234980   6.245   3.215  15.236 -0.2898  3.8133  0.2980
 4497TIP3   OH234981   3.874   1.392  10.404  0.3986 -0.0124 -0.4204
 4497TIP3    H134982   3.820   1.470  10.394  2.0306  1.3723  1.0231
 4497TIP3    H234983   3.862   1.344  10.322 -3.5794 -0.2110  0.0886
 4498TIP3   OH234984   4.599   0.501  12.657 -0.0141  0.7615 -0.2561
 4498TIP3    H134985   4.590   0.466  12.745  2.5471  1.0375  0.1897
 4498TIP3    H234986   4.587   0.426  12.599  1.5980 -0.1056  0.5047
 4499TIP3   OH234987   2.563   1.903  16.699 -0.1126 -0.1912  0.2732
 4499TIP3    H134988   2.632   1.969  16.694  0.9290 -1.2844 -0.4446
 4499TIP3    H234989   2.603   1.829  16.744 -0.6018 -1.0739 -0.6765
 4500TIP3   OH234990   1.670   0.020   4.824  0.4329 -0.0960 -0.3841
 4500TIP3    H134991   1.680  -0.032   4.744 -0.5001  0.7201 -1.0516
 4500TIP3    H234992   1.759   0.032   4.856  0.8040 -0.5699 -1.2122
 4501TIP3   OH234993   1.918   5.672  15.948  0.7120  0.2804  0.1565
 4501TIP3    H134994   1.890   5.678  16.040  1.8465  1.0639  0.4626
 4501TIP3    H234995   1.838   5.688  15.898 -0.3604 -2.0630  0.9543
 4502TIP3   OH234996   1.642   1.629   4.405 -0.3691  0.3023  0.3941
 4502TIP3    H134997   1.690   1.646   4.486  0.3903 -0.1388  0.0488
 4502TIP3    H234998   1.686   1.554   4.367  1.7755  2.6910 -2.3047
 4503TIP3   OH234999   6.189   6.192  13.607 -0.0499 -0.2051 -0.2562
 4503TIP3    H135000   6.219   6.169  13.695 -0.1468  2.1519  0.4657
 4503TIP3    H235001   6.124   6.260  13.621  1.6282  1.9470 -2.1924
 4504TIP3   OH235002   1.687   0.212   2.494  0.8787  0.3637  0.1213
 4504TIP3    H135003   1.664   0.263   2.416  0.6842 -1.0772 -0.8054
 4504TIP3    H235004   1.697   0.277   2.563 -1.2026  1.5163 -0.5592
 4505TIP3   OH235005   1.270   0.148  11.741 -0.0960 -0.2350  0.2449
 4505TIP3    H135006   1.327   0.178  11.670 -0.9415  2.3688  0.5426
 4505TIP3    H235007   1.252   0.057  11.721  1.6441 -0.2510 -1.5453
 4506TIP3   OH235008   4.804   6.351   5.215 -0.5884 -0.3128 -0.2390
 4506TIP3    H135009   4.724   6.355   5.268 -0.3312  1.0981  0.0980
 4506TIP3    H235010   4.818   6.258   5.200  0.1100 -0.9814  3.4528
 4507TIP3   OH235011   6.434   6.615   4.619 -0.5514  0.0447 -0.1093
 4507TIP3    H135012   6.380   6.582   4.547 -0.0708 -1.0722  0.0131
 4507TIP3    H235013   6.515   6.644   4.577 -0.2694 -0.6105 -0.0372
 4508TIP3   OH235014   2.179   4.788  15.604 -0.3310 -0.5617 -0.7747
 4508TIP3    H135015   2.179   4.823  15.515 -1.6789  0.5466 -0.3563
 4508TIP3    H235016   2.253   4.831  15.646 -0.7089  0.1889 -0.8740
 4509TIP3   OH235017   5.214   4.518  16.784  0.0429 -0.4649  0.0474
 4509TIP3    H135018   5.297   4.534  16.829 -0.9259  0.2137  1.6860
 4509TIP3    H235019   5.181   4.606  16.762  1.0560 -0.7610 -3.2437
 4510TIP3   OH235020   4.478   2.784   4.807  0.2101 -0.1686  0.5161
 4510TIP3    H135021   4.402   2.795   4.865 -0.1958 -0.3491  0.0309
 4510TIP3    H235022   4.545   2.841   4.844 -0.1094 -0.1301  1.0488
 4511TIP3   OH235023   1.613   1.836  13.725  0.3552 -0.1526  0.2581
 4511TIP3    H135024   1.626   1.788  13.643  1.1323  3.1186 -1.7160
 4511TIP3    H235025   1.533   1.886  13.710  0.0783 -0.0704  1.8572
 4512TIP3   OH235026   2.562   1.442  13.499  0.0168  0.0964 -0.3781
 4512TIP3    H135027   2.628   1.402  13.556 -0.4602  0.3771  0.3894
 4512TIP3    H235028   2.488   1.381  13.501 -0.0506  0.1715 -0.5813
 4513TIP3   OH235029   0.099   4.481  14.977 -0.5713  0.1030  0.3704
 4513TIP3    H135030   0.068   4.397  15.010 -0.9804 -0.0879 -0.4660
 4513TIP3    H235031   0.019   4.534  14.967 -0.3646  0.4369  0.4927
 4514TIP3   OH235032   2.213   5.271   4.703  0.0358 -0.6334 -0.2215
 4514TIP3    H135033   2.220   5.182   4.669 -0.2429 -0.3304 -1.0782
 4514TIP3    H235034   2.271   5.323   4.648 -0.8963 -0.0265 -0.6546
 4515TIP3   OH235035   1.388   4.964   5.382  0.1047  0.2689  0.7618
 4515TIP3    H135036   1.405   4.881   5.427  1.3490  0.6835  1.0842
 4515TIP3    H235037   1.397   4.942   5.289 -1.7855 -0.4343  0.7106
 4516TIP3   OH235038   3.849   6.556  14.594 -0.2051  0.2091  0.4879
 4516TIP3    H135039   3.803   6.575  14.675 -2.2323 -1.7965 -0.1052
 4516TIP3    H235040   3.873   6.463  14.601 -1.3497 -0.2977 -1.5688
 4517TIP3   OH235041   4.178   0.903   0.922  0.1591  0.1828 -0.2284
 4517TIP3    H135042   4.269   0.929   0.917  0.1659  0.2438  0.1523
 4517TIP3    H235043   4.158   0.867   0.836 -0.2269  2.6002 -1.2182
 4518TIP3   OH235044   1.727   4.703   1.742 -0.6542  0.0794  0.0546
 4518TIP3    H135045   1.692   4.778   1.695  0.0435  0.2502 -0.2032
 4518TIP3    H235046   1.655   4.674   1.799 -0.4162  1.9322  1.3710
 4519TIP3   OH235047   2.986   0.501   5.544 -0.2718 -0.6220 -0.6486
 4519TIP3    H135048   2.918   0.543   5.491 -1.3817 -1.3465  0.1970
 4519TIP3    H235049   3.064   0.506   5.488 -1.3653 -1.2282 -2.3086
 4520TIP3   OH235050   0.982   4.822  11.962  0.3577  0.3541 -0.0649
 4520TIP3    H135051   1.071   4.812  11.997  0.1747  0.2777  0.3801
 4520TIP3    H235052   0.995   4.853  11.872  0.8544 -0.6865 -0.3557
 4521TIP3   OH235053   5.791   3.450  12.247  0.0031 -0.2140 -0.2360
 4521TIP3    H135054   5.770   3.530  12.294 -1.3981 -0.4117 -0.4846
 4521TIP3    H235055   5.820   3.480  12.161 -1.3604  0.0269 -0.6359
 4522TIP3   OH235056   4.537   4.596  16.713 -0.3391  0.0633 -0.4000
 4522TIP3    H135057   4.623   4.582  16.673  1.0317 -0.5338  2.4574
 4522TIP3    H235058   4.478   4.540  16.663  1.0259  0.0123 -2.0537
 4523TIP3   OH235059   0.210   3.284  14.836  0.0063 -0.2143 -0.4954
 4523TIP3    H135060   0.231   3.378  14.832 -1.4922  0.1592 -0.1031
 4523TIP3    H235061   0.138   3.274  14.773 -0.7203 -0.8454  0.4274
 4524TIP3   OH235062   5.860   5.446   5.401 -0.2298 -0.0210  0.3937
 4524TIP3    H135063   5.905   5.521   5.362  0.0721 -0.8689 -0.9690
 4524TIP3    H235064   5.789   5.426   5.340  0.0430 -1.1808  0.4312
 4525TIP3   OH235065   3.948   3.551  14.939  0.3960 -0.4632  0.0335
 4525TIP3    H135066   3.896   3.623  14.902  0.2947 -0.5941 -0.0792
 4525TIP3    H235067   3.916   3.543  15.029  1.8800  1.0479  0.7413
 4526TIP3   OH235068   1.039   5.545  13.724 -0.0970 -0.2099  0.1368
 4526TIP3    H135069   0.999   5.494  13.654  0.6560 -3.0712  1.6222
 4526TIP3    H235070   1.108   5.595  13.681 -1.8797  0.8688 -1.6334
 4527TIP3   OH235071   0.945   0.214   1.152  0.7022 -1.0081 -0.3369
 4527TIP3    H135072   0.953   0.300   1.112  0.9492 -1.3114 -0.9453
 4527TIP3    H235073   0.993   0.155   1.094  0.4611 -1.5741  0.0244
 4528TIP3   OH235074   4.857   0.687  15.655  0.1078  0.4000 -0.5539
 4528TIP3    H135075   4.864   0.593  15.641 -3.9042 -0.4174  1.4143
 4528TIP3    H235076   4.836   0.723  15.569 -2.0946 -1.1681 -0.7566
 4529TIP3   OH235077   2.779   6.797  15.863 -0.2272 -0.0315 -0.3249
 4529TIP3    H135078   2.869   6.819  15.841 -0.4947 -0.7461 -2.3498
 4529TIP3    H235079   2.758   6.853  15.938  2.6716 -1.6258  1.8833
 4530TIP3   OH235080   4.119   2.573   0.200  0.0387 -0.5890 -0.5801
 4530TIP3    H135081   4.116   2.489   0.155 -0.9321 -2.1495  2.1763
 4530TIP3    H235082   4.205   2.575   0.241  0.3748  0.1862 -1.2840
 4531TIP3   OH235083   2.201   6.796   0.831  0.2907 -0.7812 -0.2443
 4531TIP3    H135084   2.280   6.759   0.869  0.8535  0.8638  0.2589
 4531TIP3    H235085   2.225   6.814   0.740  0.1631 -1.1767 -0.3613
 4532TIP3   OH235086   6.648   1.704  12.995  0.5577 -0.3148 -0.3371
 4532TIP3    H135087   6.601   1.623  12.975  0.1798 -0.2800  0.3808
 4532TIP3    H235088   6.643   1.712  13.090  0.9178  0.3591 -0.3665
 4533TIP3   OH235089   3.768   5.727   3.985 -0.4745 -0.3369  0.1509
 4533TIP3    H135090   3.836   5.748   3.920 -1.2767 -0.3809 -0.7182
 4533TIP3    H235091   3.815   5.725   4.068  0.3738  0.9036 -0.2606
 4534TIP3   OH235092   1.322   1.054   1.118 -0.0600 -0.3163  0.3773
 4534TIP3    H135093   1.346   1.142   1.148  1.2037  0.0960 -1.6229
 4534TIP3    H235094   1.237   1.065   1.076  0.7332  0.3096 -1.1438
 4535TIP3   OH235095   4.293   2.612  13.342 -0.1482  0.0578  0.5191
 4535TIP3    H135096   4.351   2.658  13.402 -0.1638 -1.1348  1.4705
 4535TIP3    H235097   4.211   2.603  13.390 -0.0125 -1.3280  0.5178
 4536TIP3   OH235098   5.143   1.053  15.637  0.6194  0.0235  0.7472
 4536TIP3    H135099   5.215   1.047  15.700  1.1783  2.8090  0.5212
 4536TIP3    H235100   5.186   1.052  15.551  0.4073  1.1972  0.5997
 4537TIP3   OH235101   4.544   3.737  14.152 -0.0902  0.4774  0.0088
 4537TIP3    H135102   4.513   3.660  14.103 -0.1689  0.2410  0.4264
 4537TIP3    H235103   4.465   3.778  14.186 -0.0430  0.7036 -0.1507
 4538TIP3   OH235104   4.287   0.113  14.893 -0.6410 -0.5893 -0.2656
 4538TIP3    H135105   4.356   0.166  14.853 -1.1553 -0.7423 -1.3734
 4538TIP3    H235106   4.305   0.119  14.987 -1.3659  2.5403 -0.2131
 4539TIP3   OH235107   4.993   0.177  16.285  0.2371  0.1031 -0.2763
 4539TIP3    H135108   5.069   0.235  16.274 -1.1265  1.9756 -0.2805
 4539TIP3    H235109   4.918   0.230  16.258 -1.1926 -1.3978  0.5722
 4540TIP3   OH235110   5.376   5.711  16.618  0.6278 -0.4806 -0.4107
 4540TIP3    H135111   5.376   5.805  16.636 -0.2054 -0.8694  2.0597
 4540TIP3    H235112   5.288   5.693  16.585  1.0445 -0.3119 -1.6779
 4541TIP3   OH235113   5.246   5.384  11.357 -0.0669  0.1253 -0.0537
 4541TIP3    H135114   5.285   5.342  11.281  0.1834  0.7359 -0.2676
 4541TIP3    H235115   5.156   5.405  11.329  0.2292  0.9492 -0.4216
 4542TIP3   OH235116   3.019   1.228  14.050  0.2256 -0.5366 -0.1257
 4542TIP3    H135117   3.114   1.240  14.055  0.6349 -2.9815 -0.5071
 4542TIP3    H235118   2.997   1.247  13.959  0.4756 -0.6744 -0.2160
 4543TIP3   OH235119   6.658   2.271   4.866 -0.1118  0.0621 -0.4609
 4543TIP3    H135120   6.718   2.272   4.792  0.2746  0.4071 -0.1438
 4543TIP3    H235121   6.607   2.190   4.854  2.3240 -1.8069  0.8081
 4544TIP3   OH235122   0.878   2.051  13.671 -0.7173  0.2609  0.1897
 4544TIP3    H135123   0.891   2.043  13.577  0.6752  0.5187  0.3315
 4544TIP3    H235124   0.824   2.129  13.682  0.2649  1.0331 -0.3425
 4545TIP3   OH235125   2.954   6.143  15.781 -0.4408  0.4821 -0.4862
 4545TIP3    H135126   2.864   6.174  15.797 -0.9832 -1.6730  1.2256
 4545TIP3    H235127   2.949   6.095  15.698 -1.3249 -0.9511  0.3427
 4546TIP3   OH235128   6.216   4.199  13.506  0.0181 -0.0330 -0.5264
 4546TIP3    H135129   6.164   4.119  13.519 -2.9260  1.8665  0.4755
 4546TIP3    H235130   6.204   4.220  13.414 -0.7494  0.1554 -0.3995
 4547TIP3   OH235131   2.454   4.458   3.704 -0.0731  0.2575  0.1255
 4547TIP3    H135132   2.365   4.490   3.713 -0.8807 -0.8438 -2.9054
 4547TIP3    H235133   2.508   4.537   3.695 -1.0310  0.8952 -0.0757
 4548TIP3   OH235134   0.722   3.982   3.742 -0.0524  0.6631  0.0474
 4548TIP3    H135135   0.708   3.931   3.821 -1.4197  0.1971 -0.4707
 4548TIP3    H235136   0.737   3.917   3.673  1.4076  1.0711 -0.0380
 4549TIP3   OH235137   1.682   4.238  16.461 -0.6968  0.0904 -0.1576
 4549TIP3    H135138   1.636   4.264  16.381 -0.5045  2.1871  0.3579
 4549TIP3    H235139   1.618   4.253  16.531 -1.8681 -4.3209 -0.0107
 4550TIP3   OH235140   2.454   0.362  11.451  0.6833  0.0238 -0.0805
 4550TIP3    H135141   2.390   0.382  11.383  0.9552 -0.5696 -0.5180
 4550TIP3    H235142   2.408   0.379  11.533 -0.1788 -0.8019 -0.3736
 4551TIP3   OH235143   5.251   5.642  11.865 -0.0938 -0.8814  0.5935
 4551TIP3    H135144   5.255   5.722  11.917  0.4179 -1.1747  1.0150
 4551TIP3    H235145   5.167   5.602  11.889 -1.1814  0.3763 -0.9168
 4552TIP3   OH235146   2.417   3.774   4.501  0.2720  0.3551 -0.5469
 4552TIP3    H135147   2.462   3.692   4.483 -0.3877 -0.1600  0.0682
 4552TIP3    H235148   2.325   3.749   4.512  0.3219  0.8910  1.4797
 4553TIP3   OH235149   5.904   2.596   0.697  0.4015  0.0644  0.1472
 4553TIP3    H135150   5.948   2.617   0.614 -1.4270  0.1981 -0.8421
 4553TIP3    H235151   5.832   2.538   0.672 -1.4407  1.7236  1.3356
 4554TIP3   OH235152   1.962   0.332   5.579 -0.8990  0.2283  0.1385
 4554TIP3    H135153   1.925   0.277   5.511 -0.3916 -0.2255  0.2181
 4554TIP3    H235154   1.938   0.289   5.661  0.5051 -0.5588  0.1722
 4555TIP3   OH235155   1.434   0.822  11.253  0.1394  0.2900 -0.3821
 4555TIP3    H135156   1.402   0.760  11.187 -0.9866  0.1467  0.2881
 4555TIP3    H235157   1.387   0.903  11.234 -0.3113  0.2017  0.3347
 4556TIP3   OH235158   4.952   6.729   5.346  0.1582  0.7906  0.1494
 4556TIP3    H135159   4.960   6.757   5.255 -0.1530  1.2098  0.2491
 4556TIP3    H235160   4.987   6.640   5.347 -3.6292 -0.8771 -1.1901
 4557TIP3   OH235161   1.087   3.358   4.628 -0.0725 -0.4365  0.3792
 4557TIP3    H135162   1.130   3.278   4.597 -0.4033 -0.9162  1.1419
 4557TIP3    H235163   1.123   3.427   4.572  1.6476 -0.8263  0.9222
 4558TIP3   OH235164   4.511   6.499  13.399 -0.3195  0.1940  0.0140
 4558TIP3    H135165   4.566   6.546  13.336  1.6167 -0.6852  0.9681
 4558TIP3    H235166   4.485   6.567  13.462 -0.2605  0.6196 -0.4128
 4559TIP3   OH235167   2.240   4.761  14.660 -0.0449 -0.2073 -0.1248
 4559TIP3    H135168   2.263   4.782  14.570 -0.7727  0.6815 -0.1233
 4559TIP3    H235169   2.321   4.727  14.698  0.7666  1.0609 -0.6305
 4560TIP3   OH235170   0.488   3.942  13.998 -0.0616 -0.3578  0.0297
 4560TIP3    H135171   0.432   3.917  14.071  1.7099  1.6687  2.2604
 4560TIP3    H235172   0.569   3.893  14.011  0.0922 -0.3878 -0.9272
 4561TIP3   OH235173   5.452   0.811  15.557 -0.8408  0.8227 -0.0404
 4561TIP3    H135174   5.436   0.905  15.556 -0.3299  0.9026 -0.6224
 4561TIP3    H235175   5.545   0.801  15.538 -0.4552  0.2844  1.8551
 4562TIP3   OH235176   4.546   5.158  13.350 -0.5338 -0.2386  0.4153
 4562TIP3    H135177   4.478   5.225  13.354 -1.4156 -1.1234  0.7173
 4562TIP3    H235178   4.538   5.112  13.433  1.6939  0.8000  1.2692
 4563TIP3   OH235179   2.713   6.433  12.854  0.4377 -0.0753  0.4108
 4563TIP3    H135180   2.741   6.394  12.771  1.9804 -0.9814  1.3035
 4563TIP3    H235181   2.737   6.367  12.920  0.8406  1.3380  1.7253
 4564TIP3   OH235182   1.622   0.182  16.883  0.1271 -0.0912  0.1453
 4564TIP3    H135183   1.691   0.125  16.916 -1.0099 -0.9371  1.1954
 4564TIP3    H235184   1.667   0.257  16.846  1.5904 -0.5658  0.9128
 4565TIP3   OH235185   2.651   3.594   4.590 -0.2216  0.0955 -0.0820
 4565TIP3    H135186   2.701   3.529   4.639 -0.0168  0.0149 -0.3949
 4565TIP3    H235187   2.681   3.678   4.625  0.2152  0.0510 -0.3429
 4566TIP3   OH235188   6.502   2.051  14.522 -0.2609  0.1634  0.3351
 4566TIP3    H135189   6.421   2.001  14.511 -0.3845  0.3700  0.2995
 4566TIP3    H235190   6.551   2.035  14.441 -0.4954  0.4531  0.1345
 4567TIP3   OH235191   0.992   1.799   3.023  0.4899 -0.0205  0.4573
 4567TIP3    H135192   0.958   1.879   3.063 -1.0303 -0.4598  0.0929
 4567TIP3    H235193   0.968   1.729   3.084 -0.6610 -0.5289 -0.5388
 4568TIP3   OH235194   1.535   2.996  16.866  0.0708 -0.0756 -0.2939
 4568TIP3    H135195   1.531   3.078  16.916  0.4223  0.2582 -0.8075
 4568TIP3    H235196   1.485   2.934  16.919 -0.7512  0.6372 -0.2074
 4569TIP3   OH235197   1.531   6.395  11.479  0.1319  0.7048 -0.3500
 4569TIP3    H135198   1.457   6.407  11.539  0.1683  0.9274 -0.3505
 4569TIP3    H235199   1.552   6.484  11.449  0.7490  0.7013  0.0633
 4570TIP3   OH235200   1.381   0.996   0.571 -0.0078 -0.4139  0.2116
 4570TIP3    H135201   1.466   0.953   0.575 -1.0694 -2.5768  0.6047
 4570TIP3    H235202   1.369   1.019   0.479  2.3835  3.0704  0.5409
 4571TIP3   OH235203   3.696   5.604   4.747  0.0739 -0.0588  0.6958
 4571TIP3    H135204   3.634   5.536   4.773  0.8705 -0.9040  0.4395
 4571TIP3    H235205   3.743   5.567   4.673  1.5943  0.1472  1.5083
 4572TIP3   OH235206   2.746   0.667  16.539 -0.4335 -0.5945  0.0799
 4572TIP3    H135207   2.740   0.619  16.621  1.5609 -1.1077 -0.0061
 4572TIP3    H235208   2.816   0.731  16.554 -1.6445  0.9257 -0.4759
 4573TIP3   OH235209   1.908   3.098  11.628 -0.7903 -0.2423  0.3427
 4573TIP3    H135210   1.914   3.169  11.693 -0.3240 -0.2725  0.3334
 4573TIP3    H235211   1.987   3.107  11.575 -0.2148 -1.3952  0.9678
 4574TIP3   OH235212   0.310   3.311   3.977 -0.1841 -0.1018 -0.1549
 4574TIP3    H135213   0.305   3.233   3.922 -1.0929 -0.6043  0.6118
 4574TIP3    H235214   0.319   3.277   4.066  1.8494  0.6978  0.0140
 4575TIP3   OH235215   2.179   1.913   1.057  0.0092  0.5060  0.0231
 4575TIP3    H135216   2.174   1.878   0.969  1.3258 -0.0214  0.1226
 4575TIP3    H235217   2.202   2.005   1.045 -0.6226  0.6364 -0.1948
 4576TIP3   OH235218   0.831   4.848  13.590  0.1392  0.2861  0.1014
 4576TIP3    H135219   0.846   4.925  13.534 -1.0662  1.4353  1.2890
 4576TIP3    H235220   0.897   4.855  13.659 -0.9789  1.1751  1.1095
 4577TIP3   OH235221   4.002   2.030  13.079 -0.0380  0.3928  0.1097
 4577TIP3    H135222   4.050   1.963  13.030 -0.5033  0.1608 -0.0295
 4577TIP3    H235223   3.927   2.051  13.023 -0.4222  0.3282  0.5985
 4578TIP3   OH235224   3.225   5.373   3.278 -0.0533 -0.0615  0.4647
 4578TIP3    H135225   3.286   5.430   3.233 -0.4917  0.5163  0.5915
 4578TIP3    H235226   3.195   5.424   3.354  0.4966 -0.9220  1.2947
 4579TIP3   OH235227   2.639   3.992  12.455 -0.0316 -0.3222  0.4655
 4579TIP3    H135228   2.576   3.929  12.420 -0.5602  0.3173  0.2249
 4579TIP3    H235229   2.649   4.056  12.384 -1.4132  1.2128  1.5792
 4580TIP3   OH235230   0.294   4.315  12.814 -0.1094 -0.4226  0.5078
 4580TIP3    H135231   0.367   4.374  12.795 -1.9126  0.9218 -3.3727
 4580TIP3    H235232   0.215   4.365  12.792 -1.9511 -3.1258  0.3598
 4581TIP3   OH235233   2.950   5.375   3.088  0.3120  0.3017 -0.0861
 4581TIP3    H135234   2.904   5.459   3.095  0.7285  0.5267 -0.0544
 4581TIP3    H235235   3.039   5.398   3.064 -0.0590 -0.2329 -2.1561
 4582TIP3   OH235236   5.028   3.476   3.790 -0.1217  0.6780  0.4014
 4582TIP3    H135237   4.998   3.519   3.870 -0.2050 -0.3468  0.9473
 4582TIP3    H235238   5.040   3.384   3.816  1.0282  0.5629 -0.4559
 4583TIP3   OH235239   6.824   3.691  13.087  0.6140  0.2555  0.0717
 4583TIP3    H135240   6.818   3.758  13.019 -0.1227 -1.0170 -1.1802
 4583TIP3    H235241   6.895   3.633  13.057  0.7969  0.1056  0.7851
 4584TIP3   OH235242   2.286   0.723   1.632 -0.2241 -0.2226  0.0640
 4584TIP3    H135243   2.332   0.735   1.549  0.5487 -0.7308  0.4009
 4584TIP3    H235244   2.246   0.636   1.624 -1.5457  0.4155 -0.4128
 4585TIP3   OH235245   5.962   0.222  17.129 -0.5090  0.1362 -0.0595
 4585TIP3    H135246   5.870   0.207  17.107 -0.8769  0.4022  1.2313
 4585TIP3    H235247   6.009   0.207  17.047 -1.6033 -0.9379 -0.5192
 4586TIP3   OH235248   3.144   5.204  13.746  0.2388 -1.0385  0.0116
 4586TIP3    H135249   3.150   5.293  13.779 -0.8423 -1.8212  2.5891
 4586TIP3    H235250   3.056   5.199  13.706  0.8486 -0.6005 -1.4508
 4587TIP3   OH235251   5.648   0.146  15.166  0.0680 -0.5512  0.3374
 4587TIP3    H135252   5.655   0.241  15.177  0.5966 -0.3254 -1.5687
 4587TIP3    H235253   5.566   0.123  15.210  0.3595  0.6380  1.5689
 4588TIP3   OH235254   5.520   4.635  13.972 -0.4071 -0.1938 -0.7439
 4588TIP3    H135255   5.463   4.704  14.007 -1.6995 -0.3803 -2.3530
 4588TIP3    H235256   5.577   4.612  14.045 -2.0407  0.3944  0.8014
 4589TIP3   OH235257   1.812   4.964  10.571 -0.3945  0.1570 -0.3249
 4589TIP3    H135258   1.754   4.959  10.495 -0.2005  0.0656 -0.4686
 4589TIP3    H235259   1.898   4.981  10.534 -0.4265  0.9284 -0.0758
 4590TIP3   OH235260   0.673   1.596   2.076  0.7638  0.3681  0.2977
 4590TIP3    H135261   0.644   1.519   2.029  0.7353 -0.4327  1.5691
 4590TIP3    H235262   0.650   1.579   2.167  1.9619  1.2861  0.8091
 4591TIP3   OH235263   1.463   6.825   5.252 -0.4710 -0.5909  0.1727
 4591TIP3    H135264   1.482   6.897   5.312 -1.6020  0.1243 -0.3040
 4591TIP3    H235265   1.542   6.818   5.198 -0.6078  0.7906 -0.2580
 4592TIP3   OH235266   5.444   3.776  16.206 -0.6081  0.2250  0.3650
 4592TIP3    H135267   5.383   3.734  16.267 -1.4207  1.5857  0.5497
 4592TIP3    H235268   5.462   3.710  16.140  0.1106 -1.2254  1.9302
 4593TIP3   OH235269   4.404   1.760   0.810 -0.7081 -0.0096 -0.1633
 4593TIP3    H135270   4.445   1.780   0.726  0.0248 -0.7534 -0.0011
 4593TIP3    H235271   4.313   1.740   0.789 -0.5153 -0.2415 -0.7843
 4594TIP3   OH235272   3.475   4.269  12.177  0.0347  0.6139  0.0283
 4594TIP3    H135273   3.459   4.207  12.248 -0.7437  0.8156  0.0447
 4594TIP3    H235274   3.461   4.355  12.217  0.2032  0.7548 -0.2153
 4595TIP3   OH235275   2.825   5.849   1.013  0.2440 -0.1122 -0.4789
 4595TIP3    H135276   2.832   5.889   0.926  0.7771 -1.8001 -1.2659
 4595TIP3    H235277   2.855   5.759   1.000 -0.7867 -0.7534  1.2098
 4596TIP3   OH235278   3.992   2.271   6.215  0.0275 -0.6026 -0.1200
 4596TIP3    H135279   3.898   2.260   6.200 -0.4943  1.7337  1.0000
 4596TIP3    H235280   4.007   2.365   6.207  1.2062 -0.0814  4.7323
 4597TIP3   OH235281   2.035   0.499  13.965 -0.5205  0.2765  0.5422
 4597TIP3    H135282   1.952   0.454  13.949  0.0814 -1.0405  1.0241
 4597TIP3    H235283   2.102   0.435  13.941  0.3764  1.6039 -0.6385
 4598TIP3   OH235284   2.228   1.098  10.840  0.1160 -0.1025  0.0541
 4598TIP3    H135285   2.256   1.186  10.863 -0.7334 -0.3225  2.1677
 4598TIP3    H235286   2.272   1.042  10.903 -0.8926 -0.9837  0.0036
 4599TIP3   OH235287   0.086   3.055  15.561  0.3885  0.2542  0.4913
 4599TIP3    H135288   0.030   3.128  15.534 -0.3953 -0.1360  1.0157
 4599TIP3    H235289   0.041   3.018  15.637  1.5182  0.1094  1.1027
 4600TIP3   OH235290   1.347   6.758   0.355  0.6937 -0.3788  0.0745
 4600TIP3    H135291   1.253   6.741   0.345  0.8674 -1.6533  0.3794
 4600TIP3    H235292   1.387   6.671   0.347  1.6593 -0.1774  2.1008
 4601TIP3   OH235293   2.705   6.324  15.034 -0.0497  0.1575 -0.2916
 4601TIP3    H135294   2.738   6.405  15.072 -1.1662  0.7665 -0.5862
 4601TIP3    H235295   2.613   6.321  15.059 -0.1192 -0.8207 -0.6230
 4602TIP3   OH235296   2.276   3.550   1.218  0.1205  0.6541 -0.1472
 4602TIP3    H135297   2.250   3.625   1.271 -1.8410  0.1606 -0.3382
 4602TIP3    H235298   2.370   3.539   1.236  0.7952  3.9139 -1.1203
 4603TIP3   OH235299   6.140   6.285   1.801  0.7918 -0.1088  0.0112
 4603TIP3    H135300   6.236   6.282   1.802  0.7910 -1.8078  1.6018
 4603TIP3    H235301   6.116   6.284   1.709  2.2918 -0.6114 -0.3951
 4604TIP3   OH235302   3.388   0.266   2.012  0.1580  0.0475  0.6749
 4604TIP3    H135303   3.479   0.276   1.987 -0.1510  0.6891 -0.2375
 4604TIP3    H235304   3.386   0.285   2.106  0.7568  1.3942  0.4330
 4605TIP3   OH235305   2.659   5.572  10.882 -0.1041 -0.3178 -0.3457
 4605TIP3    H135306   2.735   5.531  10.840 -0.0979 -0.0922 -0.5573
 4605TIP3    H235307   2.614   5.617  10.810  1.3422  2.3264  0.2958
 4606TIP3   OH235308   0.140   3.195   5.545 -0.1335 -0.1910 -0.3602
 4606TIP3    H135309   0.201   3.194   5.471  0.5477 -0.0339  0.1936
 4606TIP3    H235310   0.099   3.282   5.541  0.3368  0.0374 -0.1982
 4607TIP3   OH235311   4.882   5.798  13.197 -0.4731  0.3027 -0.6485
 4607TIP3    H135312   4.883   5.884  13.240 -1.1163 -0.1487  0.2967
 4607TIP3    H235313   4.973   5.769  13.200 -0.4337  0.4829 -0.0096
 4608TIP3   OH235314   4.072   0.700   1.441 -0.4579  0.6109 -0.2726
 4608TIP3    H135315   4.069   0.729   1.350 -1.6740 -1.8428 -1.1158
 4608TIP3    H235316   4.095   0.607   1.436 -0.0881  0.5099  1.9779
 4609TIP3   OH235317   3.171   5.632   4.943 -0.1465  0.2193 -0.1700
 4609TIP3    H135318   3.187   5.602   5.032 -0.2945 -0.8740 -0.4976
 4609TIP3    H235319   3.205   5.722   4.941  1.2759 -0.2809  0.5394
 4610TIP3   OH235320   1.485   3.931  13.789 -0.1889  0.5012 -0.1817
 4610TIP3    H135321   1.543   3.996  13.750  1.6190 -0.6208  0.4762
 4610TIP3    H235322   1.484   3.953  13.883  1.0071 -0.7745  0.1619
 4611TIP3   OH235323   5.750   2.466   1.920  0.1275  0.1956  0.2422
 4611TIP3    H135324   5.784   2.409   1.989  2.3288 -0.1174 -1.0267
 4611TIP3    H235325   5.657   2.474   1.940  0.8353  1.0765  3.9287
 4612TIP3   OH235326   0.376   5.395   3.607 -0.0313 -0.3884  0.3745
 4612TIP3    H135327   0.426   5.429   3.681  0.1717 -1.7199  0.8914
 4612TIP3    H235328   0.439   5.391   3.535 -0.0434  0.2462  0.3258
 4613TIP3   OH235329   2.019   2.873   4.204 -0.4184  0.1946 -0.3107
 4613TIP3    H135330   1.966   2.927   4.262 -0.5009  0.6286 -0.7805
 4613TIP3    H235331   2.029   2.925   4.125 -0.1738 -0.3219 -0.6293
 4614TIP3   OH235332   3.902   2.509  16.032 -0.4466  0.2618  0.1354
 4614TIP3    H135333   3.810   2.520  16.057 -1.2674  0.6608 -2.7197
 4614TIP3    H235334   3.913   2.414  16.024 -0.5683  0.2070  0.5641
 4615TIP3   OH235335   1.811   1.842   4.580  0.1516 -0.6746  0.3754
 4615TIP3    H135336   1.882   1.794   4.622  1.4427  1.4322  0.7375
 4615TIP3    H235337   1.779   1.902   4.648  0.3497  0.7978 -0.7843
 4616TIP3   OH235338   4.844   3.671   1.198 -0.8418 -0.4590 -0.3299
 4616TIP3    H135339   4.928   3.632   1.173 -0.3136  0.4115 -0.0014
 4616TIP3    H235340   4.778   3.608   1.171 -0.1849 -0.4354 -2.1237
 4617TIP3   OH235341   3.372   6.115   4.670 -0.2232 -0.3740  0.0340
 4617TIP3    H135342   3.343   6.205   4.689 -1.3148 -1.0997  2.1332
 4617TIP3    H235343   3.465   6.115   4.690 -0.3253  0.1580  0.5313
 4618TIP3   OH235344   6.749   3.358  13.158  0.4644  0.0991  0.1654
 4618TIP3    H135345   6.684   3.299  13.197 -0.7334  0.0464 -1.8157
 4618TIP3    H235346   6.827   3.347  13.213 -1.0217 -0.1789  2.3393
 4619TIP3   OH235347   1.644   1.749  16.242  0.1920 -0.3300  0.2303
 4619TIP3    H135348   1.657   1.707  16.327  2.1576 -0.9475 -0.3150
 4619TIP3    H235349   1.721   1.805  16.231 -0.2554  0.0801 -0.9541
 4620TIP3   OH235350   1.496   0.828   0.816  0.4529 -0.8111 -0.2603
 4620TIP3    H135351   1.491   0.811   0.722  2.1960 -2.3257 -0.1384
 4620TIP3    H235352   1.590   0.828   0.836  0.2131  1.2863  1.2058
 4621TIP3   OH235353   0.815   6.495  13.395 -0.4828 -0.5016  0.5301
 4621TIP3    H135354   0.845   6.546  13.470  0.1116 -2.5843  1.7861
 4621TIP3    H235355   0.752   6.433  13.432 -0.9818 -0.8742 -0.8871
 4622TIP3   OH235356   3.182   0.190  16.547 -0.3551 -0.0646 -0.9431
 4622TIP3    H135357   3.247   0.142  16.598 -0.3718  1.0387  0.1530
 4622TIP3    H235358   3.194   0.158  16.457  1.7618  0.1530 -0.7986
 4623TIP3   OH235359   6.480   0.781   1.843 -0.0437  0.5275  0.2270
 4623TIP3    H135360   6.559   0.834   1.830 -0.3130  0.8524 -0.1140
 4623TIP3    H235361   6.450   0.761   1.754  2.2846 -3.6373  0.0929
 4624TIP3   OH235362   3.241   2.477   0.967  0.5530  0.0470  0.2819
 4624TIP3    H135363   3.327   2.468   1.007 -0.6663 -2.4704  2.6791
 4624TIP3    H235364   3.215   2.388   0.946 -1.0349  0.8616 -1.4769
 4625TIP3   OH235365   6.596   5.902   1.210  0.1119  0.1199  0.6586
 4625TIP3    H135366   6.592   5.928   1.118  1.1193  0.4895  0.7077
 4625TIP3    H235367   6.511   5.862   1.228  0.6161 -1.8641 -1.0190
 4626TIP3   OH235368   0.249   6.353  12.547 -0.0157 -0.2228 -0.5807
 4626TIP3    H135369   0.222   6.423  12.608  0.4888  0.0171 -0.6254
 4626TIP3    H235370   0.240   6.392  12.460  1.5737  0.2784 -0.5576
 4627TIP3   OH235371   0.725   6.705  13.229 -0.5052 -0.3933  0.5713
 4627TIP3    H135372   0.761   6.630  13.277  0.4526 -0.4988 -0.2869
 4627TIP3    H235373   0.732   6.778  13.290  0.8099 -0.5026  0.5819
 4628TIP3   OH235374   3.727   6.165  12.897 -0.0756 -0.1916  0.2907
 4628TIP3    H135375   3.744   6.124  12.982  1.8303  0.7174  0.3926
 4628TIP3    H235376   3.792   6.234  12.890  0.2101 -0.6250 -2.1793
 4629TIP3   OH235377   2.720   4.551   1.342  0.4568 -0.6292 -0.3037
 4629TIP3    H135378   2.664   4.502   1.403  0.2619 -1.6870 -1.3127
 4629TIP3    H235379   2.667   4.627   1.318  0.2262 -0.6132  0.2334
 4630TIP3   OH235380   0.588   4.988   5.333  0.3461  0.5664  0.5880
 4630TIP3    H135381   0.504   4.964   5.372  0.5788  0.5630  1.0972
 4630TIP3    H235382   0.649   4.922   5.365  0.7235  1.0878  0.9579
 4631TIP3   OH235383   4.864   0.788   4.905  0.1172  0.9269 -0.1338
 4631TIP3    H135384   4.835   0.721   4.843  2.1691 -0.7272  0.5641
 4631TIP3    H235385   4.844   0.751   4.991 -1.9649  2.8410  0.3060
 4632TIP3   OH235386   6.241   0.397   4.551  0.0839 -0.0149 -0.1358
 4632TIP3    H135387   6.154   0.436   4.562 -0.4987 -1.1434 -0.4789
 4632TIP3    H235388   6.247   0.332   4.621  0.0674 -0.9112 -0.9388
 4633TIP3   OH235389   1.674   2.178  16.629 -0.1135 -0.9186  0.6336
 4633TIP3    H135390   1.626   2.127  16.564 -0.8990  1.6331 -0.9446
 4633TIP3    H235391   1.766   2.172  16.601 -0.3626 -0.4131 -0.3453
 4634TIP3   OH235392   4.310   4.299  17.069  0.5588 -0.6552 -0.9176
 4634TIP3    H135393   4.233   4.354  17.051  0.6848 -0.2788 -0.3448
 4634TIP3    H235394   4.328   4.255  16.986 -1.9893 -2.9788 -0.4050
 4635TIP3   OH235395   0.363   6.329  16.087  0.1783  0.5066 -0.4376
 4635TIP3    H135396   0.286   6.273  16.096  0.0677  0.6989 -0.1783
 4635TIP3    H235397   0.432   6.270  16.058 -0.0030  0.2846 -0.4211
 4636TIP3   OH235398   0.490   1.679  11.927  0.6124 -0.1336 -0.4232
 4636TIP3    H135399   0.514   1.600  11.880 -0.6159  0.5368 -2.3095
 4636TIP3    H235400   0.396   1.672  11.941  0.2008  1.6110 -1.9590
 4637TIP3   OH235401   1.906   0.955  16.255 -0.2263  0.1421 -0.9020
 4637TIP3    H135402   1.927   0.933  16.346  0.0435 -0.2786 -1.0603
 4637TIP3    H235403   1.977   1.013  16.227  0.7560 -1.2787 -1.4395
 4638TIP3   OH235404   2.204   1.720  16.694 -0.4004 -0.2460  0.1446
 4638TIP3    H135405   2.186   1.668  16.616 -0.6285 -0.7649  0.5333
 4638TIP3    H235406   2.269   1.668  16.743 -1.0869 -0.4749  0.8356
 4639TIP3   OH235407   2.536   6.383   1.186  0.0075 -0.7876  0.2037
 4639TIP3    H135408   2.513   6.389   1.094  0.3831  3.3598  0.1786
 4639TIP3    H235409   2.472   6.438   1.231  2.5476  1.2902  1.6375
 4640TIP3   OH235410   1.471   1.249  12.740 -0.3669 -0.0385 -0.1056
 4640TIP3    H135411   1.463   1.301  12.661  0.3295  0.0512 -0.1242
 4640TIP3    H235412   1.458   1.311  12.812 -2.1065 -0.3141 -0.1374
 4641TIP3   OH235413   5.198   3.058   4.580 -0.2763 -0.2290  0.1854
 4641TIP3    H135414   5.202   3.105   4.497  0.4221  0.6397  0.6862
 4641TIP3    H235415   5.290   3.045   4.605 -0.4499  0.8899  1.5481
 4642TIP3   OH235416   5.303   1.661  12.106  0.4996 -0.7783  0.6537
 4642TIP3    H135417   5.335   1.604  12.177  2.1940  1.2382  1.6242
 4642TIP3    H235418   5.383   1.698  12.068 -0.5040  0.1366 -0.6211
 4643TIP3   OH235419   4.521   5.095   5.556  0.2788 -0.0689  0.2430
 4643TIP3    H135420   4.583   5.022   5.557 -0.0676 -0.3714 -0.1032
 4643TIP3    H235421   4.524   5.128   5.466 -1.4279 -1.2789 -0.3089
 4644TIP3   OH235422   1.235   0.641   0.100 -0.0753 -0.8375  0.9945
 4644TIP3    H135423   1.327   0.657   0.124 -0.0093 -0.8202  0.7320
 4644TIP3    H235424   1.214   0.710   0.037 -0.0405 -1.2830  0.4888
 4645TIP3   OH235425   2.755   1.983  13.874 -0.3998 -0.2843  0.0037
 4645TIP3    H135426   2.748   1.910  13.813 -1.7419 -0.8756  0.8122
 4645TIP3    H235427   2.818   1.955  13.940 -0.3320 -0.4020 -0.1140
 4646TIP3   OH235428   5.369   4.077   5.657  0.1069  0.2394  0.5403
 4646TIP3    H135429   5.455   4.082   5.613 -0.5139  2.0240 -0.5796
 4646TIP3    H235430   5.355   3.983   5.670  1.4223 -0.2123 -0.9023
 4647TIP3   OH235431   1.525   5.769   4.546  0.2529 -0.2321 -0.0717
 4647TIP3    H135432   1.565   5.697   4.498  1.4371 -0.5926  1.3962
 4647TIP3    H235433   1.591   5.794   4.611 -0.7306  1.1852  0.4190
 4648TIP3   OH235434   5.709   5.488   1.347 -0.2502 -0.3657 -0.2664
 4648TIP3    H135435   5.768   5.423   1.309  0.1726  0.0393 -0.3060
 4648TIP3    H235436   5.723   5.566   1.295 -0.5018 -0.1396  0.0026
 4649TIP3   OH235437   6.178   2.782   3.435  0.2222 -0.4728 -0.3517
 4649TIP3    H135438   6.239   2.850   3.462 -0.0369 -0.3631 -0.0439
 4649TIP3    H235439   6.196   2.770   3.341  0.7839 -0.5171 -0.2417
 4650TIP3   OH235440   0.270   5.731  14.128 -0.2784 -0.3007  0.0764
 4650TIP3    H135441   0.262   5.636  14.133 -0.3054 -0.4213 -1.5761
 4650TIP3    H235442   0.200   5.758  14.068 -0.8768  0.8779  1.2585
 4651TIP3   OH235443   3.824   4.547   4.596 -0.3214  0.3080  0.6959
 4651TIP3    H135444   3.814   4.616   4.531  0.7417  2.3831  2.5785
 4651TIP3    H235445   3.910   4.509   4.579  0.3760  1.5057  1.4242
 4652TIP3   OH235446   3.237   0.724   0.745  0.5394 -0.1391  0.1956
 4652TIP3    H135447   3.190   0.652   0.787 -0.2165 -0.0344 -0.4536
 4652TIP3    H235448   3.182   0.801   0.759  0.4364 -0.0385 -0.6977
 4653TIP3   OH235449   4.713   0.759  16.839 -0.4831 -0.4025 -0.2812
 4653TIP3    H135450   4.638   0.700  16.832 -1.7422  0.6745  2.5344
 4653TIP3    H235451   4.675   0.847  16.836  1.1693  0.3281 -2.6892
 4654TIP3   OH235452   2.189   5.893  12.594  0.0016 -0.6547 -0.5377
 4654TIP3    H135453   2.219   5.855  12.512  1.0896 -1.4989  0.2176
 4654TIP3    H235454   2.268   5.897  12.649 -0.6427  0.1479  0.3672
 4655TIP3   OH235455   0.959   3.180  15.383 -0.4054  0.0282  0.1472
 4655TIP3    H135456   0.898   3.131  15.328 -1.0819  0.7048  0.2916
 4655TIP3    H235457   1.041   3.130  15.378 -0.8420 -0.6424 -0.3961
 4656TIP3   OH235458   6.027   0.067   2.886  0.5348  0.1144  0.1929
 4656TIP3    H135459   5.932   0.066   2.896  0.6684  1.9084  2.5270
 4656TIP3    H235460   6.052  -0.026   2.883 -1.0171 -0.5652  3.6962
 4657TIP3   OH235461   4.298   3.119  16.107  0.0180  0.1300 -0.1858
 4657TIP3    H135462   4.294   3.179  16.032 -1.4018 -0.6886 -0.8051
 4657TIP3    H235463   4.379   3.142  16.152  0.2950  1.4497 -1.2970
 4658TIP3   OH235464   0.065   2.902  13.473  0.0399  0.0684  0.1719
 4658TIP3    H135465   0.057   2.820  13.522  1.1042 -0.3305 -0.2688
 4658TIP3    H235466   0.147   2.891  13.424 -1.3566  0.0824 -2.3417
 4659TIP3   OH235467   0.661   6.793   5.717 -0.0227 -0.5725 -0.5380
 4659TIP3    H135468   0.653   6.699   5.732 -0.2384 -0.6193 -0.9201
 4659TIP3    H235469   0.710   6.800   5.635  1.8980 -0.3128  0.5975
 4660TIP3   OH235470   4.444   3.948   2.984  0.2923 -0.1491 -0.0831
 4660TIP3    H135471   4.537   3.948   2.958  0.9420  0.7573  2.0307
 4660TIP3    H235472   4.432   4.030   3.031 -1.2435 -0.8557  0.8298
 4661TIP3   OH235473   4.081   5.469  13.670 -0.8260 -0.9450 -0.3715
 4661TIP3    H135474   4.035   5.424  13.741 -1.4342  0.6705  0.3097
 4661TIP3    H235475   4.013   5.519  13.625  0.0782  0.7619  0.0802
 4662TIP3   OH235476   6.787   5.566  15.983  0.0348  0.5353  0.7402
 4662TIP3    H135477   6.808   5.658  15.995  0.0091  0.5747  0.4934
 4662TIP3    H235478   6.866   5.519  16.007 -0.0040  0.6140  1.0203
 4663TIP3   OH235479   0.500   5.048  12.531 -0.3388  0.4565  0.3793
 4663TIP3    H135480   0.514   4.954  12.525 -1.3562  0.1578  2.1542
 4663TIP3    H235481   0.412   5.062  12.496  0.1203  0.8957 -0.6676
 4664TIP3   OH235482   6.512   5.419  10.435 -0.4356 -0.1924 -0.3046
 4664TIP3    H135483   6.470   5.389  10.354  0.5804 -1.0514 -0.5464
 4664TIP3    H235484   6.604   5.394  10.424  0.3589  2.3925 -0.1898
 4665TIP3   OH235485   0.125   3.866  12.213  0.2269 -0.9944 -0.5500
 4665TIP3    H135486   0.149   3.939  12.270  0.8533 -1.4314 -0.2519
 4665TIP3    H235487   0.085   3.908  12.137 -0.7950 -0.4155  0.2808
 4666TIP3   OH235488   5.576   1.989  14.164  0.3875 -0.0607 -0.3556
 4666TIP3    H135489   5.480   1.997  14.157  0.4623 -0.4042 -2.2623
 4666TIP3    H235490   5.608   2.006  14.076  2.0966 -0.1883  0.2028
 4667TIP3   OH235491   3.012   2.443   0.307  0.3235 -0.5803 -0.0894
 4667TIP3    H135492   3.099   2.428   0.271  0.8124 -0.9881  1.1954
 4667TIP3    H235493   2.957   2.460   0.231  1.9384  1.9353 -0.8521
 4668TIP3   OH235494   5.081   0.127  14.327 -0.2377 -0.2652 -0.1328
 4668TIP3    H135495   5.033   0.179  14.262 -1.8235 -0.2431  1.0109
 4668TIP3    H235496   5.126   0.191  14.381  1.1173 -0.2850 -1.2007
 4669TIP3   OH235497   6.024   2.814  11.768 -0.3019 -0.3587 -0.0037
 4669TIP3    H135498   6.093   2.866  11.809  0.9295 -2.2023  0.3873
 4669TIP3    H235499   6.000   2.864  11.690  3.0213 -0.5892 -1.3627
 4670TIP3   OH235500   1.518   5.194  15.398 -0.2984 -0.0811 -0.2672
 4670TIP3    H135501   1.467   5.184  15.318  0.2723  0.4062 -0.6984
 4670TIP3    H235502   1.601   5.149  15.379 -0.6560 -1.1253  0.5272
 4671TIP3   OH235503   0.194   4.642   0.704  0.4541  0.0030 -0.2476
 4671TIP3    H135504   0.137   4.704   0.748  0.9572  0.3245 -0.0365
 4671TIP3    H235505   0.197   4.672   0.613  0.1764 -0.0992 -0.2906
 4672TIP3   OH235506   2.245   3.620  12.424  0.0280  0.4733  0.0931
 4672TIP3    H135507   2.284   3.567  12.354  0.3631 -1.7850  1.8754
 4672TIP3    H235508   2.153   3.593  12.425 -0.5824  2.3420 -1.0308
 4673TIP3   OH235509   3.774   6.421   4.890 -0.0066 -0.0321  0.0559
 4673TIP3    H135510   3.859   6.382   4.868  0.0691  0.2857 -0.2306
 4673TIP3    H235511   3.792   6.514   4.901 -0.3342  0.0555 -0.1142
 4674TIP3   OH235512   1.461   0.984  12.023 -0.5478  0.7284 -0.3797
 4674TIP3    H135513   1.380   0.942  11.993  1.2188 -3.0833 -0.4177
 4674TIP3    H235514   1.450   0.991  12.118 -0.9372  0.1510 -0.3724
 4675TIP3   OH235515   6.392   1.520   3.991 -0.2155  0.0504 -0.0774
 4675TIP3    H135516   6.364   1.434   4.022  0.8891 -0.1545  0.4158
 4675TIP3    H235517   6.486   1.510   3.978 -0.0152  1.2798  0.3259
 4676TIP3   OH235518   5.740   2.244  14.174  0.3229  0.2918  0.4562
 4676TIP3    H135519   5.719   2.279  14.087  1.3198  1.9017  0.8249
 4676TIP3    H235520   5.665   2.190  14.197 -0.6127  1.0157 -0.7891
 4677TIP3   OH235521   0.253   2.284  10.950 -0.2862 -0.2142  0.5962
 4677TIP3    H135522   0.181   2.320  10.899 -1.9101 -2.5843  1.0502
 4677TIP3    H235523   0.267   2.197  10.913  1.7710 -0.1547  1.1178
 4678TIP3   OH235524   1.382   0.196   0.478 -0.0866 -0.0963  0.4225
 4678TIP3    H135525   1.360   0.104   0.492 -0.1888  0.3056  3.6032
 4678TIP3    H235526   1.478   0.198   0.480  0.0013 -0.2989 -1.5015
 4679TIP3   OH235527   5.117   4.966  10.478  0.4001 -0.2205 -0.4203
 4679TIP3    H135528   5.076   4.997  10.559  1.7469  0.6855 -0.0614
 4679TIP3    H235529   5.133   4.873  10.493  1.1072  0.0427  0.5765
 4680TIP3   OH235530   0.501   5.697   3.612 -0.5377  0.2275  0.0535
 4680TIP3    H135531   0.540   5.618   3.573 -0.2462  0.7231 -0.6873
 4680TIP3    H235532   0.500   5.679   3.706  1.3165  0.1129  0.0812
 4681TIP3   OH235533   1.090   3.895  14.397 -0.1282 -0.8704 -0.6964
 4681TIP3    H135534   1.110   3.807  14.430  1.1420 -0.6004 -0.6743
 4681TIP3    H235535   1.038   3.880  14.318 -0.3061 -1.6284 -0.4407
 4682TIP3   OH235536   2.792   0.470  11.473 -0.2548 -0.0574 -0.7729
 4682TIP3    H135537   2.855   0.522  11.522  0.1270 -1.1131 -0.1095
 4682TIP3    H235538   2.750   0.532  11.414  1.6884  0.6206 -1.5345
 4683TIP3   OH235539   2.045   4.206  13.962 -0.0927  0.2864  0.3329
 4683TIP3    H135540   2.044   4.301  13.948 -0.9918  0.1020 -1.0607
 4683TIP3    H235541   1.981   4.172  13.899  2.0838 -1.5066 -1.0317
 4684TIP3   OH235542   6.599   2.007   4.456 -0.2932  0.3963 -0.4342
 4684TIP3    H135543   6.595   2.086   4.401  0.4395  1.8141  1.4449
 4684TIP3    H235544   6.552   1.941   4.405  0.4394  1.5744 -2.7989
 4685TIP3   OH235545   5.298   2.066   3.625  0.0186 -0.3455  0.1542
 4685TIP3    H135546   5.250   2.135   3.578  1.4699 -0.3482 -1.4555
 4685TIP3    H235547   5.289   2.088   3.717 -2.6220 -0.0846 -0.0916
 4686TIP3   OH235548   2.729   3.831   4.713 -0.3884  0.0240 -0.1715
 4686TIP3    H135549   2.745   3.841   4.807  1.1253 -0.2512 -0.3721
 4686TIP3    H235550   2.677   3.907   4.689 -1.5052 -0.3361  1.0350
 4687TIP3   OH235551   0.082   1.751   3.260 -0.1855  0.3453  0.0856
 4687TIP3    H135552   0.166   1.705   3.257 -0.5395 -0.2906 -1.6452
 4687TIP3    H235553   0.058   1.751   3.352  1.1896 -0.4352  0.4802
 4688TIP3   OH235554   6.436   2.113   5.340 -0.0063 -0.1968 -0.1382
 4688TIP3    H135555   6.377   2.141   5.271 -0.7762  0.4718  0.7684
 4688TIP3    H235556   6.516   2.088   5.294 -0.3456  0.6436 -1.2336
 4689TIP3   OH235557   0.687   6.093   2.498  0.0652  0.5520  0.1126
 4689TIP3    H135558   0.630   6.159   2.538  0.9859  1.1917  0.3996
 4689TIP3    H235559   0.714   6.037   2.571 -0.9457 -0.3496 -0.1741
 4690TIP3   OH235560   4.013   0.782  16.692 -0.2519  0.2890  0.8428
 4690TIP3    H135561   4.103   0.814  16.694  0.0625 -0.3644 -1.0018
 4690TIP3    H235562   3.985   0.783  16.784  1.3501  1.2527  1.3570
 4691TIP3   OH235563   0.097   4.089   0.392  0.0363 -0.1168  0.6324
 4691TIP3    H135564   0.023   4.122   0.341  0.0753 -0.5075  0.3160
 4691TIP3    H235565   0.174   4.122   0.346  0.0605  1.3951  1.7068
 4692TIP3   OH235566   5.763   2.528  14.640 -0.4821  0.3960 -0.3781
 4692TIP3    H135567   5.824   2.460  14.668 -1.9168 -0.3542  1.0751
 4692TIP3    H235568   5.816   2.586  14.585  1.3674 -0.5541  0.3010
 4693TIP3   OH235569   6.482   4.149   2.816  0.2224 -0.4165 -0.2821
 4693TIP3    H135570   6.511   4.073   2.765 -1.0398 -1.8140  0.9976
 4693TIP3    H235571   6.410   4.186   2.764  1.1712  0.2627 -1.1607
 4694TIP3   OH235572   1.179   1.851   6.393  0.7079 -0.1169  0.1016
 4694TIP3    H135573   1.155   1.760   6.413 -1.9450  0.3963 -0.4211
 4694TIP3    H235574   1.234   1.844   6.315  1.0356 -1.2961  0.4078
 4695TIP3   OH235575   1.557   5.072   5.569 -0.4113  0.6120 -0.0439
 4695TIP3    H135576   1.494   5.037   5.506  0.5389  0.5060 -0.9457
 4695TIP3    H235577   1.515   5.151   5.603 -1.1381  0.4064 -0.4368
 4696TIP3   OH235578   3.771   1.116  12.782 -0.0716  0.3870  0.6327
 4696TIP3    H135579   3.799   1.207  12.792  2.3810 -0.2140 -0.0134
 4696TIP3    H235580   3.839   1.065  12.825 -0.6373 -1.2058 -0.2551
 4697TIP3   OH235581   1.429   6.461   6.370  0.2871 -0.0983  0.5324
 4697TIP3    H135582   1.417   6.382   6.422 -0.3932  0.0523  0.6148
 4697TIP3    H235583   1.340   6.494   6.355  0.6046  1.2831  1.4909
 4698TIP3   OH235584   4.380   6.418  16.752 -0.0120 -0.5881 -0.4468
 4698TIP3    H135585   4.309   6.472  16.717 -0.0138 -0.2326  0.1006
 4698TIP3    H235586   4.455   6.437  16.695 -0.0060  0.0165 -0.2416
 4699TIP3   OH235587   6.236   2.061  15.855  0.2625 -0.1888 -0.5129
 4699TIP3    H135588   6.322   2.091  15.826 -0.3211  2.7855  0.5321
 4699TIP3    H235589   6.255   1.984  15.910  2.3520  0.9077  0.3911
 4700TIP3   OH235590   2.797   3.526   0.161 -0.7400  0.0579  0.3221
 4700TIP3    H135591   2.779   3.438   0.194  0.2861 -0.7776 -1.2167
 4700TIP3    H235592   2.738   3.536   0.086 -0.1491  0.2805 -0.1203
 4701TIP3   OH235593   6.827   5.191  12.608  0.1525  0.2199  0.2086
 4701TIP3    H135594   6.851   5.256  12.674 -0.7884  2.0832 -1.1925
 4701TIP3    H235595   6.737   5.167  12.630  0.2708 -0.1186  0.3316
 4702TIP3   OH235596   3.822   1.361  14.940  0.0117 -0.3061 -0.1873
 4702TIP3    H135597   3.734   1.348  14.977 -0.4915  0.0092 -1.2331
 4702TIP3    H235598   3.847   1.448  14.969  0.2504 -0.6387  0.6321
 4703TIP3   OH235599   6.716   6.417  15.259 -0.0743  0.3897  0.1721
 4703TIP3    H135600   6.699   6.379  15.345  0.0013  2.5863  1.2202
 4703TIP3    H235601   6.632   6.456  15.233 -0.0520 -0.1017 -0.6941
 4704TIP3   OH235602   2.776   4.445   6.293  0.0801  0.2481  0.4833
 4704TIP3    H135603   2.788   4.538   6.271  0.2651  0.0566 -0.2397
 4704TIP3    H235604   2.856   4.422   6.341  0.3786  0.2630 -0.0042
 4705TIP3   OH235605   2.766   1.605  14.687  0.4662 -0.1360 -0.1420
 4705TIP3    H135606   2.760   1.600  14.783  0.0040  0.2726 -0.1442
 4705TIP3    H235607   2.680   1.578  14.656  0.0658  1.2827 -0.3653
 4706TIP3   OH235608   0.523   3.136  16.680  0.0209  0.4308  0.0241
 4706TIP3    H135609   0.434   3.167  16.667 -0.2521  0.9292  2.4720
 4706TIP3    H235610   0.569   3.211  16.718  1.3412  0.0064 -0.6815
 4707TIP3   OH235611   5.619   2.393  17.136  0.0532  0.1051  0.3684
 4707TIP3    H135612   5.603   2.413  17.228  0.1370  1.0374  0.1910
 4707TIP3    H235613   5.602   2.299  17.129  3.0761 -0.6885  1.9873
 4708TIP3   OH235614   3.188   3.780   3.700 -0.4408  0.5388  0.4096
 4708TIP3    H135615   3.235   3.697   3.692 -1.9786 -0.6584  2.7049
 4708TIP3    H235616   3.222   3.820   3.780  0.3078  2.2206 -0.6854
 4709TIP3   OH235617   5.889   3.779   2.869 -0.0162  0.4643  0.0913
 4709TIP3    H135618   5.825   3.833   2.822  0.4357  0.4281 -0.5784
 4709TIP3    H235619   5.845   3.755   2.950 -0.8051  0.5577 -0.3000
 4710TIP3   OH235620   3.688   3.125  12.646  0.1869  0.5447 -0.5118
 4710TIP3    H135621   3.768   3.073  12.638 -0.3522 -0.2583 -0.8441
 4710TIP3    H235622   3.638   3.102  12.568 -1.1195 -0.2880  0.5354
 4711TIP3   OH235623   0.839   6.823   5.469 -0.2475  0.4650  0.2265
 4711TIP3    H135624   0.889   6.862   5.541  1.5844  0.0214 -0.7485
 4711TIP3    H235625   0.883   6.854   5.390 -1.7253  0.2870 -0.6994
 4712TIP3   OH235626   3.930   0.978  13.221 -0.0276  0.3756  0.0493
 4712TIP3    H135627   3.875   1.054  13.205  0.6607  1.2590  1.6519
 4712TIP3    H235628   3.930   0.969  13.317  0.9465 -0.8627 -0.0467
 4713TIP3   OH235629   2.495   0.610   1.148  0.4446 -0.4348  0.2351
 4713TIP3    H135630   2.403   0.612   1.175  0.7347 -1.3654  1.3511
 4713TIP3    H235631   2.544   0.643   1.223  1.1690 -1.8309  0.4045
 4714TIP3   OH235632   6.708   2.818  16.758  0.1525 -0.1711 -0.6533
 4714TIP3    H135633   6.616   2.820  16.733  0.5652  1.3211 -2.3204
 4714TIP3    H235634   6.718   2.739  16.811 -1.8750 -0.8757 -1.2521
 4715TIP3   OH235635   5.552   2.212   2.895 -0.0981 -0.1525 -0.5396
 4715TIP3    H135636   5.501   2.135   2.920  1.2501 -1.6946 -2.2396
 4715TIP3    H235637   5.529   2.227   2.804  0.0225  1.1785 -0.3604
 4716TIP3   OH235638   1.857   0.237   5.822  0.3280  0.0143 -0.3196
 4716TIP3    H135639   1.843   0.293   5.899  0.8553  0.1059 -0.2863
 4716TIP3    H235640   1.863   0.148   5.857  0.8175  0.0837 -0.2274
 4717TIP3   OH235641   2.445   6.544  11.703 -0.9080  0.3566 -0.3165
 4717TIP3    H135642   2.370   6.590  11.666 -0.6243  0.4222 -0.8133
 4717TIP3    H235643   2.489   6.505  11.628 -1.0643 -0.6202  0.0755
 4718TIP3   OH235644   0.492   2.731   1.123  0.4416  0.0521  0.4368
 4718TIP3    H135645   0.441   2.654   1.146 -0.1777  0.8519  1.8917
 4718TIP3    H235646   0.581   2.698   1.108  0.1944 -0.9368  1.0817
 4719TIP3   OH235647   6.147   5.185  16.164 -0.0876 -0.2785 -0.1099
 4719TIP3    H135648   6.218   5.175  16.100  0.6919 -0.3029  0.7383
 4719TIP3    H235649   6.110   5.271  16.146 -0.2848 -0.5325 -0.9865
 4720TIP3   OH235650   4.696   2.961  11.709 -0.3550  0.5747 -0.2649
 4720TIP3    H135651   4.616   2.974  11.657 -0.6841  0.2942  0.1626
 4720TIP3    H235652   4.717   2.868  11.698  1.0030  1.0204 -1.9014
 4721TIP3   OH235653   1.754   1.560   4.692 -0.0387  0.2325 -0.4957
 4721TIP3    H135654   1.758   1.600   4.779  0.8960 -1.3531  0.2442
 4721TIP3    H235655   1.698   1.483   4.704  0.8738 -0.5411 -1.0520
 4722TIP3   OH235656   1.661   1.981  13.377  0.3289  0.2346  0.4440
 4722TIP3    H135657   1.643   1.995  13.284  1.7710 -2.2600 -0.2833
 4722TIP3    H235658   1.574   1.978  13.418 -0.3407  1.0447 -0.8493
 4723TIP3   OH235659   5.809   5.547   4.207  0.1871 -0.2423 -0.4935
 4723TIP3    H135660   5.722   5.512   4.225 -1.1751  2.9608 -0.1721
 4723TIP3    H235661   5.811   5.561   4.112  0.4797 -0.5680 -0.5391
 4724TIP3   OH235662   5.036   2.678   3.838  0.2123 -0.4451  0.1819
 4724TIP3    H135663   5.079   2.596   3.814 -1.5922 -1.2690 -0.4306
 4724TIP3    H235664   5.100   2.724   3.892  1.5201 -1.9546 -0.0040
 4725TIP3   OH235665   4.126   1.874   5.956  0.1683  0.7050 -0.7721
 4725TIP3    H135666   4.176   1.948   5.991  0.5888  0.6795 -1.3110
 4725TIP3    H235667   4.187   1.800   5.959 -0.4717  0.1995  0.4338
 4726TIP3   OH235668   0.131   3.794   4.196 -0.0878  0.3228  0.5214
 4726TIP3    H135669   0.084   3.876   4.213 -1.0753  0.1796 -1.2917
 4726TIP3    H235670   0.065   3.726   4.205  0.6608 -0.2872  1.7162
 4727TIP3   OH235671   1.199   5.758   4.632  0.2173 -0.0334 -0.1746
 4727TIP3    H135672   1.268   5.699   4.603  1.4251  1.2534 -0.0858
 4727TIP3    H235673   1.234   5.846   4.614 -0.4723  0.7170  1.8432
 4728TIP3   OH235674   2.222   6.151   1.743 -0.4237 -0.4276 -0.0734
 4728TIP3    H135675   2.260   6.064   1.734  2.2500  0.3281  2.3820
 4728TIP3    H235676   2.298   6.210   1.744 -1.6999  1.4231  2.8797
 4729TIP3   OH235677   6.735   5.633   3.429  0.4419  0.7147 -0.2441
 4729TIP3    H135678   6.816   5.677   3.404  1.2576 -0.1534  0.7688
 4729TIP3    H235679   6.728   5.559   3.368  1.2650 -0.1160  0.6298
 4730TIP3   OH235680   5.042   1.524  15.320 -0.0769 -0.2362 -0.5669
 4730TIP3    H135681   5.084   1.594  15.270  2.4538 -2.2106 -1.4419
 4730TIP3    H235682   4.984   1.482  15.257 -0.3018  0.0112 -0.5275
 4731TIP3   OH235683   1.545   1.340  12.073  0.0005 -0.1180  0.1238
 4731TIP3    H135684   1.604   1.267  12.052  0.6007  0.2713  0.4013
 4731TIP3    H235685   1.575   1.411  12.016  0.1849  0.2631  0.6851
 4732TIP3   OH235686   0.236   3.639  12.143 -0.4634  0.1026  0.3300
 4732TIP3    H135687   0.199   3.628  12.055 -0.9383  0.5849  0.4645
 4732TIP3    H235688   0.188   3.713  12.180  0.7017  0.8076  0.4842
 4733TIP3   OH235689   1.529   4.126   2.393 -0.2846  0.3177 -0.4344
 4733TIP3    H135690   1.450   4.178   2.378 -0.4824 -0.3345 -1.8486
 4733TIP3    H235691   1.554   4.095   2.306  0.7594 -0.6044  0.1636
 4734TIP3   OH235692   0.979   1.291   2.521  0.7077 -0.0251  0.1065
 4734TIP3    H135693   1.025   1.368   2.489  2.2666 -1.6170 -1.7490
 4734TIP3    H235694   1.031   1.260   2.595  1.4328 -0.5748 -0.6140
 4735TIP3   OH235695   5.352   2.335   2.328 -0.3306 -0.1268  0.0876
 4735TIP3    H135696   5.329   2.406   2.268 -1.1320  0.2282  0.7812
 4735TIP3    H235697   5.277   2.330   2.388  0.3184 -0.6544  0.8751
 4736TIP3   OH235698   6.830   4.454  10.883 -0.1330 -0.3192 -0.0953
 4736TIP3    H135699   6.893   4.525  10.872  0.7010 -0.9321  0.6082
 4736TIP3    H235700   6.774   4.459  10.805  0.1207  0.8850 -0.2227
 4737TIP3   OH235701   2.367   2.405   3.554 -0.4368  0.3299  0.0271
 4737TIP3    H135702   2.422   2.482   3.539 -0.6736  0.9988  2.2109
 4737TIP3    H235703   2.280   2.441   3.573 -0.6534 -0.4858  0.6389
 4738TIP3   OH235704   3.031   3.823  13.211 -0.8250 -0.0327 -0.2803
 4738TIP3    H135705   3.001   3.767  13.283 -0.1728  0.1713  0.1584
 4738TIP3    H235706   2.975   3.900  13.216  0.0024  0.5291  0.7897
 4739TIP3   OH235707   4.060   3.428   1.130 -0.1560 -0.0110  0.1933
 4739TIP3    H135708   4.108   3.419   1.047 -1.8405  1.0550 -0.9755
 4739TIP3    H235709   4.055   3.340   1.165  1.5457 -0.3173 -0.2820
 4740TIP3   OH235710   4.874   1.836  15.916  0.0775  0.3112  0.2314
 4740TIP3    H135711   4.840   1.889  15.844 -1.2361  1.0528  1.3438
 4740TIP3    H235712   4.836   1.749  15.902  0.1572  0.3403 -0.1762
 4741TIP3   OH235713   1.349   4.243  16.411 -0.1005 -0.3537  0.6615
 4741TIP3    H135714   1.315   4.329  16.387  0.5214 -0.5797 -1.2659
 4741TIP3    H235715   1.286   4.181  16.375 -0.2872 -0.7262  1.6046
 4742TIP3   OH235716   5.589   4.184  16.031  0.2575  0.3013 -0.8244
 4742TIP3    H135717   5.663   4.216  16.082  0.1232  0.2589 -0.6006
 4742TIP3    H235718   5.522   4.163  16.096  0.2154 -0.0979 -0.9904
 4743TIP3   OH235719   2.655   6.142   2.030  0.0810 -0.0917  0.0548
 4743TIP3    H135720   2.706   6.095   2.096  1.2029  0.4846 -0.3736
 4743TIP3    H235721   2.604   6.073   1.986  0.5365 -0.6991  0.4593
 4744TIP3   OH235722   5.465   2.871   3.719  0.2736 -0.1816  0.2856
 4744TIP3    H135723   5.511   2.952   3.739 -1.0170  0.6335  0.0730
 4744TIP3    H235724   5.478   2.858   3.625 -0.6929  0.5803  0.0230
 4745TIP3   OH235725   3.901   1.781   3.236  0.0301  0.2202  0.2168
 4745TIP3    H135726   3.865   1.694   3.253  0.0812  0.6469  3.0772
 4745TIP3    H235727   3.830   1.828   3.193 -0.8702 -0.5512  0.8058
 4746TIP3   OH235728   5.376   3.925  11.465  0.2139 -0.1222  0.1003
 4746TIP3    H135729   5.302   3.985  11.454  0.3269 -0.2352 -1.4512
 4746TIP3    H235730   5.453   3.979  11.444  0.2740 -0.9240 -1.8762
 4747TIP3   OH235731   2.627   3.782   3.292  0.2325 -0.6061  0.1837
 4747TIP3    H135732   2.560   3.785   3.360 -0.2547  1.2440 -0.3345
 4747TIP3    H235733   2.707   3.755   3.338 -0.3786 -0.7146  1.2098
 4748TIP3   OH235734   0.263   5.438  14.131  0.2505 -0.3464  0.4148
 4748TIP3    H135735   0.235   5.413  14.219  0.7152 -0.2599  0.5876
 4748TIP3    H235736   0.183   5.434  14.079  0.3847 -2.7012  0.3080
 4749TIP3   OH235737   0.741   5.161  14.120  0.3562 -0.0059  0.2247
 4749TIP3    H135738   0.835   5.174  14.108  0.0985  0.2607 -2.0687
 4749TIP3    H235739   0.732   5.070  14.148  1.2141 -0.9626 -2.2996
 4750TIP3   OH235740   4.056   4.404   4.625 -0.2112 -0.3630 -0.0302
 4750TIP3    H135741   4.049   4.350   4.546 -0.5778 -1.0027  0.4308
 4750TIP3    H235742   4.114   4.354   4.682  0.3925  0.2978 -0.0491
 4751TIP3   OH235743   1.693   1.750  11.009 -0.6558 -0.2667  0.1027
 4751TIP3    H135744   1.700   1.686  10.939 -1.4198  1.8033 -1.9743
 4751TIP3    H235745   1.625   1.810  10.980 -0.2218  1.3238  2.1242
 4752TIP3   OH235746   5.420   0.437   2.823  0.2693  0.0167  0.0159
 4752TIP3    H135747   5.395   0.529   2.816  2.5766  0.6542 -0.5239
 4752TIP3    H235748   5.371   0.394   2.753  0.6090  1.1908 -0.9849
 4753TIP3   OH235749   2.741   3.314  10.581  0.2637 -0.4490 -0.4447
 4753TIP3    H135750   2.654   3.355  10.580  0.9662  1.1185 -0.4156
 4753TIP3    H235751   2.790   3.359  10.513  0.9228 -1.6820 -0.8239
 4754TIP3   OH235752   4.119   2.924  17.052 -0.3615  0.3710  0.1338
 4754TIP3    H135753   4.062   2.918  16.975  1.0664 -2.6472 -0.8528
 4754TIP3    H235754   4.068   2.883  17.122  0.2343 -1.7932 -0.6047
 4755TIP3   OH235755   1.536   5.352   1.770  0.0801 -0.2164  0.1062
 4755TIP3    H135756   1.591   5.334   1.694  0.3947  1.0538  0.0077
 4755TIP3    H235757   1.465   5.407   1.737 -0.4345 -0.6143  0.5172
 4756TIP3   OH235758   5.951   2.098   5.802  0.0548 -0.2225  0.4566
 4756TIP3    H135759   5.986   2.185   5.824  2.9541 -1.9052  3.4356
 4756TIP3    H235760   5.913   2.066   5.884 -1.2327 -1.6935 -0.6631
 4757TIP3   OH235761   1.070   1.018  15.853  0.0404 -0.2597 -0.4307
 4757TIP3    H135762   1.116   1.026  15.937  0.6446 -0.7062 -0.7148
 4757TIP3    H235763   1.041   0.927  15.849  1.0975 -0.5750 -1.2551
 4758TIP3   OH235764   2.242   5.865   9.839  0.0051  0.0967 -0.6679
 4758TIP3    H135765   2.291   5.856   9.757  1.5064 -0.4029  0.2368
 4758TIP3    H235766   2.270   5.790   9.892 -1.6266 -0.1074 -0.0277
 4759TIP3   OH235767   1.458   4.417   2.546  0.0871 -0.5333  0.3200
 4759TIP3    H135768   1.369   4.390   2.569  0.5613 -2.6780 -0.1259
 4759TIP3    H235769   1.454   4.513   2.542 -2.3280 -0.5969 -0.2716
 4760TIP3   OH235770   0.694   2.421  10.300 -0.0513 -0.7706  0.4364
 4760TIP3    H135771   0.702   2.498  10.244  1.9529 -1.6879 -0.6454
 4760TIP3    H235772   0.628   2.445  10.365  1.5640  2.4459  1.0846
 4761TIP3   OH235773   6.098   3.657   4.744  0.6519 -0.1871  0.2882
 4761TIP3    H135774   6.032   3.627   4.806  0.6932  0.0666  0.4534
 4761TIP3    H235775   6.084   3.752   4.738  1.7047  0.0367  1.1470
 4762TIP3   OH235776   3.364   4.766   1.760  1.0486  0.4979  0.7830
 4762TIP3    H135777   3.412   4.791   1.681  0.0982 -0.5693 -0.1736
 4762TIP3    H235778   3.360   4.670   1.756  1.0434  0.4211  2.1741
 4763TIP3   OH235779   3.040   5.022  12.160  0.3925  0.0407  0.6108
 4763TIP3    H135780   3.053   4.932  12.187  2.1681  0.4220  1.1112
 4763TIP3    H235781   3.128   5.057  12.147 -0.2668  1.0762 -1.7251
 4764TIP3   OH235782   4.337   2.695   2.116  0.3902 -0.1127 -0.0576
 4764TIP3    H135783   4.294   2.690   2.030 -0.6342  2.0975  0.2460
 4764TIP3    H235784   4.314   2.613   2.159 -0.5547 -0.5156 -1.2611
 4765TIP3   OH235785   2.210   6.424   0.927 -0.4308  0.2318 -0.2879
 4765TIP3    H135786   2.118   6.399   0.933 -0.6299  0.0242 -3.0938
 4765TIP3    H235787   2.256   6.358   0.978 -1.7399 -0.1231  0.4840
 4766TIP3   OH235788   0.527   1.335   2.089  0.2450 -0.4767 -0.0227
 4766TIP3    H135789   0.474   1.384   2.152  2.0011  1.2519  0.2209
 4766TIP3    H235790   0.464   1.299   2.027 -1.2523  1.0047  0.5622
 4767TIP3   OH235791   4.717   4.544  14.964  0.3502  0.8331  0.0268
 4767TIP3    H135792   4.668   4.519  14.885  0.7963  0.2783 -0.0775
 4767TIP3    H235793   4.734   4.461  15.009 -0.0103  1.1542  0.7785
 4768TIP3   OH235794   5.632   1.385  14.997  0.0189  0.1564 -0.1656
 4768TIP3    H135795   5.728   1.382  14.993 -0.0416 -0.3913 -1.5243
 4768TIP3    H235796   5.603   1.321  14.932 -1.2751  0.8551 -0.3065
 4769TIP3   OH235797   2.545   1.565  11.874  0.0347 -0.0729 -0.2904
 4769TIP3    H135798   2.588   1.600  11.795  2.0313 -1.9335 -0.1351
 4769TIP3    H235799   2.595   1.602  11.947 -0.8154  0.4051  0.0676
 4770TIP3   OH235800   4.003   0.155   1.131 -0.5769 -0.6237 -0.5016
 4770TIP3    H135801   4.047   0.237   1.108 -1.3199 -0.6593 -2.2392
 4770TIP3    H235802   4.073   0.090   1.130 -0.4210 -0.4839 -2.0678
 4771TIP3   OH235803   0.246   6.404   1.667 -0.4312 -0.4277  0.0354
 4771TIP3    H135804   0.334   6.442   1.664 -0.0637 -1.1024  1.3783
 4771TIP3    H235805   0.196   6.466   1.720  0.2954 -1.9071  2.6632
 4772TIP3   OH235806   2.037   5.541   4.465 -0.4140  0.4253  0.2825
 4772TIP3    H135807   1.971   5.501   4.409 -0.6958  2.2325 -0.7363
 4772TIP3    H235808   1.987   5.594   4.527  0.0227  0.6758  0.4242
 4773TIP3   OH235809   0.430   2.538   1.342  0.2260  0.2446  0.2540
 4773TIP3    H135810   0.418   2.517   1.249 -1.5146 -1.0176  0.6912
 4773TIP3    H235811   0.341   2.550   1.375  0.5705 -1.9153  2.2751
 4774TIP3   OH235812   5.999   4.272  11.385  0.2337  0.1636 -0.3096
 4774TIP3    H135813   6.024   4.335  11.452 -0.4363 -0.0375  0.1402
 4774TIP3    H235814   5.915   4.236  11.415 -1.0654  1.4549 -2.1701
 4775TIP3   OH235815   1.328   5.025   0.576 -0.0971 -0.6069  0.2859
 4775TIP3    H135816   1.402   5.052   0.521 -0.6570  1.5783  0.5143
 4775TIP3    H235817   1.273   4.973   0.518  1.0194 -1.2640 -0.2180
 4776TIP3   OH235818   0.889   2.002   4.321  0.2632  0.1266  0.4830
 4776TIP3    H135819   0.883   2.043   4.235  0.7014  0.6365  0.6901
 4776TIP3    H235820   0.955   1.933   4.311  1.3798  1.1141  0.7537
 4777TIP3   OH235821   0.550   1.946  15.918  0.9043 -0.6630  0.1011
 4777TIP3    H135822   0.622   1.888  15.942 -0.4723 -1.6028  2.2237
 4777TIP3    H235823   0.472   1.904  15.953 -0.3860  1.5951  0.1350
 4778TIP3   OH235824   1.193   1.708  15.992 -0.3196 -0.4153  0.0519
 4778TIP3    H135825   1.265   1.737  16.048 -0.9233 -1.3000  1.3359
 4778TIP3    H235826   1.217   1.739  15.904  0.6704  0.9789  0.7681
 4779TIP3   OH235827   4.270   0.614   5.853  0.0025 -0.2262  0.6077
 4779TIP3    H135828   4.365   0.603   5.849  0.0741  0.3522  0.6539
 4779TIP3    H235829   4.255   0.671   5.928 -0.2817  0.8064 -0.2082
 4780TIP3   OH235830   2.527   4.634   0.520 -0.6165 -0.4111 -0.4370
 4780TIP3    H135831   2.513   4.655   0.612 -1.5854 -0.8357 -0.4708
 4780TIP3    H235832   2.597   4.568   0.521  0.8814  1.1311 -0.1842
 4781TIP3   OH235833   1.269   1.048  12.756 -0.1873  0.3435  0.3578
 4781TIP3    H135834   1.326   1.125  12.755  1.1088 -0.5300 -1.9288
 4781TIP3    H235835   1.207   1.064  12.684 -2.3982  0.8997  2.2874
 4782TIP3   OH235836   3.663   6.534  13.715 -0.5548 -0.4984  0.1992
 4782TIP3    H135837   3.613   6.530  13.797  0.7522 -0.3709  1.0420
 4782TIP3    H235838   3.688   6.626  13.706  1.8269 -0.9420  1.3028
 4783TIP3   OH235839   1.158   6.129   2.681 -0.7698  0.2871  0.0542
 4783TIP3    H135840   1.180   6.148   2.590 -0.9194  0.5739  0.0768
 4783TIP3    H235841   1.073   6.173   2.694 -0.4343  0.8000  0.5246
 4784TIP3   OH235842   5.815   2.225   1.789 -0.4020 -0.4450 -0.4155
 4784TIP3    H135843   5.740   2.270   1.826 -0.1456 -0.3295 -0.0303
 4784TIP3    H235844   5.835   2.155   1.851  0.3645  0.0910 -0.0423
 4785TIP3   OH235845   6.019   5.759   1.383  0.5840 -0.0446 -0.2718
 4785TIP3    H135846   6.028   5.738   1.290  0.0826  0.4030 -0.4255
 4785TIP3    H235847   6.043   5.678   1.428 -3.6824 -1.9093 -0.8829
 4786TIP3   OH235848   2.637   0.034  16.310  0.3699 -0.4475  0.1993
 4786TIP3    H135849   2.630   0.102  16.377  2.5086 -0.0916  0.1405
 4786TIP3    H235850   2.622  -0.047  16.357  1.5906 -0.1834  1.0810
 4787TIP3   OH235851   4.752   6.434   3.569 -0.1691  0.1679  0.2539
 4787TIP3    H135852   4.732   6.400   3.656  0.9931  0.1058  0.5131
 4787TIP3    H235853   4.777   6.525   3.584  1.4474 -0.2386  0.1953
 4788TIP3   OH235854   0.344   0.212   4.762 -0.0245  0.2590  0.2064
 4788TIP3    H135855   0.251   0.232   4.770 -0.3445 -1.3433  0.7755
 4788TIP3    H235856   0.349   0.117   4.770  1.7127  0.3556  0.6389
 4789TIP3   OH235857   3.050   1.851  15.817 -0.1085 -0.1891  0.0072
 4789TIP3    H135858   3.089   1.836  15.903  1.7107  3.8124  0.0892
 4789TIP3    H235859   3.044   1.946  15.809 -2.0790 -0.4277 -3.5412
 4790TIP3   OH235860   2.307   5.626   3.102 -0.0767 -0.3320 -0.1137
 4790TIP3    H135861   2.402   5.616   3.100  0.4067  3.0333  0.5995
 4790TIP3    H235862   2.284   5.657   3.014 -0.5913 -1.2034 -0.3094
 4791TIP3   OH235863   5.330   4.722  11.881  0.5182 -0.4153 -0.1380
 4791TIP3    H135864   5.300   4.790  11.941  1.2701  0.5257 -0.7947
 4791TIP3    H235865   5.260   4.714  11.816  0.5496 -0.0541 -0.2187
 4792TIP3   OH235866   0.197   0.634  16.236  0.1729  0.0827  0.4714
 4792TIP3    H135867   0.176   0.677  16.319 -0.7258  0.9242 -0.1653
 4792TIP3    H235868   0.274   0.681  16.204  0.5992 -0.3279  0.8769
 4793TIP3   OH235869   3.826   5.372  14.862 -0.2834 -0.0364  0.2909
 4793TIP3    H135870   3.921   5.359  14.867 -0.3445 -0.2763  0.9967
 4793TIP3    H235871   3.811   5.454  14.910 -0.3409  0.5130 -0.6336
 4794TIP3   OH235872   2.548   4.677  13.157  0.0927  0.5320  0.2564
 4794TIP3    H135873   2.642   4.682  13.175  0.1075  0.4101  0.2186
 4794TIP3    H235874   2.518   4.600  13.205  0.3328 -0.3995 -1.0305
 4795TIP3   OH235875   4.141   0.933   4.624  0.4645 -0.2433  0.0308
 4795TIP3    H135876   4.188   0.862   4.581  1.1217 -0.5304  1.2093
 4795TIP3    H235877   4.162   0.924   4.717 -1.4758 -0.0601  0.5444
 4796TIP3   OH235878   5.348   5.305   1.739 -0.7741  0.2703 -0.0794
 4796TIP3    H135879   5.377   5.378   1.685 -1.5832  0.7165  0.0700
 4796TIP3    H235880   5.401   5.231   1.710  0.1767  0.9549 -0.1115
 4797TIP3   OH235881   4.101   5.964  12.429  0.6072  0.5666 -0.4404
 4797TIP3    H135882   4.018   6.008  12.409  0.2731 -0.0689 -0.5079
 4797TIP3    H235883   4.149   6.026  12.482  0.0302  0.9001 -0.2968
 4798TIP3   OH235884   6.465   1.092   0.465 -0.2032  0.1768  0.8203
 4798TIP3    H135885   6.463   0.999   0.489 -0.5519 -0.2360 -0.7300
 4798TIP3    H235886   6.541   1.127   0.511  0.8061 -1.2097  0.2730
 4799TIP3   OH235887   3.946   3.142   2.224  0.2315  0.2348 -0.1248
 4799TIP3    H135888   3.973   3.234   2.228 -2.1530  0.9615  0.6316
 4799TIP3    H235889   4.008   3.102   2.163  2.2080  2.0021  0.5905
 4800TIP3   OH235890   1.951   0.318  16.164 -0.0880 -0.4063 -0.0168
 4800TIP3    H135891   2.046   0.303  16.160 -0.2550 -1.4986 -0.3215
 4800TIP3    H235892   1.935   0.347  16.253  0.3576 -1.6958  0.5077
 4801TIP3   OH235893   4.382   1.046  13.789  0.1485  0.4838 -0.0927
 4801TIP3    H135894   4.288   1.046  13.806  0.0909 -1.6117 -0.2000
 4801TIP3    H235895   4.389   1.040  13.694  0.3585 -1.1417  0.0112
 4802TIP3   OH235896   0.541   1.012  13.057 -0.3107 -0.5947 -0.4521
 4802TIP3    H135897   0.538   1.092  13.109 -1.1881 -1.5493  1.0466
 4802TIP3    H235898   0.602   0.955  13.104 -0.6010 -1.2325 -0.8258
 4803TIP3   OH235899   4.113   2.408   1.840  0.1908  0.0808 -0.2834
 4803TIP3    H135900   4.152   2.489   1.872  0.8361 -0.1039 -0.5872
 4803TIP3    H235901   4.022   2.430   1.824  0.2159  0.5802  0.2253
 4804TIP3   OH235902   5.159   6.048   1.738  0.1274 -0.2606  0.1258
 4804TIP3    H135903   5.094   5.981   1.716 -0.6099  0.2160  0.7967
 4804TIP3    H235904   5.159   6.051   1.834  0.1744  0.6682  0.1084
 4805TIP3   OH235905   0.662   2.876  11.636  0.1182 -0.7397 -0.8755
 4805TIP3    H135906   0.747   2.842  11.662 -0.4205 -0.7795  0.9705
 4805TIP3    H235907   0.644   2.833  11.552  1.2645 -1.8681 -0.5834
 4806TIP3   OH235908   0.631   4.916  16.753  0.1718  0.3277 -0.1536
 4806TIP3    H135909   0.543   4.908  16.790  0.4932  1.5623  0.9797
 4806TIP3    H235910   0.689   4.885  16.823  0.6706  0.3054 -0.5764
 4807TIP3   OH235911   1.402   1.410  11.490  0.5014 -0.1981 -0.0760
 4807TIP3    H135912   1.421   1.412  11.584  2.3185  0.0339 -0.4205
 4807TIP3    H235913   1.484   1.435  11.448 -0.6897  1.1961 -1.7011
 4808TIP3   OH235914   2.669   3.283  16.745  0.0675  0.7645  0.2102
 4808TIP3    H135915   2.653   3.293  16.839  0.6318  0.4209  0.3495
 4808TIP3    H235916   2.686   3.190  16.733  0.2053  0.8384 -0.1985
 4809TIP3   OH235917   6.458   0.880  16.188  0.0879 -0.2532 -0.1450
 4809TIP3    H135918   6.473   0.791  16.156 -1.2531 -0.2273 -0.9324
 4809TIP3    H235919   6.389   0.870  16.253  0.2311  0.1580  0.0687
 4810TIP3   OH235920   6.628   0.123   5.467 -0.0023  0.6208 -0.5867
 4810TIP3    H135921   6.663   0.184   5.401 -2.2126  2.6171 -0.0583
 4810TIP3    H235922   6.560   0.074   5.422 -0.0899  0.4830 -0.3075
 4811TIP3   OH235923   4.782   0.314  16.201 -0.4404 -0.4174  0.3682
 4811TIP3    H135924   4.808   0.251  16.134  1.8167  0.3823  0.3929
 4811TIP3    H235925   4.736   0.383  16.154  0.1808 -0.3906 -0.2094
 4812TIP3   OH235926   0.606   3.979   4.790  0.4359  0.3055 -0.0181
 4812TIP3    H135927   0.613   3.897   4.837  0.1103  0.2648 -0.0353
 4812TIP3    H235928   0.512   3.996   4.785  0.5214  2.0622  2.3724
 4813TIP3   OH235929   1.386   1.792  16.169 -0.4320  0.1118  0.3211
 4813TIP3    H135930   1.472   1.759  16.196 -0.7608  0.6407  2.1124
 4813TIP3    H235931   1.396   1.887  16.166 -0.7971  0.1404 -0.0929
 4814TIP3   OH235932   1.374   5.619  13.337 -0.2937  0.2056 -0.2194
 4814TIP3    H135933   1.411   5.626  13.426  0.7621  1.3813 -0.7260
 4814TIP3    H235934   1.289   5.663  13.343 -0.9003 -1.0122  0.5455
 4815TIP3   OH235935   2.279   3.516   2.802  0.3860  0.8854  0.5306
 4815TIP3    H135936   2.234   3.594   2.835 -0.4154  0.2010  1.0924
 4815TIP3    H235937   2.352   3.502   2.863  0.8918  1.5318  0.0831
 4816TIP3   OH235938   5.810   6.758  17.223 -0.6310  0.4729  0.5569
 4816TIP3    H135939   5.809   6.846  17.187  2.0187  1.1632  1.8996
 4816TIP3    H235940   5.732   6.754  17.280 -0.6935  1.9985  0.6099
 4817TIP3   OH235941   0.847   2.805   0.771  0.7684  0.9026  0.1182
 4817TIP3    H135942   0.832   2.899   0.786 -0.6957  0.8972 -1.0720
 4817TIP3    H235943   0.916   2.802   0.705  2.3624  1.0422  1.6709
 4818TIP3   OH235944   3.550   2.559  11.442  0.4319 -0.1636  0.4487
 4818TIP3    H135945   3.626   2.611  11.467  0.7435  1.2609 -3.0086
 4818TIP3    H235946   3.586   2.484  11.395 -0.2381 -0.6172  0.6394
 4819TIP3   OH235947   2.458   0.308   6.099 -0.1059 -0.6459  0.0419
 4819TIP3    H135948   2.444   0.375   6.166  0.7533 -1.7955  1.4114
 4819TIP3    H235949   2.381   0.252   6.103 -0.1866 -0.5508 -0.1460
 4820TIP3   OH235950   0.516   3.026  16.341  0.4550  0.4331 -0.2982
 4820TIP3    H135951   0.566   3.042  16.261  0.3080  0.3171 -0.4135
 4820TIP3    H235952   0.536   3.101  16.397  1.0990  0.1733 -0.1742
 4821TIP3   OH235953   5.374   1.104   4.642 -0.0588 -0.0614  0.0547
 4821TIP3    H135954   5.468   1.126   4.636 -0.0260 -0.2648 -0.1587
 4821TIP3    H235955   5.330   1.187   4.623  0.0654 -0.2106 -0.9156
 4822TIP3   OH235956   3.996   1.414   5.608 -0.7186  0.0835  0.2345
 4822TIP3    H135957   4.061   1.419   5.679 -2.6978 -1.0260  2.2559
 4822TIP3    H235958   3.927   1.475   5.635 -0.6337  1.1385 -1.8009
 4823TIP3   OH235959   3.226   3.487   3.267 -0.5401  0.4347 -0.1389
 4823TIP3    H135960   3.208   3.409   3.319 -2.0467  0.8362 -0.0261
 4823TIP3    H235961   3.146   3.538   3.271  0.1682  1.6474 -0.8295
 4824TIP3   OH235962   0.371   5.318   2.246 -0.1918  0.5556 -0.7704
 4824TIP3    H135963   0.327   5.262   2.183 -0.8403  0.1626  0.0149
 4824TIP3    H235964   0.411   5.387   2.193 -1.1969  0.5519 -1.5682
 4825TIP3   OH235965   0.587   1.451   5.318 -0.1881  0.2282  0.4911
 4825TIP3    H135966   0.679   1.474   5.328 -0.1566  0.8786 -0.9924
 4825TIP3    H235967   0.586   1.355   5.318  1.2065 -0.0279 -3.9529
 4826TIP3   OH235968   6.451   3.910   3.560  0.0253  0.2980  0.5718
 4826TIP3    H135969   6.543   3.934   3.568  0.7396 -1.4527 -1.3713
 4826TIP3    H235970   6.450   3.815   3.568 -1.4712  0.1844 -0.4167
 4827TIP3   OH235971   6.153   0.102   1.724 -0.7218  0.2672  0.2146
 4827TIP3    H135972   6.186   0.157   1.653  0.5275 -0.0052  0.5573
 4827TIP3    H235973   6.205   0.128   1.800  0.5717 -2.0036  0.1850
 4828TIP3   OH235974   6.811   2.555  14.663  0.3000 -0.3297  0.2388
 4828TIP3    H135975   6.836   2.605  14.585 -1.5060  0.9343  0.4075
 4828TIP3    H235976   6.720   2.530  14.648  0.6491 -2.1808  0.9142
 4829TIP3   OH235977   0.922   4.072  11.358 -0.5790  0.0563  0.2345
 4829TIP3    H135978   0.853   4.033  11.304 -2.6051  3.8121 -0.2634
 4829TIP3    H235979   0.875   4.131  11.417  2.0930  1.3449  1.2524
 4830TIP3   OH235980   6.740   1.611  11.463  0.1287 -0.6633 -1.0604
 4830TIP3    H135981   6.798   1.645  11.395 -0.6545 -1.5790 -2.2207
 4830TIP3    H235982   6.781   1.529  11.491  1.4568  0.6113  0.9831
 4831TIP3   OH235983   3.659   2.777  12.655 -0.4650 -0.1293 -0.6101
 4831TIP3    H135984   3.732   2.833  12.632  0.4554 -1.5035 -1.1999
 4831TIP3    H235985   3.675   2.751  12.746 -0.4868 -0.0451 -0.5826
 4832TIP3   OH235986   4.055   2.528   6.147  0.8705  0.5342 -0.3197
 4832TIP3    H135987   4.070   2.605   6.201  0.9142  0.4785 -0.2535
 4832TIP3    H235988   3.962   2.534   6.123  0.5817  0.0072  0.6172
 4833TIP3   OH235989   1.162   1.671   3.915  0.5301  0.0343  0.2434
 4833TIP3    H135990   1.257   1.672   3.928  0.7877 -0.7079 -1.2415
 4833TIP3    H235991   1.132   1.597   3.967  0.8522 -0.0529  0.3103
 4834TIP3   OH235992   2.595   6.735   2.502  0.1005  0.0600 -0.0842
 4834TIP3    H135993   2.681   6.775   2.493 -0.8780  2.1877 -0.6647
 4834TIP3    H235994   2.573   6.702   2.415  0.3728 -0.6617  0.1075
 4835TIP3   OH235995   6.681   5.434  12.818  0.2727  0.0426  0.4968
 4835TIP3    H135996   6.724   5.353  12.847 -1.1589 -1.2188 -0.7402
 4835TIP3    H235997   6.748   5.501  12.830  1.2590 -1.1503  2.3176
 4836TIP3   OH235998   3.265   3.446   1.004 -0.3712 -0.1024  0.1375
 4836TIP3    H135999   3.223   3.421   1.087 -0.9466 -0.1606 -0.1683
 4836TIP3    H236000   3.266   3.364   0.953  0.5503 -0.2163  0.3237
 4837TIP3   OH236001   6.008   6.036   1.385 -0.4496 -0.1841  0.0428
 4837TIP3    H136002   6.017   5.942   1.404  0.0455  0.0955  1.3017
 4837TIP3    H236003   5.914   6.050   1.379 -0.5333 -0.7348 -0.0105
 4838TIP3   OH236004   1.549   4.220  16.113 -0.2815  0.7504 -0.2788
 4838TIP3    H136005   1.608   4.188  16.046 -1.4043  0.5934 -1.2209
 4838TIP3    H236006   1.535   4.312  16.091 -0.7215  0.6763 -0.3198
 4839TIP3   OH236007   5.926   4.888  11.980 -0.1728 -0.1484  0.6404
 4839TIP3    H136008   5.913   4.798  12.011 -1.8363 -0.1127  0.1069
 4839TIP3    H236009   5.891   4.888  11.891 -0.2513  1.0555  0.6621
 4840TIP3   OH236010   3.336   0.327   4.011 -0.2008  0.0686 -0.2962
 4840TIP3    H136011   3.349   0.323   3.916  0.9696 -0.2404 -0.1349
 4840TIP3    H236012   3.418   0.362   4.045 -0.0027 -1.3113  0.7344
 4841TIP3   OH236013   2.869   4.271  16.231  0.4255 -0.4114 -0.5307
 4841TIP3    H136014   2.894   4.364  16.232 -0.6854 -0.0680 -1.5901
 4841TIP3    H236015   2.953   4.224  16.231  1.0130  0.5894 -0.3512
 4842TIP3   OH236016   5.932   5.799   2.439  0.0257  0.6240  0.5109
 4842TIP3    H136017   5.968   5.838   2.359  0.5931 -1.1523 -0.1609
 4842TIP3    H236018   5.965   5.854   2.510 -0.5490  2.2875 -0.4426
 4843TIP3   OH236019   5.410   2.326   5.592 -0.4040  0.8953 -0.8816
 4843TIP3    H136020   5.502   2.299   5.591 -0.5168  0.3296  0.9580
 4843TIP3    H236021   5.411   2.413   5.631 -0.4926  1.7601 -2.6989
 4844TIP3   OH236022   0.150   0.901  12.855 -0.1562  0.5655  0.0504
 4844TIP3    H136023   0.209   0.892  12.929 -0.0915 -1.3174 -0.1676
 4844TIP3    H236024   0.200   0.868  12.780 -1.1619 -0.2237 -0.2984
 4845TIP3   OH236025   2.023   1.579  10.541 -0.2018  0.0787  0.2145
 4845TIP3    H136026   2.070   1.541  10.466 -0.6894  0.7055 -0.4268
 4845TIP3    H236027   2.000   1.503  10.595  1.1330 -0.2757  0.3174
 4846TIP3   OH236028   5.322   0.274   1.473  0.0776  0.1493  0.0084
 4846TIP3    H136029   5.363   0.285   1.387  0.3995 -1.5407 -0.0920
 4846TIP3    H236030   5.369   0.201   1.512 -1.3894 -0.3988  0.8064
 4847TIP3   OH236031   1.105   4.242  11.193  0.2032 -0.5915 -0.2652
 4847TIP3    H136032   1.163   4.294  11.248 -0.1899 -0.2833 -0.1370
 4847TIP3    H236033   1.039   4.206  11.253 -0.6782  0.3677 -0.6184
 4848TIP3   OH236034   2.270   6.079   2.098 -0.1435 -0.2342  0.0216
 4848TIP3    H136035   2.303   6.031   2.175 -1.8315 -0.2350  0.7827
 4848TIP3    H236036   2.321   6.159   2.096  0.0937 -0.3456  1.0157
 4849TIP3   OH236037   2.597   0.002   5.507  0.1005 -0.0303  0.6347
 4849TIP3    H136038   2.597   0.090   5.544  1.3641  1.3948 -2.4463
 4849TIP3    H236039   2.557   0.011   5.421 -0.5824 -2.6902  0.5691
 4850TIP3   OH236040   3.769   2.600  17.251  0.3336  0.0419  0.0535
 4850TIP3    H136041   3.827   2.524  17.251 -0.7711 -0.8297 -0.2427
 4850TIP3    H236042   3.825   2.673  17.277  1.1497 -1.0731  1.5854
 4851TIP3   OH236043   2.156   1.491  13.198 -0.2274  0.5872 -0.3446
 4851TIP3    H136044   2.221   1.560  13.209 -0.2733  0.9781 -2.2373
 4851TIP3    H236045   2.084   1.517  13.256  1.0821  0.3648  1.4592
 4852TIP3   OH236046   6.316   4.585   3.056 -0.7723  0.4128 -0.4884
 4852TIP3    H136047   6.365   4.656   3.015 -1.1532  0.5191 -0.7642
 4852TIP3    H236048   6.275   4.538   2.983 -0.6128 -0.0232 -0.2997
 4853TIP3   OH236049   4.803   0.986  16.394  0.1004  0.1508  0.1607
 4853TIP3    H136050   4.781   1.030  16.476 -0.6620 -1.6312  0.9751
 4853TIP3    H236051   4.891   0.952  16.408 -1.3231 -3.3544  1.8300
 4854TIP3   OH236052   6.391   5.582  17.106 -0.0818 -0.4175 -0.4253
 4854TIP3    H136053   6.348   5.581  17.192  1.7232 -0.2058  0.5182
 4854TIP3    H236054   6.410   5.674  17.090 -0.4350 -0.4568 -1.0708
 4855TIP3   OH236055   1.135   1.662   2.858 -0.3760 -0.5002 -0.2304
 4855TIP3    H136056   1.080   1.590   2.828 -1.8079  0.1022  0.8561
 4855TIP3    H236057   1.077   1.718   2.908  1.4518 -0.4524  2.0342
 4856TIP3   OH236058   2.628   0.819   4.138 -0.3462  0.0103 -0.8100
 4856TIP3    H136059   2.569   0.853   4.071 -1.8730 -1.8468 -0.4831
 4856TIP3    H236060   2.703   0.879   4.137 -1.6389  1.6915 -2.1370
 4857TIP3   OH236061   5.628   2.264   4.382 -0.6796  0.7349  0.8931
 4857TIP3    H136062   5.610   2.352   4.413 -2.2961  1.0691 -0.8628
 4857TIP3    H236063   5.563   2.209   4.426 -2.0604  1.0088 -0.6901
 4858TIP3   OH236064   3.008   5.766   5.752  0.4861  0.1208 -0.0969
 4858TIP3    H136065   3.085   5.709   5.753 -0.9300 -2.0018 -1.9455
 4858TIP3    H236066   2.958   5.741   5.830  1.0953  0.7114  0.4960
 4859TIP3   OH236067   1.537   5.199  15.680 -0.0884 -0.0771  0.1724
 4859TIP3    H136068   1.547   5.209  15.586  2.2080  0.0533  0.3782
 4859TIP3    H236069   1.466   5.135  15.690 -0.3628 -0.0997 -1.6125
 4860TIP3   OH236070   6.517   1.008  17.223  0.5198 -0.3459  0.9396
 4860TIP3    H136071   6.502   1.069  17.295 -2.3785 -0.2994  0.4134
 4860TIP3    H236072   6.442   1.019  17.166  1.9423 -1.5359 -1.2998
 4861TIP3   OH236073   4.161   6.143  16.013 -0.0854 -0.0669  0.4015
 4861TIP3    H136074   4.081   6.194  16.023  0.6890  0.9934  1.4338
 4861TIP3    H236075   4.176   6.105  16.099  0.0023 -1.0665 -0.0438
 4862TIP3   OH236076   0.910   2.449  12.472  0.0318 -0.0803 -0.0781
 4862TIP3    H136077   0.852   2.510  12.428  0.8087  1.9388  1.5484
 4862TIP3    H236078   0.856   2.371  12.487 -0.7664 -0.1823 -2.8475
 4863TIP3   OH236079   3.515   5.819   5.626  0.0063 -0.0472  0.2865
 4863TIP3    H136080   3.486   5.750   5.685  2.6220 -1.1484  0.4451
 4863TIP3    H236081   3.573   5.775   5.564  1.4645  1.9149  0.1477
 4864TIP3   OH236082   3.029   6.011  14.297  0.2931 -0.4258  0.4804
 4864TIP3    H136083   2.966   6.057  14.352 -0.3235 -1.9290  1.0832
 4864TIP3    H236084   2.994   5.922  14.289  2.2138 -1.2505  0.6604
 4865TIP3   OH236085   1.324   5.111  14.024 -0.2991 -0.0925 -0.4651
 4865TIP3    H136086   1.378   5.186  13.998 -1.2921  1.0224  0.5093
 4865TIP3    H236087   1.247   5.116  13.967 -0.8173  0.2360  0.2438
 4866TIP3   OH236088   5.972   1.046   5.449 -0.2493 -0.2793  0.5369
 4866TIP3    H136089   5.985   0.997   5.368 -0.2462  1.0306 -0.2852
 4866TIP3    H236090   6.054   1.094   5.461  0.1268 -1.1823  1.8663
 4867TIP3   OH236091   2.197   0.771  10.562  0.1754 -0.1476 -0.4430
 4867TIP3    H136092   2.193   0.680  10.532 -1.5527  0.1155 -1.0941
 4867TIP3    H236093   2.109   0.790  10.592  1.2920  0.2379  3.0938
 4868TIP3   OH236094   5.134   4.507  11.425  0.4819  0.2273 -0.2443
 4868TIP3    H136095   5.062   4.567  11.444  0.8539  0.4504  0.4800
 4868TIP3    H236096   5.210   4.564  11.412  0.6041 -0.0277 -0.6827
 4869TIP3   OH236097   3.349   4.036   2.950 -0.1123 -0.4164 -0.0680
 4869TIP3    H136098   3.401   3.964   2.915  0.0336  0.6936 -2.3367
 4869TIP3    H236099   3.414   4.105   2.967 -0.5139  0.0294 -0.3273
 4870TIP3   OH236100   0.319   1.908   6.194  0.3070 -0.1660 -0.4053
 4870TIP3    H136101   0.403   1.951   6.207  0.2786 -0.3943  0.7028
 4870TIP3    H236102   0.313   1.846   6.267  0.2356 -1.8862 -1.8095
 4871TIP3   OH236103   4.634   1.492   5.906 -0.6071 -0.0016  0.0305
 4871TIP3    H136104   4.601   1.581   5.908  0.2187  0.3852 -1.4903
 4871TIP3    H236105   4.717   1.498   5.857  0.3254 -1.3430  1.3455
 4872TIP3   OH236106   5.403   0.522  15.626  0.3104  0.7275  0.2651
 4872TIP3    H136107   5.397   0.613  15.597  0.2645  0.9471  0.9457
 4872TIP3    H236108   5.327   0.511  15.684 -0.5791 -0.2100 -1.0528
 4873TIP3   OH236109   5.315   2.296  12.807  0.1004 -0.0012  0.0971
 4873TIP3    H136110   5.347   2.335  12.725  0.9600  0.3076  0.5605
 4873TIP3    H236111   5.246   2.355  12.836 -0.8471 -0.5983 -0.8520
 4874TIP3   OH236112   4.728   1.856  13.117  0.7192  0.2457 -0.0776
 4874TIP3    H136113   4.701   1.947  13.106  0.6460  0.3325  0.7807
 4874TIP3    H236114   4.726   1.842  13.212  0.6929 -0.6602 -0.2095
 4875TIP3   OH236115   6.020   2.092  16.767 -0.5352  0.7901 -0.1612
 4875TIP3    H136116   5.943   2.054  16.808  0.7096 -0.7386  0.8469
 4875TIP3    H236117   6.011   2.071  16.674 -0.7157 -0.5372  0.1383
 4876TIP3   OH236118   1.329   3.144   2.421 -0.3744 -0.1066  0.5340
 4876TIP3    H136119   1.339   3.233   2.388  2.8667 -0.1075  1.2164
 4876TIP3    H236120   1.280   3.154   2.503 -0.8321  0.9218  0.1490
 4877TIP3   OH236121   2.177   1.672  12.186 -0.1270  0.2693 -0.0851
 4877TIP3    H136122   2.254   1.652  12.240  0.6785  1.2780 -0.8193
 4877TIP3    H236123   2.133   1.743  12.234  1.0316  1.7347 -1.0916
 4878TIP3   OH236124   1.014   2.014  13.364 -0.3682 -0.1007 -0.3777
 4878TIP3    H136125   1.062   1.965  13.432 -0.8068  0.3727  0.2903
 4878TIP3    H236126   0.957   1.948  13.324  0.2656 -0.4968 -0.6421
 4879TIP3   OH236127   1.701   0.947  11.892 -0.8421 -0.5559 -0.3077
 4879TIP3    H136128   1.641   0.990  11.953 -1.0462  1.5394 -1.8591
 4879TIP3    H236129   1.646   0.918  11.820 -0.3088 -0.8712 -0.5928
 4880TIP3   OH236130   0.379   1.400  13.582 -0.1005 -0.6447  0.0914
 4880TIP3    H136131   0.413   1.415  13.494  0.0558 -0.7568  0.1314
 4880TIP3    H236132   0.316   1.328  13.571 -2.5234  1.3967 -0.4898
 4881TIP3   OH236133   0.508   0.049  10.832 -0.9639 -0.3593 -0.5511
 4881TIP3    H136134   0.484  -0.042  10.815 -1.3997 -0.7151  1.6173
 4881TIP3    H236135   0.603   0.052  10.820 -1.0671 -0.8231 -1.6217
 4882TIP3   OH236136   5.326   1.354  16.766  0.4914  0.2094 -0.0261
 4882TIP3    H136137   5.420   1.337  16.769  0.9632  2.0630 -2.0591
 4882TIP3    H236138   5.287   1.270  16.743  1.6603 -0.5104  0.5434
 4883TIP3   OH236139   0.142   0.810  14.090 -0.5238 -0.0001  0.4403
 4883TIP3    H136140   0.142   0.869  14.015 -1.2590  0.2405  0.6174
 4883TIP3    H236141   0.233   0.781  14.098 -0.3471  0.3423 -0.2464
 4884TIP3   OH236142   3.083   4.725  16.926  0.3992  0.0493 -0.0423
 4884TIP3    H136143   3.112   4.665  16.858 -0.1905  0.0509 -0.3013
 4884TIP3    H236144   3.001   4.762  16.892  0.4517  0.5580  0.3690
 4885TIP3   OH236145   6.279   6.745  16.332 -0.9408  0.0019  0.3954
 4885TIP3    H136146   6.344   6.684  16.298  0.0905  2.0202 -1.5182
 4885TIP3    H236147   6.293   6.745  16.427  0.0758 -1.5193  0.2761
 4886TIP3   OH236148   5.704   2.985  16.702 -0.1074 -0.0938 -0.4855
 4886TIP3    H136149   5.716   2.950  16.791 -3.3805 -0.4643 -0.0882
 4886TIP3    H236150   5.756   2.927  16.647  0.6675 -0.8770  1.0019
 4887TIP3   OH236151   0.491   4.318  15.058  0.0260  0.2949 -0.0575
 4887TIP3    H136152   0.456   4.313  15.147 -0.5327  0.4007 -0.2622
 4887TIP3    H236153   0.585   4.330  15.069  0.2155 -1.4564  0.4957
 4888TIP3   OH236154   2.017   1.211   0.764 -0.1444  0.4796 -0.2214
 4888TIP3    H136155   2.066   1.179   0.840  0.0272 -1.5159 -1.1050
 4888TIP3    H236156   1.962   1.281   0.798  0.2934 -0.0381  1.6316
 4889TIP3   OH236157   6.386   6.353   6.217 -0.5684  0.6511  0.4347
 4889TIP3    H136158   6.360   6.272   6.260 -1.3113 -0.8275 -2.4995
 4889TIP3    H236159   6.438   6.400   6.282  1.2213 -2.8810  1.8202
 4890TIP3   OH236160   5.078   4.811   6.008  0.0729  0.3967  0.0035
 4890TIP3    H136161   5.026   4.772   6.079 -0.5200  1.6292  0.2737
 4890TIP3    H236162   5.017   4.817   5.934  0.2496  0.4898 -0.1347
 4891TIP3   OH236163   5.107   0.894   4.897  0.2767  0.6709  0.0892
 4891TIP3    H136164   5.017   0.865   4.907  0.2062  1.2999  1.5947
 4891TIP3    H236165   5.123   0.890   4.803 -1.6914  1.6031 -0.3435
 4892TIP3   OH236166   1.861   5.924  15.592  0.5030  0.6432  0.0813
 4892TIP3    H136167   1.865   5.852  15.528  2.8874 -1.3169  2.1963
 4892TIP3    H236168   1.898   5.999  15.546 -0.3177  0.0534 -1.6253
 4893TIP3   OH236169   6.757   5.774   2.243  0.1479  0.2907 -0.1522
 4893TIP3    H136170   6.704   5.769   2.323  0.5906  2.1886  0.2990
 4893TIP3    H236171   6.694   5.771   2.172 -0.2781 -1.0693  0.2437
 4894TIP3   OH236172   0.531   4.817  12.758 -0.3225 -0.0880  0.0643
 4894TIP3    H136173   0.533   4.913  12.767 -0.1107  0.0880 -1.5713
 4894TIP3    H236174   0.445   4.798  12.720  0.0564 -0.4438 -0.6242
 4895TIP3   OH236175   1.000   4.912  13.797  0.0782 -0.6964 -0.1467
 4895TIP3    H136176   1.041   4.877  13.876  0.0666 -2.4480 -0.8687
 4895TIP3    H236177   1.055   4.987  13.773 -1.1547  1.2778  2.6480
 4896TIP3   OH236178   1.653   4.975   1.008 -0.4854 -0.5021  0.2406
 4896TIP3    H136179   1.565   4.938   1.008 -0.5166 -0.4208  0.6109
 4896TIP3    H236180   1.641   5.067   0.986 -0.3014 -0.9593 -2.0959
 4897TIP3   OH236181   1.498   2.263   1.437 -0.0032  0.1418  0.0805
 4897TIP3    H136182   1.496   2.238   1.345  0.4114  0.2328  0.0417
 4897TIP3    H236183   1.415   2.232   1.473  0.3108 -0.9046 -0.0613
 4898TIP3   OH236184   1.168   5.686   0.569 -0.6463 -0.1779  0.4590
 4898TIP3    H136185   1.214   5.714   0.490 -0.8191 -0.6133  0.1961
 4898TIP3    H236186   1.089   5.741   0.572 -0.5283 -0.0090  0.4476
 4899TIP3   OH236187   0.674   2.380   1.030  0.2078  0.3947  0.1769
 4899TIP3    H136188   0.751   2.411   0.983  0.6828  0.9986  1.2943
 4899TIP3    H236189   0.608   2.449   1.016 -0.3064 -0.3280 -1.1401
 4900TIP3   OH236190   6.483   5.341   0.961  0.4961 -0.1055 -0.2601
 4900TIP3    H136191   6.479   5.291   0.880  0.6319  0.9703 -0.9603
 4900TIP3    H236192   6.575   5.341   0.985  0.5901  0.3089 -0.5999
 4901TIP3   OH236193   2.077   2.514   3.618  0.3909  0.1966 -0.1108
 4901TIP3    H136194   2.006   2.459   3.648 -0.6957  1.2852 -0.6153
 4901TIP3    H236195   2.119   2.547   3.698 -0.4837  0.5603  0.2071
 4902TIP3   OH236196   5.560   2.289   2.627  0.2886  0.1067 -0.0743
 4902TIP3    H136197   5.522   2.368   2.665  1.1389  0.6426 -0.3100
 4902TIP3    H236198   5.577   2.312   2.536 -0.6192 -0.7713 -0.4943
 4903TIP3   OH236199   5.929   1.909   2.883  0.3472 -0.5807 -0.0447
 4903TIP3    H136200   6.023   1.925   2.889  0.0893  1.6225 -0.9147
 4903TIP3    H236201   5.908   1.920   2.790 -0.7996 -0.8552  0.1594
 4904TIP3   OH236202   0.141   3.241   2.024  0.0553  0.4742 -0.6524
 4904TIP3    H136203   0.182   3.202   1.947 -0.4533  0.3978 -0.8913
 4904TIP3    H236204   0.182   3.327   2.033  1.7333 -0.3861  0.3321
 4905TIP3   OH236205   3.876   1.560  10.752 -0.2812 -0.2965  0.5259
 4905TIP3    H136206   3.924   1.642  10.747 -1.9582  0.6853 -0.2485
 4905TIP3    H236207   3.944   1.493  10.764  1.1717  1.1130  0.4792
 4906TIP3   OH236208   1.960   3.430  11.558 -0.4150 -0.4448  0.8497
 4906TIP3    H136209   1.947   3.377  11.480 -0.6075 -2.8196  2.3820
 4906TIP3    H236210   1.873   3.466  11.578 -0.4032  0.0086  0.1256
 4907TIP3   OH236211   5.705   0.589   4.604 -0.0042  0.1229 -0.1484
 4907TIP3    H136212   5.738   0.632   4.525 -0.8088  1.4591  0.2016
 4907TIP3    H236213   5.737   0.499   4.598 -0.8095 -0.0715 -2.4460
 4908TIP3   OH236214   6.647   6.550   0.855  0.2814  0.4651 -0.0336
 4908TIP3    H136215   6.597   6.588   0.782 -0.3926  1.0962  0.7253
 4908TIP3    H236216   6.729   6.521   0.816 -0.2613  0.3576 -1.1274
 4909TIP3   OH236217   4.544   4.049  16.182  0.0763  0.0290 -0.1517
 4909TIP3    H136218   4.591   3.966  16.171 -0.0960 -0.1995  0.7609
 4909TIP3    H236219   4.558   4.095  16.099  0.7970 -0.5927 -0.3931
 4910TIP3   OH236220   5.938   0.046  11.674  0.0794  0.2037  0.0096
 4910TIP3    H136221   5.843   0.048  11.680 -0.0193  2.2495 -1.3841
 4910TIP3    H236222   5.961   0.125  11.626  2.5452  0.0858  0.8559
 4911TIP3   OH236223   0.036   2.328   5.346  0.2682  0.6614  0.2407
 4911TIP3    H136224  -0.014   2.288   5.274 -0.3439  1.9254 -0.0550
 4911TIP3    H236225   0.077   2.253   5.390  0.3388 -0.1755 -1.1749
 4912TIP3   OH236226   1.502   3.273  16.980 -0.2558 -0.5137  0.2294
 4912TIP3    H136227   1.529   3.304  17.067  0.5982  0.1523 -0.2548
 4912TIP3    H236228   1.466   3.351  16.937 -0.2632 -0.7336 -0.1684
 4913TIP3   OH236229   0.362   3.876  17.052 -0.6188  0.3266  0.0301
 4913TIP3    H136230   0.397   3.795  17.016  0.6690  1.5967 -1.7358
 4913TIP3    H236231   0.271   3.877  17.025 -0.9245 -0.9589  0.9145
 4914TIP3   OH236232   3.367   0.533  16.382  0.7381  0.2808  0.0692
 4914TIP3    H136233   3.373   0.543  16.287 -1.0286  0.1880 -0.0788
 4914TIP3    H236234   3.407   0.448  16.400  1.5344  0.5179 -0.5198
 4915TIP3   OH236235   3.580   5.815  13.599  0.5594 -1.0312  0.3585
 4915TIP3    H136236   3.546   5.749  13.660  0.9683  0.2317  2.0259
 4915TIP3    H236237   3.508   5.878  13.590  1.3565  0.0974  1.5566
 4916TIP3   OH236238   1.862   4.330  11.686  0.7000 -0.5532  0.0825
 4916TIP3    H136239   1.849   4.424  11.698  4.4321  0.0430  0.4667
 4916TIP3    H236240   1.873   4.320  11.591 -0.9573 -0.8828 -0.1106
 4917TIP3   OH236241   5.108   6.665   6.691  0.2304  0.3737  0.0835
 4917TIP3    H136242   5.048   6.635   6.759  0.7846  1.5865  1.1633
 4917TIP3    H236243   5.106   6.761   6.698 -0.5737  0.5935 -2.4010
 4918TIP3   OH236244   2.600   0.186  17.040  0.2651 -0.2459  0.3115
 4918TIP3    H136245   2.653   0.245  16.986 -0.0839 -0.1115  0.1105
 4918TIP3    H236246   2.510   0.205  17.014  0.0967 -0.2130  0.9120
 4919TIP3   OH236247   2.510   5.865  11.724 -0.1193 -0.3316  0.5399
 4919TIP3    H136248   2.482   5.938  11.778  0.3986  1.2946 -1.2779
 4919TIP3    H236249   2.435   5.806  11.721 -1.8143  1.7697 -0.6467
 4920TIP3   OH236250   5.644   5.006   2.198  0.0767  0.9458 -0.4641
 4920TIP3    H136251   5.710   4.992   2.266 -1.1247  1.0064  0.7750
 4920TIP3    H236252   5.678   4.962   2.121  1.5171  0.9146  0.1659
 4921TIP3   OH236253   2.698   1.331   4.492 -0.3492 -0.4144  0.7372
 4921TIP3    H136254   2.720   1.420   4.464 -0.3808 -0.5836  0.1656
 4921TIP3    H236255   2.782   1.291   4.512  0.0773 -1.4151 -2.4913
 4922TIP3   OH236256   5.807   1.757   1.968 -0.4881 -0.1217  0.6094
 4922TIP3    H136257   5.881   1.744   1.908 -0.3424  2.8188 -0.0046
 4922TIP3    H236258   5.847   1.799   2.045 -1.2091 -0.5671  1.2338
 4923TIP3   OH236259   3.213   2.684   2.581 -0.0874  0.4583 -0.8178
 4923TIP3    H136260   3.161   2.692   2.662 -0.1783  3.7492 -1.0556
 4923TIP3    H236261   3.153   2.643   2.519 -0.7448 -0.1926  0.1991
 4924TIP3   OH236262   6.526   2.607  16.409  0.2878 -0.2512 -0.3013
 4924TIP3    H136263   6.592   2.660  16.364 -0.2930 -0.3344 -1.2942
 4924TIP3    H236264   6.474   2.569  16.338  0.3214 -1.6773  0.3971
 4925TIP3   OH236265   1.831   6.472   4.143 -0.2594  0.1453 -0.4965
 4925TIP3    H136266   1.844   6.489   4.050  0.2321  0.5507 -0.3589
 4925TIP3    H236267   1.893   6.402   4.163  1.0493  1.3748 -0.0657
 4926TIP3   OH236268   4.115   5.426   3.385 -0.3723 -0.6299 -0.4807
 4926TIP3    H136269   4.140   5.336   3.405  0.1109 -0.2378  0.7943
 4926TIP3    H236270   4.167   5.449   3.308  1.3072 -0.6958  0.5813
 4927TIP3   OH236271   3.450   5.104   5.106 -0.2665 -0.2012 -0.0112
 4927TIP3    H136272   3.510   5.173   5.132  0.7787 -1.2323  0.4268
 4927TIP3    H236273   3.439   5.051   5.185 -2.9674  0.7799  0.3495
 4928TIP3   OH236274   1.988   3.983   0.404  0.2708  0.3274 -0.5214
 4928TIP3    H136275   1.934   3.906   0.421 -0.1380  0.6178 -0.5014
 4928TIP3    H236276   1.926   4.055   0.398  0.4888  0.4082 -2.1887
 4929TIP3   OH236277   1.097   0.552   5.842  0.4792  0.7095 -0.1066
 4929TIP3    H136278   1.003   0.542   5.827  0.0881  0.5946  2.0838
 4929TIP3    H236279   1.109   0.644   5.863  1.3050  1.2939 -2.7259
 4930TIP3   OH236280   6.244   2.827  13.226  0.0591 -0.0937 -0.2495
 4930TIP3    H136281   6.266   2.904  13.279  0.9930 -0.7442  0.3375
 4930TIP3    H236282   6.155   2.804  13.253  0.3746 -0.1779  0.7674
 4931TIP3   OH236283   5.923   1.064   0.480  0.4421  0.3104  0.0800
 4931TIP3    H136284   6.000   1.008   0.488 -0.0921 -0.3097  1.1005
 4931TIP3    H236285   5.851   1.012   0.515 -0.0356  1.7037  1.3110
 4932TIP3   OH236286   2.357   4.235  12.668  0.0479 -0.2882 -0.6571
 4932TIP3    H136287   2.319   4.271  12.588  2.4370 -0.5910 -2.0075
 4932TIP3    H236288   2.382   4.145  12.644  0.7917 -0.3822  0.4073
 4933TIP3   OH236289   0.545   6.522  10.292 -0.5716  0.5701 -0.2292
 4933TIP3    H136290   0.561   6.613  10.267  0.4306  0.8243  1.2733
 4933TIP3    H236291   0.568   6.518  10.384  1.0963 -1.6050 -0.6680
 4934TIP3   OH236292   0.100   0.800  16.796 -0.5665  0.1056 -0.1422
 4934TIP3    H136293   0.108   0.706  16.777  3.1091  0.5488 -1.8168
 4934TIP3    H236294   0.082   0.840  16.710  0.8725  1.0979 -0.0145
 4935TIP3   OH236295   2.497   4.676  14.039  0.9471 -0.4457 -0.0600
 4935TIP3    H136296   2.560   4.688  13.967  1.5242  1.4228  0.7042
 4935TIP3    H236297   2.530   4.600  14.087  0.4058 -1.9108 -1.8682
 4936TIP3   OH236298   3.599   4.921  13.516  0.2099  0.4497  0.8604
 4936TIP3    H136299   3.595   4.849  13.578  2.9527  0.8023  1.5703
 4936TIP3    H236300   3.540   4.987  13.552  0.6426  0.0734  2.3092
 4937TIP3   OH236301   2.094   5.138   0.607  0.1148 -0.1302  0.0467
 4937TIP3    H136302   2.017   5.174   0.564  0.6654 -1.3540 -2.1513
 4937TIP3    H236303   2.138   5.213   0.647 -1.3356  0.8096 -0.0956
 4938TIP3   OH236304   1.000   6.333  13.645  0.2547  0.3700  0.2212
 4938TIP3    H136305   0.946   6.320  13.566 -0.6485  1.4250  0.6415
 4938TIP3    H236306   0.945   6.301  13.716  1.1084 -0.6646  0.4380
 4939TIP3   OH236307   4.216   1.489  13.118  0.2589  0.2539  0.6880
 4939TIP3    H136308   4.297   1.475  13.166 -0.1923 -0.4396  1.2907
 4939TIP3    H236309   4.241   1.540  13.041  1.6114 -1.5718 -0.1715
 4940TIP3   OH236310   1.001   6.417   6.274 -0.1820  0.1012 -0.0422
 4940TIP3    H136311   1.062   6.345   6.259 -0.2333 -0.2236  1.1781
 4940TIP3    H236312   0.940   6.383   6.340 -0.3219  1.1845  0.4056
 4941TIP3   OH236313   6.677   5.423   1.739 -0.0738 -0.3036  0.4161
 4941TIP3    H136314   6.772   5.424   1.731  0.0386 -0.4535  1.4807
 4941TIP3    H236315   6.651   5.516   1.738 -0.0998 -0.3120 -1.5214
 4942TIP3   OH236316   3.695   5.019   4.765  0.4521  0.1195  0.2200
 4942TIP3    H136317   3.767   4.996   4.824  0.3689  0.2187  0.3598
 4942TIP3    H236318   3.618   4.978   4.803  0.6723 -1.2647 -0.7295
 4943TIP3   OH236319   4.309   6.142  15.769 -0.1340 -0.1799 -0.0530
 4943TIP3    H136320   4.390   6.175  15.808 -0.4550 -0.5507  0.9718
 4943TIP3    H236321   4.253   6.122  15.844 -0.3392 -2.0852 -0.6668
 4944TIP3   OH236322   6.580   6.176   3.403  0.0531  0.4180  0.0943
 4944TIP3    H136323   6.529   6.127   3.338 -1.3448  0.3027  1.2408
 4944TIP3    H236324   6.576   6.122   3.482  0.3598  1.3326  0.7507
 4945TIP3   OH236325   2.139   6.716   2.790 -0.0860  0.3468  0.0178
 4945TIP3    H136326   2.131   6.795   2.843 -1.3000  0.4703 -0.3266
 4945TIP3    H236327   2.049   6.692   2.768  0.3237 -0.4667 -0.8619
 4946TIP3   OH236328   0.865   3.968   3.287 -0.0425 -0.0338 -0.0088
 4946TIP3    H136329   0.939   4.021   3.259  0.6206  0.3669  2.2550
 4946TIP3    H236330   0.870   3.888   3.235 -0.6076  1.7321 -2.9463
 4947TIP3   OH236331   4.851   2.259  12.658 -0.4345  0.8087  0.1050
 4947TIP3    H136332   4.831   2.166  12.646  0.8170  0.3311  1.4812
 4947TIP3    H236333   4.907   2.281  12.584  0.1791  0.1721  0.3724
 4948TIP3   OH236334   1.189   5.839   5.975  0.3282 -0.3232  0.9787
 4948TIP3    H136335   1.126   5.770   5.955  0.1560  0.2740 -0.7523
 4948TIP3    H236336   1.271   5.793   5.993  1.0384 -1.0431 -3.1466
 4949TIP3   OH236337   6.442   4.272   3.771  0.3231  0.3714 -0.7524
 4949TIP3    H136338   6.430   4.232   3.684  2.0730  1.0621 -1.3642
 4949TIP3    H236339   6.518   4.226   3.808  1.5019  2.0916 -0.8965
 4950TIP3   OH236340   5.578   0.379  14.851  0.5692 -0.3624  0.4827
 4950TIP3    H136341   5.554   0.296  14.809 -1.9372  0.3997  0.2601
 4950TIP3    H236342   5.537   0.376  14.937 -0.1820  0.9073  0.2014
 4951TIP3   OH236343   3.919   1.999   0.106  0.2460  0.3723  0.2554
 4951TIP3    H136344   4.009   1.978   0.079 -0.2209  1.1891 -2.1935
 4951TIP3    H236345   3.897   2.077   0.055 -1.5970  0.6476  1.4077
 4952TIP3   OH236346   0.754   3.134  13.602 -0.2519  0.3473 -0.3583
 4952TIP3    H136347   0.661   3.119  13.618 -0.6166  1.3267 -1.4228
 4952TIP3    H236348   0.756   3.210  13.544  1.3616  2.8478  2.6952
 4953TIP3   OH236349   2.867   5.335   2.815 -0.3511 -0.0548 -0.5781
 4953TIP3    H136350   2.911   5.342   2.900  1.8845  1.3034 -1.7365
 4953TIP3    H236351   2.910   5.261   2.772  1.0249  1.3366 -1.7548
 4954TIP3   OH236352   3.785   2.268   5.469  0.4836 -0.9487  0.0160
 4954TIP3    H136353   3.842   2.213   5.416  0.2392 -0.3177 -0.9387
 4954TIP3    H236354   3.696   2.244   5.441  0.3039 -1.2989  0.8537
 4955TIP3   OH236355   2.970   0.698   4.787  0.0381  0.3428  0.1545
 4955TIP3    H136356   2.876   0.683   4.777 -0.1629  2.1372 -1.3071
 4955TIP3    H236357   2.977   0.769   4.850  0.2223  1.6397 -1.2490
 4956TIP3   OH236358   6.749   4.052  11.607  0.2021 -0.4151  0.2902
 4956TIP3    H136359   6.689   4.031  11.536  0.8840  0.0729 -0.4636
 4956TIP3    H236360   6.820   3.988  11.598  0.3679 -0.2522  0.4175
 4957TIP3   OH236361   0.716   4.828  13.975  0.5326  0.2174 -0.1608
 4957TIP3    H136362   0.727   4.771  14.051  2.4867  0.2149 -0.3926
 4957TIP3    H236363   0.801   4.872  13.965 -0.1911  1.4162 -1.3844
 4958TIP3   OH236364   0.215   2.516  15.209  0.2341  0.1465 -0.2411
 4958TIP3    H136365   0.300   2.489  15.246  0.1115 -0.3221 -0.2882
 4958TIP3    H236366   0.232   2.601  15.169  0.4761  0.4715  0.5193
 4959TIP3   OH236367   4.651   1.411  13.029 -0.3233  0.0376 -0.0970
 4959TIP3    H136368   4.596   1.335  13.042 -0.8267  0.4243  0.0523
 4959TIP3    H236369   4.730   1.377  12.986  0.4253 -0.9222  1.9372
 4960TIP3   OH236370   3.340   0.004  16.692  0.6505 -0.1715  0.1460
 4960TIP3    H136371   3.367   0.020  16.783 -0.2728 -0.2792  0.4473
 4960TIP3    H236372   3.308  -0.086  16.691 -0.7762  0.3065  0.0858
 4961TIP3   OH236373   5.639   4.713  11.067  0.2500 -0.3860  0.1293
 4961TIP3    H136374   5.702   4.728  10.997  1.5216 -2.8036  0.6483
 4961TIP3    H236375   5.661   4.780  11.133  3.2010 -1.8471  0.8170
 4962TIP3   OH236376   5.163   0.123   6.641 -0.2268  0.4396 -0.3295
 4962TIP3    H136377   5.149   0.156   6.552  2.1103 -0.2999 -1.0359
 4962TIP3    H236378   5.249   0.156   6.666  0.0657 -1.0881  0.8459
 4963TIP3   OH236379   2.666   0.724   4.587 -0.9013 -0.5165 -0.0155
 4963TIP3    H136380   2.652   0.675   4.668  0.5112 -0.4819  0.2830
 4963TIP3    H236381   2.627   0.670   4.519 -0.4809 -1.4534  0.4694
 4964TIP3   OH236382   1.065   6.691   0.334 -0.0070 -0.3540 -0.7243
 4964TIP3    H136383   0.976   6.684   0.298  0.3027 -0.2222 -1.5416
 4964TIP3    H236384   1.110   6.613   0.303  0.8343  0.7019 -2.3316
 4965TIP3   OH236385   0.427   4.354   4.502  0.0067  0.4794 -0.3194
 4965TIP3    H136386   0.400   4.438   4.540 -0.9034 -0.3400  0.9412
 4965TIP3    H236387   0.509   4.333   4.546  0.4614  0.9122 -0.9571
 4966TIP3   OH236388   1.884   4.448   5.748 -0.0945  0.0429  0.1898
 4966TIP3    H136389   1.814   4.387   5.771 -1.1378 -0.6101 -3.9979
 4966TIP3    H236390   1.851   4.534   5.775 -0.3218 -0.6946  2.5364
 4967TIP3   OH236391   6.536   3.986  12.928  0.1018 -0.2939 -0.2060
 4967TIP3    H136392   6.493   4.060  12.970  0.8998 -0.5864  1.1945
 4967TIP3    H236393   6.477   3.912  12.945  0.6784 -0.5183  0.9259
 4968TIP3   OH236394   4.661   3.034   5.346 -0.0048 -0.0386 -0.1300
 4968TIP3    H136395   4.739   3.077   5.312  0.9081 -3.0034 -2.1153
 4968TIP3    H236396   4.679   2.940   5.336 -1.9798 -1.0161  3.5973
 4969TIP3   OH236397   2.163   2.766   0.847  0.0825 -0.1511  0.0259
 4969TIP3    H136398   2.232   2.704   0.821 -0.7395 -0.7885 -0.6799
 4969TIP3    H236399   2.208   2.828   0.904  1.1102 -0.9197  0.0900
 4970TIP3   OH236400   2.307   0.025  11.850 -0.0357 -0.7777  1.0074
 4970TIP3    H136401   2.263   0.101  11.888 -1.9365 -0.9254 -0.7108
 4970TIP3    H236402   2.338   0.055  11.764  0.8121 -1.4592  1.0571
 4971TIP3   OH236403   0.294   4.522  16.547 -0.6041  0.1949 -0.1510
 4971TIP3    H136404   0.340   4.555  16.469  0.5485 -0.6170  0.1636
 4971TIP3    H236405   0.295   4.427  16.537 -0.2656  0.0710  0.9468
 4972TIP3   OH236406   5.777   5.490  14.337  0.3064  0.1605  0.0487
 4972TIP3    H136407   5.844   5.506  14.403 -0.9852 -0.0070  1.4702
 4972TIP3    H236408   5.712   5.559  14.352  0.4719  0.7809 -1.7912
 4973TIP3   OH236409   0.161   6.114   0.578 -0.0966  0.0416  0.2043
 4973TIP3    H136410   0.249   6.091   0.550  1.0173  2.7188  1.1640
 4973TIP3    H236411   0.103   6.075   0.512  1.8511 -0.7539 -1.1230
 4974TIP3   OH236412   5.314   6.549  10.429 -0.5019  0.5595  0.3815
 4974TIP3    H136413   5.288   6.566  10.520 -2.0834  1.0088 -0.1183
 4974TIP3    H236414   5.291   6.630  10.383 -0.2338  0.1242 -0.5273
 4975TIP3   OH236415   2.814   1.678   1.314  0.2909 -0.4659  0.0874
 4975TIP3    H136416   2.801   1.584   1.323  3.2473 -1.0345 -0.4153
 4975TIP3    H236417   2.778   1.699   1.227  0.1528 -1.2541 -0.0548
 4976TIP3   OH236418   0.050   4.131   0.657 -0.0966 -0.2771  0.3652
 4976TIP3    H136419  -0.037   4.090   0.653 -0.4374  0.4893 -2.0810
 4976TIP3    H236420   0.080   4.130   0.566  1.5398  1.3960  0.8356
 4977TIP3   OH236421   6.176   2.394   1.681  0.2937 -0.0303 -0.1611
 4977TIP3    H136422   6.209   2.399   1.771  0.7942  1.0571 -0.3826
 4977TIP3    H236423   6.205   2.476   1.641  0.1747 -0.5529 -1.3495
 4978TIP3   OH236424   0.771   5.050   4.652 -0.3263  0.3514 -0.1445
 4978TIP3    H136425   0.838   5.008   4.599  0.7121  0.5935  0.9433
 4978TIP3    H236426   0.694   5.052   4.595  0.0509 -1.5291 -0.8189
 4979TIP3   OH236427   1.838   5.758  15.342 -0.0556  0.3062 -0.3293
 4979TIP3    H136428   1.870   5.682  15.392 -0.5751  0.6220  0.5005
 4979TIP3    H236429   1.745   5.741  15.329 -0.0483  0.5173 -0.6706
 4980TIP3   OH236430   1.723   1.535   3.234 -0.3425 -0.0701 -0.1818
 4980TIP3    H136431   1.772   1.511   3.312  0.9794 -1.0255 -1.2793
 4980TIP3    H236432   1.785   1.585   3.180 -0.9464 -0.1995 -1.0249
 4981TIP3   OH236433   5.943   6.465  15.776  0.6202 -0.2164 -0.1400
 4981TIP3    H136434   6.005   6.404  15.817 -1.7586 -1.6021  1.6744
 4981TIP3    H236435   5.929   6.533  15.841  0.3066  0.1235 -0.5553
 4982TIP3   OH236436   4.290   0.253  14.448 -0.0362 -0.6913 -0.4282
 4982TIP3    H136437   4.246   0.172  14.420  0.2022 -1.0915  0.3491
 4982TIP3    H236438   4.377   0.247  14.409 -0.9273  0.6003 -2.8874
 4983TIP3   OH236439   1.036   0.791  14.541  0.4872  0.2785  0.1965
 4983TIP3    H136440   0.991   0.713  14.510  0.8464  0.4835 -0.9189
 4983TIP3    H236441   1.092   0.817  14.467  0.2444  1.6850  0.4755
 4984TIP3   OH236442   4.959   5.785   5.769  0.5042  0.9905 -0.4153
 4984TIP3    H136443   5.047   5.746   5.765  0.8631  1.8751 -2.3551
 4984TIP3    H236444   4.957   5.830   5.853  1.2113 -0.5708  0.4831
 4985TIP3   OH236445   2.711   1.758  13.721 -0.2750  0.1113  0.5318
 4985TIP3    H136446   2.653   1.738  13.647  0.5603 -0.0108 -0.1040
 4985TIP3    H236447   2.761   1.678  13.734  1.0556  0.7996 -0.1468
 4986TIP3   OH236448   4.362   2.076   0.448 -0.1607  0.0279  0.0029
 4986TIP3    H136449   4.433   2.094   0.386  0.6492 -0.8014  0.6449
 4986TIP3    H236450   4.283   2.071   0.394  0.3933  0.1429 -0.8429
 4987TIP3   OH236451   2.649   3.230   3.617  0.3723  0.5688 -0.1042
 4987TIP3    H136452   2.741   3.209   3.600  0.3538  0.1383  0.2853
 4987TIP3    H236453   2.612   3.148   3.651  0.4553  1.3919  2.1330
 4988TIP3   OH236454   0.105   3.749  13.660  0.8845 -0.6506  0.4997
 4988TIP3    H136455   0.136   3.738  13.750 -0.2343 -2.5716  0.6946
 4988TIP3    H236456   0.068   3.664  13.636 -1.8224  0.7282 -0.6206
 4989TIP3   OH236457   1.033   0.057   1.480 -0.2103 -0.5290  0.0608
 4989TIP3    H136458   0.959   0.082   1.424 -0.9549 -0.4790  1.0423
 4989TIP3    H236459   1.008  -0.029   1.515  0.1760 -0.4880  0.4413
 4990TIP3   OH236460   5.774   6.704  12.106  0.4069 -0.3617 -0.0660
 4990TIP3    H136461   5.807   6.614  12.109  1.2049 -0.0741  0.0862
 4990TIP3    H236462   5.719   6.712  12.184  0.7862 -0.5465  0.2207
 4991TIP3   OH236463   0.335   6.041   3.853  0.2323  0.0575  0.2440
 4991TIP3    H136464   0.380   6.048   3.769 -1.4915 -0.3469 -0.7542
 4991TIP3    H236465   0.357   6.123   3.899  1.5546  0.0834 -0.3935
 4992TIP3   OH236466   3.301   1.931   2.738  0.9163 -0.1793  0.3150
 4992TIP3    H136467   3.372   1.868   2.723  1.0024  0.0720 -0.3815
 4992TIP3    H236468   3.345   2.017   2.736  0.7317 -0.0724  0.8022
 4993TIP3   OH236469   6.448   4.672  12.577  0.2778 -0.1225  0.0544
 4993TIP3    H136470   6.458   4.763  12.550  1.0931 -0.3082 -0.2861
 4993TIP3    H236471   6.433   4.624  12.496  0.3339 -0.3643  0.1851
 4994TIP3   OH236472   4.527   0.711  15.286  0.3314  1.1424 -0.7211
 4994TIP3    H136473   4.504   0.659  15.209 -2.6639 -1.6242  1.7377
 4994TIP3    H236474   4.455   0.774  15.293 -1.2931 -0.7868  1.4242
 4995TIP3   OH236475   2.781   4.723  16.704  0.4239  0.8188  0.3199
 4995TIP3    H136476   2.770   4.748  16.796 -0.5418  1.5958  0.0206
 4995TIP3    H236477   2.836   4.793  16.668  0.5527  0.6752  0.2408
 4996TIP3   OH236478   4.925   1.464   1.212  0.2539 -0.2607  0.1057
 4996TIP3    H136479   5.016   1.434   1.214 -0.1388 -1.4444  1.3931
 4996TIP3    H236480   4.929   1.546   1.163  1.9727 -0.4144 -0.0967
 4997TIP3   OH236481   2.037   2.923  13.781 -0.2021 -0.1133  0.0266
 4997TIP3    H136482   2.058   2.879  13.699 -0.5128 -0.1448 -0.0371
 4997TIP3    H236483   2.006   3.010  13.755  0.0447  0.0085  0.1310
 4998TIP3   OH236484   4.036   3.546  11.693 -0.1249  0.3689 -0.6099
 4998TIP3    H136485   4.010   3.616  11.633 -3.6594  2.0438  2.4433
 4998TIP3    H236486   4.095   3.589  11.755  0.2525 -0.2385 -0.5467
 4999TIP3   OH236487   5.851   5.101  15.668  0.4086 -1.2194 -0.4899
 4999TIP3    H136488   5.800   5.038  15.718 -0.3550  0.5473  1.1096
 4999TIP3    H236489   5.912   5.139  15.731  1.2533 -0.7693 -1.5347
 5000TIP3   OH236490   4.122   2.735   0.644 -0.1930 -0.2427  0.6678
 5000TIP3    H136491   4.081   2.821   0.647 -1.9492 -0.9244 -1.4538
 5000TIP3    H236492   4.055   2.675   0.676  0.2485 -1.0540  0.1159
 5001TIP3   OH236493   2.049   3.841  14.313  0.3677  0.4207  0.0888
 5001TIP3    H136494   2.112   3.781  14.354 -0.2550 -0.2307  0.1062
 5001TIP3    H236495   2.060   3.826  14.219 -0.6593 -0.6574  0.1153
 5002TIP3   OH236496   2.294   0.756   2.161 -0.0332  0.1686 -0.2040
 5002TIP3    H136497   2.235   0.720   2.094  0.1344 -1.0069  0.2592
 5002TIP3    H236498   2.242   0.753   2.242 -0.2862  1.7188 -0.2761
 5003TIP3   OH236499   4.959   2.065   2.837  0.1570  0.3063  0.3820
 5003TIP3    H136500   4.893   2.128   2.865  1.3368  1.2719  1.0615
 5003TIP3    H236501   5.008   2.045   2.916  0.8536 -0.1979 -0.1653
 5004TIP3   OH236502   6.826   3.873   1.670  0.0729 -0.5055 -0.4550
 5004TIP3    H136503   6.829   3.931   1.595  0.2234 -1.3182 -1.0932
 5004TIP3    H236504   6.797   3.789   1.634  0.8741 -1.1046  0.2593
 5005TIP3   OH236505   0.044   2.001   0.198  0.6253 -0.1371  0.2340
 5005TIP3    H136506   0.102   2.049   0.138  0.5255 -0.4406 -0.1119
 5005TIP3    H236507  -0.022   1.962   0.141  1.7274 -2.2000  0.2419
 5006TIP3   OH236508   1.068   0.443   3.211  0.8048 -0.2954  0.3650
 5006TIP3    H136509   1.093   0.485   3.293 -1.5544 -0.4482  1.2392
 5006TIP3    H236510   1.111   0.358   3.213  1.2193 -0.0743  1.1830
 5007TIP3   OH236511   0.001   6.654  13.736 -0.5965 -0.1454  0.2900
 5007TIP3    H136512   0.051   6.683  13.812 -2.9488  3.3456  0.7509
 5007TIP3    H236513   0.026   6.714  13.666 -1.9199 -0.2186 -0.2816
 5008TIP3   OH236514   3.529   2.759   5.657  0.2960  0.5390  0.9133
 5008TIP3    H136515   3.450   2.759   5.713  2.2605  0.4288  3.9372
 5008TIP3    H236516   3.593   2.708   5.707  1.7842 -1.0847 -2.3404
 5009TIP3   OH236517   0.978   2.119   1.857  0.4147  0.1376 -0.0369
 5009TIP3    H136518   0.890   2.132   1.891  0.4553 -1.6067  0.8217
 5009TIP3    H236519   0.973   2.151   1.766 -0.9577  0.4839  0.1329
 5010TIP3   OH236520   2.183   0.345  11.361  0.4493  0.0935 -0.2152
 5010TIP3    H136521   2.133   0.340  11.443 -1.2424  1.5669 -1.1088
 5010TIP3    H236522   2.141   0.280  11.304  0.9539 -0.1863 -0.2733
 5011TIP3   OH236523   2.355   3.014  15.502 -0.1372 -0.0405 -0.1413
 5011TIP3    H136524   2.399   2.931  15.481 -0.2523 -0.3527  0.7941
 5011TIP3    H236525   2.363   3.066  15.422 -0.9498 -1.3261 -1.1010
 5012TIP3   OH236526   0.787   5.913  13.729 -0.7104 -0.4587  0.6452
 5012TIP3    H136527   0.718   5.849  13.713 -0.4529 -0.4792 -0.4622
 5012TIP3    H236528   0.842   5.872  13.796  0.2396 -2.0672 -1.0128
 5013TIP3   OH236529   0.311   3.569  16.592  0.0757  0.6389  0.3333
 5013TIP3    H136530   0.309   3.526  16.506  1.6638  0.3411  0.4221
 5013TIP3    H236531   0.247   3.521  16.644 -0.2525  0.2467 -0.4153
 5014TIP3   OH236532   3.178   2.517  13.924  0.2778  0.0216  0.1095
 5014TIP3    H136533   3.087   2.494  13.945  1.1960 -2.0085  2.3247
 5014TIP3    H236534   3.191   2.602  13.966 -0.7031  0.5990 -0.6920
 5015TIP3   OH236535   1.038   3.633   1.332 -0.0313  0.6758  0.5203
 5015TIP3    H136536   1.124   3.618   1.370  0.8656  1.3403 -1.1483
 5015TIP3    H236537   0.993   3.688   1.396  0.6949  0.1723  1.4972
 5016TIP3   OH236538   3.854   5.743  14.166 -0.2356  0.2195  0.0383
 5016TIP3    H136539   3.909   5.676  14.126 -0.5869  0.2515 -0.5219
 5016TIP3    H236540   3.786   5.760  14.100 -0.1719  1.0934  0.1888
 5017TIP3   OH236541   5.143   1.740  15.136 -0.1073  0.1231  0.1435
 5017TIP3    H136542   5.217   1.762  15.081 -0.3586  0.1157 -0.2015
 5017TIP3    H236543   5.149   1.800  15.211 -0.3891  0.8865 -0.4354
 5018TIP3   OH236544   0.729   4.538   4.735 -0.2351 -0.3179 -0.3573
 5018TIP3    H136545   0.639   4.539   4.703 -0.7766 -0.7364  1.0796
 5018TIP3    H236546   0.754   4.630   4.737 -0.7128 -0.1788 -0.5587
 5019TIP3   OH236547   3.984   5.760   3.809 -0.3336 -0.0207  0.4627
 5019TIP3    H136548   4.067   5.807   3.819 -0.9192  1.1977 -0.1933
 5019TIP3    H236549   4.005   5.670   3.831  0.9778  0.4211  1.1371
 5020TIP3   OH236550   1.088   4.749  14.574 -0.5114  0.2973  0.0192
 5020TIP3    H136551   1.077   4.655  14.560 -0.4819  0.3121 -0.1005
 5020TIP3    H236552   1.040   4.766  14.655 -1.7512  0.4278 -0.7169
 5021TIP3   OH236553   5.360   1.476   1.019 -0.5725 -0.6816  0.0883
 5021TIP3    H136554   5.315   1.440   1.095 -1.0183  0.6896  0.4981
 5021TIP3    H236555   5.420   1.406   0.991  0.0927 -0.9605  2.0912
 5022TIP3   OH236556   3.009   1.633   5.615 -0.6578  0.0581 -0.2010
 5022TIP3    H136557   2.965   1.549   5.600 -2.2953  1.1848 -2.2519
 5022TIP3    H236558   2.937   1.696   5.622  0.5804  1.5673 -0.7111
 5023TIP3   OH236559   2.862   0.705   2.857  0.5474 -0.1289  0.0201
 5023TIP3    H136560   2.843   0.743   2.942 -0.4263 -1.3504  0.3688
 5023TIP3    H236561   2.790   0.734   2.801  0.6024 -0.2278 -0.1033
 5024TIP3   OH236562   5.344   1.546  16.584  0.1057  0.0168 -0.2438
 5024TIP3    H136563   5.343   1.459  16.624  0.1871  0.2525  0.2746
 5024TIP3    H236564   5.350   1.529  16.490  0.4383 -0.5346 -0.1256
 5025TIP3   OH236565   0.565   4.514   2.507 -0.2281 -0.0179  0.0670
 5025TIP3    H136566   0.533   4.588   2.456  1.0329  1.0663  0.7803
 5025TIP3    H236567   0.499   4.446   2.495 -0.9723  0.9080 -1.3261
 5026TIP3   OH236568   5.863   5.071   6.593 -0.1755  0.5471  0.0139
 5026TIP3    H136569   5.896   5.143   6.540 -0.7260  0.6520 -0.2003
 5026TIP3    H236570   5.776   5.052   6.555 -0.1790  0.0050  0.2833
 5027TIP3   OH236571   0.531   0.831  11.335  0.2608 -0.1975  0.0881
 5027TIP3    H136572   0.572   0.855  11.418  0.1091 -1.2834  0.5058
 5027TIP3    H236573   0.544   0.907  11.278  0.7126  0.4106  0.9793
 5028TIP3   OH236574   5.845   4.882   3.921 -0.5987 -0.1097 -0.1547
 5028TIP3    H136575   5.781   4.830   3.970  0.2072  0.8030  2.0313
 5028TIP3    H236576   5.928   4.836   3.935 -0.1534  0.8381  0.4392
 5029TIP3   OH236577   2.505   5.280   3.649 -0.1276  0.1070  0.3268
 5029TIP3    H136578   2.457   5.202   3.620 -1.3122  0.4139  1.3939
 5029TIP3    H236579   2.476   5.294   3.738  1.7470  0.4974  0.9290
 5030TIP3   OH236580   5.073   2.769   0.689 -0.0186  0.1753  0.1324
 5030TIP3    H136581   5.035   2.753   0.775  0.6396  0.9362  0.5759
 5030TIP3    H236582   5.164   2.742   0.697 -0.3853 -1.5485 -0.9008
 5031TIP3   OH236583   4.404   4.051   3.711 -0.7458  0.4238  0.5485
 5031TIP3    H136584   4.336   4.113   3.738 -0.2855  0.9994  0.3998
 5031TIP3    H236585   4.440   4.087   3.630 -1.0968 -0.5196 -0.0489
 5032TIP3   OH236586   2.770   2.623   1.398 -0.2684 -0.1404 -0.1488
 5032TIP3    H136587   2.753   2.665   1.314  0.0483 -0.7143 -0.5052
 5032TIP3    H236588   2.685   2.624   1.443 -0.4665  0.0526 -0.5237
 5033TIP3   OH236589   0.091   1.362   5.718 -0.3440 -0.2699  0.4660
 5033TIP3    H136590   0.101   1.304   5.642 -0.9560 -0.3973  0.4791
 5033TIP3    H236591   0.128   1.312   5.791  2.6215  0.8336 -0.1407
 5034TIP3   OH236592   6.647   4.454  11.518 -0.0059 -0.0079 -0.7228
 5034TIP3    H136593   6.553   4.440  11.505 -0.0834 -0.4351  0.2186
 5034TIP3    H236594   6.664   4.538  11.476 -0.6663 -0.2555 -1.5205
 5035TIP3   OH236595   1.820   6.566  12.578 -0.3458 -0.0358 -0.3466
 5035TIP3    H136596   1.738   6.577  12.530 -0.7967  2.1773  0.8228
 5035TIP3    H236597   1.887   6.563  12.510 -1.3793 -3.0114 -1.4164
 5036TIP3   OH236598   0.280   2.757   6.195  0.1007  0.2166  0.0600
 5036TIP3    H136599   0.250   2.848   6.198  0.3078  0.3396 -0.9672
 5036TIP3    H236600   0.209   2.707   6.234 -0.4841  0.7233 -0.3151
 5037TIP3   OH236601   5.071   3.072  11.063 -0.2671 -0.1863  0.7277
 5037TIP3    H136602   5.102   3.140  11.124 -2.4812 -0.4150  2.2475
 5037TIP3    H236603   5.034   3.122  10.990 -2.7181  0.4120  2.2539
 5038TIP3   OH236604   5.266   2.775   4.124  0.2479 -0.6389  0.1446
 5038TIP3    H136605   5.290   2.867   4.133 -0.4626 -0.4184 -0.0879
 5038TIP3    H236606   5.271   2.758   4.030  1.8509 -1.2682  0.3203
 5039TIP3   OH236607   5.552   3.488   0.343  0.0030 -0.2151  0.1520
 5039TIP3    H136608   5.584   3.425   0.278  1.5134  0.8410 -0.1754
 5039TIP3    H236609   5.457   3.480   0.339  0.1212 -1.5142 -0.8288
 5040TIP3   OH236610   3.681   1.543   2.937 -0.2181  0.0562 -0.0460
 5040TIP3    H136611   3.612   1.608   2.947  0.0628  0.4170 -0.4372
 5040TIP3    H236612   3.641   1.471   2.889 -0.3132  0.2769 -0.2942
 5041TIP3   OH236613   5.232   5.826   1.403 -0.8804  0.7102 -0.2714
 5041TIP3    H136614   5.152   5.876   1.414  0.0085  2.2736 -0.5602
 5041TIP3    H236615   5.272   5.863   1.324 -0.0762 -0.3095 -0.3577
 5042TIP3   OH236616   2.403   6.421   3.864 -0.2172  0.0413 -0.0877
 5042TIP3    H136617   2.385   6.392   3.953  1.6770 -0.1972  0.2707
 5042TIP3    H236618   2.348   6.498   3.852 -2.5828 -1.5019  0.2580
 5043TIP3   OH236619   2.934   6.532  14.943  0.2418 -0.3697  0.7052
 5043TIP3    H136620   2.981   6.541  14.860 -0.0983 -0.8131  0.4585
 5043TIP3    H236621   2.967   6.451  14.981 -0.9008 -1.1303  0.1344
 5044TIP3   OH236622   2.760   3.943   6.004 -0.5098 -0.0233  0.3970
 5044TIP3    H136623   2.682   3.960   5.951  0.8388 -0.1500 -1.7615
 5044TIP3    H236624   2.765   3.847   6.010 -0.4095 -0.0225  0.3374
 5045TIP3   OH236625   4.524   2.215  13.417  0.8639 -0.7573  0.5407
 5045TIP3    H136626   4.470   2.192  13.493 -1.1930 -2.1757 -1.2020
 5045TIP3    H236627   4.542   2.308  13.427 -3.5157  0.3347  0.4557
 5046TIP3   OH236628   3.106   0.109   5.002  0.0105  0.3821  0.1534
 5046TIP3    H136629   3.045   0.177   4.975  1.7842  1.9512 -0.0977
 5046TIP3    H236630   3.084   0.091   5.093 -0.3100  1.5211  0.3161
 5047TIP3   OH236631   4.221   5.881   3.913  0.0328  0.2594 -0.1790
 5047TIP3    H136632   4.253   5.831   3.988  0.5091 -1.3402 -1.4243
 5047TIP3    H236633   4.293   5.881   3.851 -0.8902  0.2679 -1.2686
 5048TIP3   OH236634   5.097   2.057  12.502  0.8128  0.1504 -0.2172
 5048TIP3    H136635   5.128   2.124  12.441 -0.2751  2.1498  1.2790
 5048TIP3    H236636   5.104   1.975  12.454 -0.2978  1.6445 -3.1657
 5049TIP3   OH236637   2.158   1.789  10.630 -0.8534 -0.3516  0.1055
 5049TIP3    H136638   2.083   1.848  10.618 -0.5309 -0.0066 -0.2324
 5049TIP3    H236639   2.125   1.703  10.603 -0.5243  0.1741 -2.0717
 5050TIP3   OH236640   0.186   2.066   1.893 -0.0627 -0.5047 -0.1001
 5050TIP3    H136641   0.100   2.026   1.884 -0.5192  0.1673  1.1082
 5050TIP3    H236642   0.233   2.010   1.954 -0.1934 -0.0062  0.4599
 5051TIP3   OH236643   4.303   5.579  12.022  0.1573  0.4258 -0.3182
 5051TIP3    H136644   4.356   5.506  12.056  0.9714  1.0738 -0.1624
 5051TIP3    H236645   4.365   5.652  12.015 -0.6169  1.0651 -0.6057
 5052TIP3   OH236646   6.515   5.886   2.880  0.2579  0.4008 -0.2210
 5052TIP3    H136647   6.570   5.898   2.803  2.6754  2.1595  1.5829
 5052TIP3    H236648   6.559   5.819   2.931  0.1240  1.0177  0.7407
 5053TIP3   OH236649   5.845   1.093   3.745  0.0119  0.3834  0.5256
 5053TIP3    H136650   5.886   1.023   3.796 -3.4468 -1.5386  0.9642
 5053TIP3    H236651   5.805   1.049   3.670 -0.0954  2.2969 -0.6202
 5054TIP3   OH236652   2.066   0.198  16.890 -0.3032  0.0069 -0.1335
 5054TIP3    H136653   2.041   0.213  16.799  1.6425 -0.8381 -0.8670
 5054TIP3    H236654   2.157   0.229  16.895 -0.1358 -0.6464  1.3166
 5055TIP3   OH236655   2.704   2.561   5.675  0.7020  0.2103 -0.3157
 5055TIP3    H136656   2.631   2.540   5.617  0.4444 -0.2594  0.1754
 5055TIP3    H236657   2.685   2.650   5.705  0.1074 -0.0644  0.1397
 5056TIP3   OH236658   2.718   2.614   4.154 -0.2697 -0.1252 -0.3481
 5056TIP3    H136659   2.739   2.571   4.071  0.9721  0.2658 -0.2515
 5056TIP3    H236660   2.798   2.607   4.206 -0.1576  1.9507 -0.1757
 5057TIP3   OH236661   3.057   4.187  11.461 -0.2567 -0.7568 -0.2170
 5057TIP3    H136662   3.036   4.151  11.375  1.4964 -2.6367  0.0429
 5057TIP3    H236663   3.153   4.190  11.463 -0.2112 -1.5474  1.9014
 5058TIP3   OH236664   6.196   6.705  10.799 -1.0948  0.1777 -0.6184
 5058TIP3    H136665   6.182   6.745  10.884  0.7171 -1.2521  0.4296
 5058TIP3    H236666   6.268   6.754  10.760 -1.5379  0.4626 -1.1008
 5059TIP3   OH236667   0.093   5.674   5.813  0.0277 -0.3215 -0.7469
 5059TIP3    H136668  -0.000   5.681   5.832  0.2642 -1.1410  0.9279
 5059TIP3    H236669   0.133   5.747   5.861  0.1422  0.9865 -2.7125
 5060TIP3   OH236670   2.364   1.118   3.783 -0.6532 -0.3549  0.4096
 5060TIP3    H136671   2.346   1.066   3.705 -0.2454  0.8927 -0.5395
 5060TIP3    H236672   2.458   1.132   3.782 -0.6477 -0.3029  1.1164
 5061TIP3   OH236673   2.220   3.570   0.058  0.3659 -0.1146  0.4013
 5061TIP3    H136674   2.289   3.527   0.007  0.6879  2.3266 -1.4203
 5061TIP3    H236675   2.264   3.596   0.140  1.5884  1.1154 -0.5914
 5062TIP3   OH236676   0.012   4.044   4.193 -0.3733 -0.1587  0.2073
 5062TIP3    H136677   0.030   4.071   4.283  0.6207  0.6062 -0.2094
 5062TIP3    H236678   0.082   4.082   4.141  0.3754 -2.4591 -0.6042
 5063TIP3   OH236679   6.131   3.067  14.992 -0.0659  0.1411  0.0410
 5063TIP3    H136680   6.068   3.130  14.957 -0.2567  0.1875  0.4736
 5063TIP3    H236681   6.169   3.110  15.069 -1.4254 -0.9326  1.3579
 5064TIP3   OH236682   5.768   3.303   4.322 -0.2940  0.6861 -0.2008
 5064TIP3    H136683   5.693   3.362   4.330  0.1825  1.2863 -0.0551
 5064TIP3    H236684   5.844   3.360   4.331  0.1827 -0.1556  1.6192
 5065TIP3   OH236685   2.439   0.678   3.287 -0.2138  0.4316  0.1067
 5065TIP3    H136686   2.494   0.626   3.228  1.0528  0.7873  0.9155
 5065TIP3    H236687   2.350   0.659   3.261  0.2729 -0.8772 -0.6854
 5066TIP3   OH236688   4.440   5.453  16.785 -0.6344  0.1486 -0.2270
 5066TIP3    H136689   4.345   5.450  16.784 -0.7699  0.6786  2.6371
 5066TIP3    H236690   4.468   5.362  16.788 -1.1702  0.0201  1.2131
 5067TIP3   OH236691   2.072   2.572   6.134 -0.2086  0.3133 -0.0918
 5067TIP3    H136692   2.136   2.636   6.166 -0.4494  0.2624  0.4965
 5067TIP3    H236693   2.063   2.509   6.205 -1.8952  1.0366  0.4069
 5068TIP3   OH236694   6.767   1.652  16.057  0.1845 -0.6294 -0.3985
 5068TIP3    H136695   6.744   1.735  16.015  0.9686 -0.2524 -0.1148
 5068TIP3    H236696   6.704   1.643  16.128  0.5411  0.0930  0.0192
 5069TIP3   OH236697   6.111   3.479  14.811  0.4800  0.5844  0.0978
 5069TIP3    H136698   6.033   3.485  14.755 -0.9204  0.8676  1.9533
 5069TIP3    H236699   6.076   3.474  14.900  2.5418 -1.8832  0.8866
 5070TIP3   OH236700   4.654   0.746  17.268 -0.0951  0.3547  0.3950
 5070TIP3    H136701   4.728   0.757  17.209 -0.5072 -2.3354 -0.7603
 5070TIP3    H236702   4.687   0.687  17.336 -0.8432  0.0712  0.5166
 5071TIP3   OH236703   0.318   1.709  15.635  0.3479 -0.5654  0.0226
 5071TIP3    H136704   0.369   1.693  15.715 -1.4008  0.7692  1.4726
 5071TIP3    H236705   0.324   1.803  15.622 -3.4836  0.0372  1.5561
 5072TIP3   OH236706   3.791   1.048   4.267  0.3221  0.3668  0.0453
 5072TIP3    H136707   3.818   1.088   4.350 -1.3703  0.4707  0.5712
 5072TIP3    H236708   3.735   0.975   4.292 -2.9540  2.3418 -0.9527
 5073TIP3   OH236709   1.386   4.893   6.087  0.7273 -0.6401  0.3096
 5073TIP3    H136710   1.364   4.965   6.028 -0.1813 -0.3870  0.9446
 5073TIP3    H236711   1.437   4.933   6.157  0.2889 -0.6338  0.6226
 5074TIP3   OH236712   6.162   0.062  11.001  0.7082 -0.2372  0.4067
 5074TIP3    H136713   6.139   0.138  10.947  0.9948 -0.7276 -0.4219
 5074TIP3    H236714   6.131   0.085  11.088 -2.7775 -0.7803 -0.5539
 5075TIP3   OH236715   2.675   2.599  13.917  0.2646 -0.0911  0.2767
 5075TIP3    H136716   2.607   2.588  13.984 -0.6129  0.0149 -0.5862
 5075TIP3    H236717   2.670   2.691  13.892  2.9839  0.8347  2.5391
 5076TIP3   OH236718   0.650   1.602  17.086  0.3333  0.0629 -0.1952
 5076TIP3    H136719   0.614   1.559  17.163 -0.5493 -0.8298 -1.0813
 5076TIP3    H236720   0.728   1.648  17.118 -0.9624  1.1466  1.5631
 5077TIP3   OH236721   1.893   2.689  11.063  0.1772 -0.2198  0.1662
 5077TIP3    H136722   1.983   2.678  11.030 -0.5638 -2.0833 -1.3885
 5077TIP3    H236723   1.893   2.645  11.148  0.4959 -1.1194 -0.2897
 5078TIP3   OH236724   6.761   4.620   5.984 -0.0448 -0.4209 -0.2320
 5078TIP3    H136725   6.847   4.654   6.009 -0.5403  0.5127  0.2533
 5078TIP3    H236726   6.754   4.638   5.890 -0.9150  2.3609  0.2586
 5079TIP3   OH236727   1.882   0.109   4.497  0.4793 -0.7289  0.3426
 5079TIP3    H136728   1.811   0.051   4.523  1.5677 -1.9176  0.7593
 5079TIP3    H236729   1.852   0.148   4.415 -0.5848 -1.3202  0.4347
 5080TIP3   OH236730   4.824   4.157   2.640  0.0927 -0.3936 -0.2247
 5080TIP3    H136731   4.831   4.242   2.595 -0.4584 -0.0343  0.3537
 5080TIP3    H236732   4.742   4.120   2.607 -0.1940 -0.2344  0.3106
 5081TIP3   OH236733   2.339   1.191  12.002 -0.2075  0.6681 -0.0411
 5081TIP3    H136734   2.252   1.230  11.997  0.2824  1.6403 -1.2567
 5081TIP3    H236735   2.330   1.107  11.958 -0.6344  0.5407  0.2780
 5082TIP3   OH236736   1.251   5.986  13.113  0.1887 -0.1568 -0.5316
 5082TIP3    H136737   1.301   6.034  13.179 -0.5390  1.8958 -1.3803
 5082TIP3    H236738   1.170   5.962  13.158  0.5206 -0.5294 -0.1238
 5083TIP3   OH236739   4.246   5.905   1.617  0.3547 -0.4128  0.7755
 5083TIP3    H136740   4.170   5.851   1.639 -0.9858 -0.2793 -2.9038
 5083TIP3    H236741   4.318   5.867   1.667 -1.9420 -0.6767  4.2849
 5084TIP3   OH236742   5.850   1.580   4.540 -0.0275  0.4767  0.2101
 5084TIP3    H136743   5.847   1.675   4.552 -0.7479  0.4017  0.6921
 5084TIP3    H236744   5.810   1.545   4.619  3.2352 -0.3821  1.6339
 5085TIP3   OH236745   2.631   4.228  15.296 -0.0560  0.0826  0.6553
 5085TIP3    H136746   2.706   4.169  15.305  0.1237  0.2767  0.4465
 5085TIP3    H236747   2.663   4.313  15.326 -0.0144  0.2988  0.0131
 5086TIP3   OH236748   6.228   3.302   0.228 -0.3098  0.3029 -0.1094
 5086TIP3    H136749   6.212   3.235   0.294  1.1177 -1.0633 -1.0808
 5086TIP3    H236750   6.322   3.302   0.215 -0.4650  1.1946 -1.4729
 5087TIP3   OH236751   1.617   5.991  16.753 -0.1033  0.1038 -0.2589
 5087TIP3    H136752   1.584   6.080  16.763 -1.1573 -0.2842 -0.0406
 5087TIP3    H236753   1.546   5.936  16.787  0.5362 -0.8145 -0.3714
 5088TIP3   OH236754   3.284   1.427  10.833  0.1392 -0.1789 -0.0368
 5088TIP3    H136755   3.219   1.428  10.763  0.1491 -1.1878 -0.0800
 5088TIP3    H236756   3.296   1.519  10.857 -1.0553  0.0465 -0.2511
 5089TIP3   OH236757   3.761   6.117   1.950 -0.2015 -0.2219 -0.2361
 5089TIP3    H136758   3.850   6.119   1.985 -0.8994  1.3607  1.6682
 5089TIP3    H236759   3.771   6.127   1.855  1.6561 -1.0608 -0.1568
 5090TIP3   OH236760   2.202   5.698   2.855 -0.2412 -0.2833 -0.0262
 5090TIP3    H136761   2.182   5.785   2.820  0.7697 -0.5028 -1.2002
 5090TIP3    H236762   2.116   5.656   2.865 -0.6139 -0.0996 -2.0098
 5091TIP3   OH236763   0.840   1.124   2.742 -0.0656  0.3306  0.2289
 5091TIP3    H136764   0.754   1.102   2.707  0.0627  0.8528 -0.4366
 5091TIP3    H236765   0.833   1.215   2.771  0.1275  0.2286  0.6031
 5092TIP3   OH236766   5.922   5.607  13.148  0.5385 -0.1222 -0.2147
 5092TIP3    H136767   5.961   5.526  13.115 -0.6322 -1.0826  0.6357
 5092TIP3    H236768   5.835   5.581  13.177 -0.0042  1.5381 -0.2495
 5093TIP3   OH236769   4.428   0.749   5.589  0.2029  0.4451  0.4262
 5093TIP3    H136770   4.497   0.808   5.557  1.1692 -0.5216  0.6616
 5093TIP3    H236771   4.377   0.726   5.512  1.3808 -0.4022 -0.1290
 5094TIP3   OH236772   6.323   0.488  12.669  0.2353  0.3042 -0.3941
 5094TIP3    H136773   6.398   0.531  12.711 -0.2395  0.1356  0.6526
 5094TIP3    H236774   6.342   0.394  12.675 -0.4743  0.2123  0.7221
 5095TIP3   OH236775   1.366   4.029  13.419 -0.1059  0.1523 -0.1864
 5095TIP3    H136776   1.366   3.936  13.442 -0.3680  0.4133  0.9363
 5095TIP3    H236777   1.274   4.055  13.424  0.1720  0.9563  1.6992
 5096TIP3   OH236778   1.947   6.195  12.014  0.6936 -0.0818  0.3759
 5096TIP3    H136779   1.964   6.123  12.076  0.7840 -0.5706 -0.2024
 5096TIP3    H236780   1.886   6.253  12.060 -0.0018 -0.9376  0.5729
 5097TIP3   OH236781   0.421   0.881  11.076  0.4629 -0.4110 -0.0183
 5097TIP3    H136782   0.406   0.970  11.043  1.0341 -0.3106 -0.0173
 5097TIP3    H236783   0.368   0.826  11.019 -0.6850  0.0131  0.6005
 5098TIP3   OH236784   3.591   2.723   2.942 -0.0722 -0.0889  0.0842
 5098TIP3    H136785   3.681   2.723   2.907  0.5032 -3.0613  1.2578
 5098TIP3    H236786   3.538   2.762   2.873  1.8417 -0.1383 -1.4900
 5099TIP3   OH236787   1.477   0.391   1.555 -0.7783  0.2850  0.1715
 5099TIP3    H136788   1.405   0.451   1.536 -1.0773 -0.2370 -0.3666
 5099TIP3    H236789   1.536   0.400   1.480 -0.2964  0.6774  0.5894
 5100TIP3   OH236790   5.621   6.603  11.621 -0.1822 -0.3034 -0.3712
 5100TIP3    H136791   5.602   6.678  11.566 -0.2771 -0.2491 -0.2637
 5100TIP3    H236792   5.643   6.641  11.707  0.0995 -0.3785 -0.4079
 5101TIP3   OH236793   4.517   5.805   2.165  0.0308 -0.0930 -0.1105
 5101TIP3    H136794   4.458   5.737   2.196 -0.4135  1.1511  1.8810
 5101TIP3    H236795   4.590   5.804   2.227  1.0234 -0.0702 -1.2276
 5102TIP3   OH236796   3.020   6.377  13.396 -0.1417  0.1759  0.1493
 5102TIP3    H136797   3.031   6.367  13.490 -0.3194  1.4643  0.3180
 5102TIP3    H236798   2.949   6.316  13.373  2.1900 -2.7909  0.2279
 5103TIP3   OH236799   1.342   1.429   1.668  0.4185  0.5091  0.3927
 5103TIP3    H136800   1.261   1.443   1.619  0.7498  0.6716 -0.1185
 5103TIP3    H236801   1.405   1.399   1.602  0.7863  0.4329  0.7765
 5104TIP3   OH236802   0.819   3.742  11.625  0.5954  0.0214 -0.1871
 5104TIP3    H136803   0.791   3.774  11.540  0.5483  0.0954 -0.1438
 5104TIP3    H236804   0.906   3.704  11.609  0.9136  0.6955 -0.1317
 5105TIP3   OH236805   5.866   4.588   3.762  0.2117 -0.4467 -0.3837
 5105TIP3    H136806   5.806   4.567   3.833 -0.0386 -1.9143 -0.9843
 5105TIP3    H236807   5.953   4.578   3.801  0.0977  0.8267  0.2514
 5106TIP3   OH236808   0.283   0.824   0.348  0.0399 -0.0119  0.0967
 5106TIP3    H136809   0.272   0.772   0.269  0.1954 -0.1335  0.1550
 5106TIP3    H236810   0.196   0.861   0.365 -0.4383 -1.3986  0.8553
 5107TIP3   OH236811   4.773   4.610  15.733  0.4764 -0.0809 -0.1894
 5107TIP3    H136812   4.709   4.540  15.720  2.4932 -2.0140 -0.3160
 5107TIP3    H236813   4.794   4.606  15.827  1.1414 -0.1771 -0.3345
 5108TIP3   OH236814   5.074   2.491  12.154  0.5321 -0.5464 -0.7262
 5108TIP3    H136815   5.110   2.579  12.147  0.4201 -0.5033 -0.7714
 5108TIP3    H236816   5.035   2.474  12.068 -1.7249  0.3687  0.0397
 5109TIP3   OH236817   2.396   2.795  13.226  0.3094 -0.1887 -0.1180
 5109TIP3    H136818   2.471   2.848  13.253  0.4949 -0.9794  1.0118
 5109TIP3    H236819   2.375   2.825  13.137  2.1782 -0.1808 -0.5917
 5110TIP3   OH236820   5.871   3.011   1.810 -0.1325 -0.2052  0.1016
 5110TIP3    H136821   5.873   2.986   1.718  0.3456  1.5035 -0.3949
 5110TIP3    H236822   5.923   2.944   1.855  1.4160  0.0784 -1.1971
 5111TIP3   OH236823   0.182   6.488  12.304 -0.8649  0.2970  0.3220
 5111TIP3    H136824   0.266   6.527  12.279 -1.0714  0.4408 -0.1605
 5111TIP3    H236825   0.125   6.563  12.319 -0.4163  0.2585  2.4628
 5112TIP3   OH236826   3.111   6.251  11.650  0.1554 -0.0647 -0.1573
 5112TIP3    H136827   3.028   6.204  11.636  0.1192 -0.4240  1.1574
 5112TIP3    H236828   3.086   6.329  11.700  0.7455 -0.8071  1.3421
 5113TIP3   OH236829   3.484   1.287  16.276  0.6531  0.1649 -0.0058
 5113TIP3    H136830   3.544   1.245  16.214  1.4885  1.3237 -0.0271
 5113TIP3    H236831   3.539   1.307  16.352 -0.1888 -0.5671  0.8284
 5114TIP3   OH236832   6.288   4.852   0.690 -0.4238  0.2623  0.0091
 5114TIP3    H136833   6.358   4.806   0.642 -0.9255  0.0922 -0.5696
 5114TIP3    H236834   6.281   4.804   0.772 -0.3806 -0.1947 -0.2492
 5115TIP3   OH236835   5.337   5.675   4.625 -0.1544 -0.3341  0.0549
 5115TIP3    H136836   5.248   5.670   4.591 -0.0951 -0.8976 -0.0383
 5115TIP3    H236837   5.327   5.678   4.720 -0.3522  2.0745  0.0003
 5116TIP3   OH236838   2.051   5.198   0.955  0.1120  0.5210  0.2246
 5116TIP3    H136839   2.146   5.188   0.955  0.0008 -0.7382 -0.1290
 5116TIP3    H236840   2.035   5.281   0.910  1.0643  1.2111  1.1142
 5117TIP3   OH236841   1.095   0.419  12.798 -0.0732  0.0241 -0.1213
 5117TIP3    H136842   1.073   0.446  12.887  0.0867  0.6227 -0.2563
 5117TIP3    H236843   1.189   0.401  12.800  0.1682  1.1309 -0.4157
 5118TIP3   OH236844   1.864   6.324  16.254 -0.6625  0.6832  0.5582
 5118TIP3    H136845   1.817   6.333  16.171  0.5363 -0.7191 -0.3325
 5118TIP3    H236846   1.932   6.259  16.236 -1.2028 -0.7060  2.9945
 5119TIP3   OH236847   4.272   1.610   1.107  0.0966 -0.1726  0.4675
 5119TIP3    H136848   4.253   1.520   1.079 -0.7088 -0.1416  0.8823
 5119TIP3    H236849   4.215   1.664   1.053 -0.9781 -0.0684  1.6334
 5120TIP3   OH236850   5.749   2.105   3.962  0.4760 -0.3228  0.6559
 5120TIP3    H136851   5.737   2.023   3.913 -0.1902  0.4548 -0.5332
 5120TIP3    H236852   5.796   2.163   3.902  2.4246 -0.3259  2.0726
 5121TIP3   OH236853   5.073   5.679   6.097 -0.3663  0.6195 -0.0990
 5121TIP3    H136854   5.158   5.713   6.068 -1.4387  2.0803 -1.7427
 5121TIP3    H236855   5.019   5.756   6.109 -1.7256 -0.3169  0.0589
 5122TIP3   OH236856   4.814   0.706   2.269  0.1007 -0.3353 -0.4340
 5122TIP3    H136857   4.897   0.672   2.303  0.2785 -0.1116 -0.6381
 5122TIP3    H236858   4.840   0.757   2.192  0.0040  1.5094  0.7065
 5123TIP3   OH236859   3.983   1.084  12.956  0.4763  0.2258 -0.7358
 5123TIP3    H136860   3.976   1.057  13.047 -0.0783  0.1143 -0.8097
 5123TIP3    H236861   4.066   1.131  12.951  0.3177  0.5812 -0.0834
 5124TIP3   OH236862   0.768   0.351  14.289 -0.3731  0.2338  0.0152
 5124TIP3    H136863   0.747   0.353  14.382 -2.6196  0.4230 -0.4389
 5124TIP3    H236864   0.706   0.289  14.251  1.2524 -0.7331 -1.2345
 5125TIP3   OH236865   4.471   3.018   3.558 -0.1591 -0.0907  0.0826
 5125TIP3    H136866   4.435   3.052   3.639 -0.1411 -1.1127  0.5302
 5125TIP3    H236867   4.442   2.927   3.554  0.4988 -0.2883 -0.6583
 5126TIP3   OH236868   6.803   0.633   4.414  0.3756  0.1471 -0.2881
 5126TIP3    H136869   6.805   0.553   4.467 -0.0217  0.0988 -0.3444
 5126TIP3    H236870   6.758   0.697   4.469  0.0579  0.1288 -0.5261
 5127TIP3   OH236871   1.871   1.884  17.170 -0.0878  0.1669 -0.3524
 5127TIP3    H136872   1.948   1.853  17.217  0.7305  1.0916 -1.0489
 5127TIP3    H236873   1.906   1.937  17.099 -1.2813 -1.1944 -2.0491
 5128TIP3   OH236874   3.209   5.300   0.259  0.6012 -0.4359 -0.2161
 5128TIP3    H136875   3.177   5.358   0.190 -1.4468 -0.5819  0.5143
 5128TIP3    H236876   3.235   5.360   0.329 -1.8303 -0.2810  0.6699
 5129TIP3   OH236877   4.191   4.651  11.511  0.3401 -0.1752  0.4786
 5129TIP3    H136878   4.147   4.720  11.561  0.1357 -2.3749  3.6125
 5129TIP3    H236879   4.153   4.569  11.543  1.8465 -1.8691 -1.7503
 5130TIP3   OH236880   5.652   6.252   5.076  0.6579  0.1860  0.5466
 5130TIP3    H136881   5.743   6.242   5.050  0.4321 -1.0225  0.1482
 5130TIP3    H236882   5.602   6.208   5.007 -0.1495 -0.2647  1.3941
 5131TIP3   OH236883   4.511   3.736  11.931 -0.2389 -0.4269  0.5057
 5131TIP3    H136884   4.415   3.736  11.928 -0.2574  1.1818 -0.6148
 5131TIP3    H236885   4.533   3.809  11.990  0.2805 -0.1632 -0.0019
 5132TIP3   OH236886   4.039   6.599   3.515  0.4390  0.2958 -0.0568
 5132TIP3    H136887   4.092   6.678   3.530  1.5752 -0.2386 -1.1320
 5132TIP3    H236888   3.949   6.627   3.534  1.0692  1.1884  1.9599
 5133TIP3   OH236889   3.981   2.376  15.643  0.2683 -0.1111 -0.2571
 5133TIP3    H136890   3.965   2.457  15.690 -0.9542  0.2078 -1.1717
 5133TIP3    H236891   4.047   2.398  15.577  0.2014  0.0545 -0.2676
 5134TIP3   OH236892   4.768   5.277  17.023  0.2565 -0.0913  0.3225
 5134TIP3    H136893   4.793   5.272  16.931  0.9186  1.3278  0.4029
 5134TIP3    H236894   4.675   5.254  17.023  0.2213 -0.0140 -0.7136
 5135TIP3   OH236895   5.955   4.668   4.951 -0.1147 -0.0452  0.1600
 5135TIP3    H136896   6.006   4.726   4.894 -1.5447  2.1030  0.9440
 5135TIP3    H236897   5.997   4.582   4.941  1.5818  0.9081 -1.7066
 5136TIP3   OH236898   5.669   0.465   4.285  0.3350  0.2005 -0.4092
 5136TIP3    H136899   5.623   0.482   4.203  0.3563  0.3666 -0.3873
 5136TIP3    H236900   5.599   0.443   4.347  0.3777 -0.6656 -0.6528
 5137TIP3   OH236901   1.594   1.974  14.379 -0.0444 -0.0079 -0.8660
 5137TIP3    H136902   1.677   1.946  14.341  0.0976 -0.4550 -0.2512
 5137TIP3    H236903   1.605   2.067  14.397  0.7409 -0.2944  0.2415
 5138TIP3   OH236904   3.788   5.164  16.618  0.1063  0.1474  0.1384
 5138TIP3    H136905   3.768   5.243  16.669 -0.2130 -0.2704  0.6627
 5138TIP3    H236906   3.849   5.115  16.674  0.4690  0.1188 -0.2781
 5139TIP3   OH236907   2.799   4.015  14.199 -0.4636  0.0500 -0.7946
 5139TIP3    H136908   2.775   3.925  14.177 -0.4992  0.1148 -1.0297
 5139TIP3    H236909   2.893   4.019  14.182  0.0399 -0.6157  1.5337
 5140TIP3   OH236910   1.215   3.169   5.793  0.4866 -0.4334 -0.4151
 5140TIP3    H136911   1.275   3.239   5.818  0.5571 -0.7740  0.3713
 5140TIP3    H236912   1.138   3.182   5.848  0.5457 -1.0422 -0.1806
 5141TIP3   OH236913   5.637   0.574   5.591  0.5891 -0.1961 -0.3433
 5141TIP3    H136914   5.636   0.663   5.627 -0.6684 -1.0278  1.8696
 5141TIP3    H236915   5.572   0.576   5.520 -0.6389  0.2929  0.7471
 5142TIP3   OH236916   3.644   1.438   4.740 -0.3564 -0.0696 -0.6996
 5142TIP3    H136917   3.603   1.516   4.705 -0.6524 -0.4725 -1.2584
 5142TIP3    H236918   3.659   1.458   4.832 -0.6103  0.5709 -0.7970
 5143TIP3   OH236919   1.201   1.708  13.747  0.2370 -0.2500 -0.3877
 5143TIP3    H136920   1.270   1.743  13.803  0.6370  0.0323 -1.0464
 5143TIP3    H236921   1.123   1.760  13.768 -0.1159 -1.3803  1.2487
 5144TIP3   OH236922   3.628   4.386   4.687  0.2341 -0.0093  0.3975
 5144TIP3    H136923   3.580   4.457   4.730 -0.0486 -0.4163  0.7633
 5144TIP3    H236924   3.704   4.429   4.648  1.1524  0.2347  2.3093
 5145TIP3   OH236925   3.762   6.466   5.627  0.1196  0.4996 -0.2806
 5145TIP3    H136926   3.687   6.486   5.683 -0.4316 -1.8681 -0.0928
 5145TIP3    H236927   3.827   6.533   5.649 -1.1226  1.2874  1.1249
 5146TIP3   OH236928   4.087   6.617   6.199 -0.6253 -0.0882  0.2725
 5146TIP3    H136929   4.112   6.580   6.284 -1.8740 -1.6818 -0.0047
 5146TIP3    H236930   4.086   6.712   6.213 -0.6779 -0.3161  1.9918
 5147TIP3   OH236931   6.192   2.795   0.721 -0.1276  0.3160  0.4627
 5147TIP3    H136932   6.129   2.830   0.657  0.4490  0.9954  0.2475
 5147TIP3    H236933   6.138   2.757   0.790 -0.7648 -0.1021 -0.2529
 5148TIP3   OH236934   1.413   1.843  17.201 -0.0952  0.1305 -0.3357
 5148TIP3    H136935   1.478   1.877  17.139 -0.2763  0.4307 -0.3619
 5148TIP3    H236936   1.358   1.918  17.221  0.8547  0.4368  1.3375
 5149TIP3   OH236937   3.291   6.108   5.927  0.3163 -0.2808  0.2435
 5149TIP3    H136938   3.289   6.020   5.890  0.0371 -0.6192  1.0602
 5149TIP3    H236939   3.228   6.107   5.999  0.7126  0.4249  0.6213
 5150TIP3   OH236940   6.590   6.826  13.432  0.2013  0.4404 -0.3612
 5150TIP3    H136941   6.626   6.904  13.473 -0.5955  0.5425  0.1591
 5150TIP3    H236942   6.585   6.762  13.503 -0.6256  0.4238 -0.4252
 5151TIP3   OH236943   5.785   2.526   1.644  0.4300  0.0668 -0.1558
 5151TIP3    H136944   5.736   2.445   1.630  1.9412 -0.9311  0.0743
 5151TIP3    H236945   5.794   2.533   1.739  0.7475  0.2475 -0.1985
 5152TIP3   OH236946   1.484   1.254   5.560 -0.1983  0.2757 -0.3318
 5152TIP3    H136947   1.566   1.287   5.595  0.0753  0.4522 -1.1328
 5152TIP3    H236948   1.494   1.159   5.560 -0.1759  0.2767 -0.0021
 5153TIP3   OH236949   3.763   4.816  11.089  0.2748  0.3940 -0.1998
 5153TIP3    H136950   3.692   4.843  11.147  0.4741 -1.1813  0.8626
 5153TIP3    H236951   3.736   4.844  11.002 -0.5055  1.9540  0.5069
 5154TIP3   OH236952   4.335   4.404   2.218  0.1429  0.0890 -0.1631
 5154TIP3    H136953   4.431   4.408   2.216  0.1195  0.6914 -0.0774
 5154TIP3    H236954   4.313   4.405   2.312  0.0370  0.3200 -0.1907
 5155TIP3   OH236955   2.927   0.417   0.360 -0.2422  0.1720 -0.1796
 5155TIP3    H136956   2.838   0.432   0.327 -0.5721  0.8819  0.9958
 5155TIP3    H236957   2.932   0.322   0.368 -0.6719  0.0798 -0.8277
 5156TIP3   OH236958   5.260   1.096   4.376  0.3620  0.2152  0.0684
 5156TIP3    H136959   5.304   1.073   4.458 -0.0278  0.4625  0.3490
 5156TIP3    H236960   5.231   1.012   4.340 -0.6150  0.1964  0.8411
 5157TIP3   OH236961   1.863   4.490   4.684 -0.0549 -0.2296  0.3034
 5157TIP3    H136962   1.798   4.555   4.659 -0.3369 -0.5992  0.0733
 5157TIP3    H236963   1.919   4.536   4.747 -0.6587  0.0266  0.6651
 5158TIP3   OH236964   2.930   4.193   3.516  0.1244 -0.0083  0.8304
 5158TIP3    H136965   2.953   4.115   3.567  0.4156 -0.5262 -0.0633
 5158TIP3    H236966   2.957   4.172   3.427 -0.3072  0.9033  0.4696
 5159TIP3   OH236967   4.797   6.487  11.544  0.9035  0.1469 -0.1735
 5159TIP3    H136968   4.715   6.436  11.545  0.7651  0.3674 -0.1933
 5159TIP3    H236969   4.831   6.478  11.633  1.0624 -0.2719 -0.2746
 5160TIP3   OH236970   4.120   4.968  12.636  0.0968 -0.1718 -0.3430
 5160TIP3    H136971   4.061   4.925  12.574 -0.7189 -0.5532  0.6665
 5160TIP3    H236972   4.193   4.998  12.582 -0.7519 -0.1688 -1.5493
 5161TIP3   OH236973   0.148   6.263  13.869 -0.0396  0.2363 -0.0335
 5161TIP3    H136974   0.217   6.326  13.855 -0.5867  1.1336  1.1268
 5161TIP3    H236975   0.162   6.231  13.959  0.6813 -1.8865 -0.8382
 5162TIP3   OH236976   5.534   5.823   0.977 -0.0031 -0.0559 -0.2787
 5162TIP3    H136977   5.566   5.871   1.053 -1.5531  2.4184 -1.0796
 5162TIP3    H236978   5.478   5.885   0.931  0.1786 -1.7483 -2.9945
 5163TIP3   OH236979   5.610   2.329   4.065  0.6638  0.1288  0.1504
 5163TIP3    H136980   5.602   2.297   4.154 -2.8362  1.8299  0.6216
 5163TIP3    H236981   5.649   2.257   4.016  2.0326 -1.0892  2.8810
 5164TIP3   OH236982   0.033   2.905  16.078  0.1543  0.6290 -0.8066
 5164TIP3    H136983   0.001   2.850  16.007 -0.6845  1.2024 -0.8847
 5164TIP3    H236984   0.103   2.957  16.038  0.9252 -0.3206 -0.7412
 5165TIP3   OH236985   4.107   5.528   1.022 -0.5095 -0.1961 -0.1723
 5165TIP3    H136986   4.064   5.514   1.107 -2.8385 -0.3931 -1.3061
 5165TIP3    H236987   4.037   5.557   0.964  0.5533 -2.0227 -2.5623
 5166TIP3   OH236988   3.537   2.357  11.706  0.6570 -0.2552  0.5123
 5166TIP3    H136989   3.631   2.366  11.692  0.4325 -0.4981 -1.2953
 5166TIP3    H236990   3.513   2.436  11.755  1.6905  0.0815  0.5053
 5167TIP3   OH236991   5.174   1.855  11.588  0.2724  0.3393 -0.3873
 5167TIP3    H136992   5.269   1.859  11.571  0.4808 -2.2192 -0.1367
 5167TIP3    H236993   5.168   1.819  11.676 -0.9468  0.6181 -0.3500
 5168TIP3   OH236994   6.469   4.174   0.218  0.2756 -0.3627  0.1171
 5168TIP3    H136995   6.557   4.173   0.180  1.0172 -1.9945  1.7322
 5168TIP3    H236996   6.483   4.195   0.310 -1.0114 -0.8439  0.4429
 5169TIP3   OH236997   1.766   1.024  12.543 -0.5018  0.4686  0.0897
 5169TIP3    H136998   1.789   1.067  12.626  0.0885 -0.5011  0.4483
 5169TIP3    H236999   1.756   0.932  12.566 -2.6622  0.5034 -0.4866
 5170TIP3   OH237000   0.518   0.579   4.736  0.1478 -0.0966  0.1494
 5170TIP3    H137001   0.500   0.594   4.643  0.2743 -1.3070 -0.0865
 5170TIP3    H237002   0.434   0.595   4.779  0.6285  2.9894  0.2149
 5171TIP3   OH237003   2.003   0.381   5.011 -0.8837 -0.3894 -0.0942
 5171TIP3    H137004   2.034   0.312   5.070  1.6661  0.4616 -0.3174
 5171TIP3    H237005   1.980   0.334   4.930  0.3606 -1.0651 -0.0855
 5172TIP3   OH237006   3.519   4.607   4.918  0.4048 -0.3686 -0.6730
 5172TIP3    H137007   3.542   4.544   4.986 -0.2530  2.1802  2.0663
 5172TIP3    H237008   3.427   4.588   4.899 -0.0984  0.3610  0.8973
 5173TIP3   OH237009   3.805   1.009   3.677  0.2695 -0.4035 -0.2607
 5173TIP3    H137010   3.840   1.096   3.698  0.4303 -0.1639 -1.4470
 5173TIP3    H237011   3.731   1.027   3.618  0.1668 -1.0558 -0.3307
 5174TIP3   OH237012   5.300   6.504   5.025  0.5213  0.2579  0.0456
 5174TIP3    H137013   5.322   6.476   5.114 -0.8556 -0.3669  0.2210
 5174TIP3    H237014   5.308   6.425   4.972  3.1985  1.0015 -0.8246
 5175TIP3   OH237015   4.253   0.471  10.834  0.2984  0.2728  0.0443
 5175TIP3    H137016   4.248   0.565  10.817  0.3276  0.6773  2.0290
 5175TIP3    H237017   4.170   0.437  10.801 -0.1068  1.1427  0.1346
 5176TIP3   OH237018   6.306   4.666   0.893 -1.0945 -0.6276  0.8288
 5176TIP3    H137019   6.266   4.582   0.914 -0.4683 -0.5849  2.2907
 5176TIP3    H237020   6.399   4.646   0.879 -1.1880 -0.3780 -0.2278
 5177TIP3   OH237021   0.348   6.404   0.902  0.6261  0.1236  0.2163
 5177TIP3    H137022   0.369   6.497   0.893  2.2792 -0.1059  1.1982
 5177TIP3    H237023   0.270   6.403   0.959 -0.4198  0.9262 -1.1325
 5178TIP3   OH237024   3.340   6.582  10.860 -0.2102  0.0417  0.3244
 5178TIP3    H137025   3.372   6.643  10.792  0.4318  0.5694  1.0792
 5178TIP3    H237026   3.406   6.513  10.863 -1.3387 -1.1726 -1.0954
 5179TIP3   OH237027   1.246   5.226  13.391 -0.6152 -0.7619  0.2871
 5179TIP3    H137028   1.252   5.300  13.330  0.7039 -1.3707 -0.3359
 5179TIP3    H237029   1.298   5.157  13.351  0.4171 -1.1298  2.1800
 5180TIP3   OH237030   5.847   6.291  13.393  0.2962  0.5309  0.4153
 5180TIP3    H137031   5.842   6.297  13.297 -0.8958  2.5732  0.5312
 5180TIP3    H237032   5.921   6.347  13.417 -0.4067  1.3580  0.7311
 5181TIP3   OH237033   1.412   1.566   4.075  0.6174  0.1513  0.1933
 5181TIP3    H137034   1.424   1.661   4.086 -1.4150  0.7101 -1.6894
 5181TIP3    H237035   1.370   1.538   4.156  1.1479  0.8776  0.7355
 5182TIP3   OH237036   2.409   5.773   2.517 -0.1810  0.2438 -0.1398
 5182TIP3    H137037   2.409   5.842   2.584  0.5320  0.3790 -0.2725
 5182TIP3    H237038   2.347   5.708   2.550 -0.6640  0.8250  0.1143
 5183TIP3   OH237039   1.858   1.735   5.558 -0.6428  0.1859  0.2175
 5183TIP3    H137040   1.782   1.794   5.554 -1.1595 -0.5389 -1.0638
 5183TIP3    H237041   1.902   1.759   5.639 -1.0868  2.0473 -0.0413
 5184TIP3   OH237042   5.495   5.535   0.943  0.1646 -0.4393 -0.0596
 5184TIP3    H137043   5.514   5.628   0.937 -0.0800 -0.4166 -0.6240
 5184TIP3    H237044   5.431   5.527   1.014  0.4432 -0.2250  0.2171
 5185TIP3   OH237045   5.563   6.037   2.936 -0.0755 -0.3427 -0.1537
 5185TIP3    H137046   5.514   6.029   3.018 -0.6976  1.3736 -0.3204
 5185TIP3    H237047   5.650   6.067   2.963  0.2184 -1.2442 -0.0379
 5186TIP3   OH237048   4.569   1.154  15.818  0.6208  0.4012 -0.5000
 5186TIP3    H137049   4.664   1.144  15.810  0.6415 -0.4560  0.6114
 5186TIP3    H237050   4.535   1.125  15.733  1.2972 -0.1742 -0.5861
 5187TIP3   OH237051   3.184   3.790  12.977 -0.4732 -0.4615 -0.0726
 5187TIP3    H137052   3.238   3.721  13.015 -2.4117 -2.3334 -0.4917
 5187TIP3    H237053   3.106   3.793  13.033 -0.0034  2.1747  0.5496
 5188TIP3   OH237054   2.464   0.965  13.603  0.2754  0.2583  0.1065
 5188TIP3    H137055   2.505   0.973  13.690 -2.0750 -1.8177  1.5304
 5188TIP3    H237056   2.379   0.925  13.620 -0.3320 -0.1302 -3.2011
 5189TIP3   OH237057   4.045   0.094  13.547  0.0703 -0.0628 -0.0910
 5189TIP3    H137058   4.044  -0.000  13.563 -0.6270 -0.2935 -1.3258
 5189TIP3    H237059   4.023   0.133  13.632  1.1956 -0.9547  0.6451
 5190TIP3   OH237060   6.164   3.209  16.584 -0.2831  0.1101  0.3092
 5190TIP3    H137061   6.251   3.178  16.561  0.3671  0.5328  2.0493
 5190TIP3    H237062   6.166   3.303  16.567  0.1882  0.4197  1.8802
 5191TIP3   OH237063   5.503   5.761  16.111  0.3535  0.2450 -0.2825
 5191TIP3    H137064   5.474   5.756  16.202 -0.7005 -1.6875 -0.6666
 5191TIP3    H237065   5.472   5.846  16.080 -0.3720  0.4015  0.8228
 5192TIP3   OH237066   5.679   1.993  12.356 -0.0968  0.0073 -0.1179
 5192TIP3    H137067   5.610   2.037  12.407 -2.4472  0.1111 -3.1326
 5192TIP3    H237068   5.728   2.065  12.316 -0.4210 -0.0670 -0.6577
 5193TIP3   OH237069   1.023   1.788   2.327 -0.1359  0.4552  0.5939
 5193TIP3    H137070   0.982   1.761   2.245 -1.9246 -1.6612  2.0847
 5193TIP3    H237071   1.112   1.815   2.302 -0.5949 -0.2204 -1.9950
 5194TIP3   OH237072   1.563   6.537   2.931 -0.7061 -0.1211 -0.6036
 5194TIP3    H137073   1.546   6.443   2.941 -1.2012  0.0014 -0.3069
 5194TIP3    H237074   1.479   6.579   2.949 -0.5234  0.3723 -0.8942
 5195TIP3   OH237075   3.911   4.162   4.782  0.3306  0.3647 -0.8188
 5195TIP3    H137076   3.870   4.186   4.699 -0.8724  0.6082 -0.1799
 5195TIP3    H237077   3.838   4.154   4.844  1.2379  0.6879  0.3406
 5196TIP3   OH237078   2.248   3.683  11.747 -0.5247  0.4505 -0.3569
 5196TIP3    H137079   2.246   3.778  11.733 -1.8960  0.1001 -3.0828
 5196TIP3    H237080   2.310   3.650  11.683  0.0602 -0.5402  0.6700
 5197TIP3   OH237081   5.780   0.594  11.950 -0.5795 -0.0887 -0.3689
 5197TIP3    H137082   5.853   0.563  12.004  0.3848 -1.2304 -2.2466
 5197TIP3    H237083   5.777   0.534  11.876 -2.2214  1.0916 -1.3336
 5198TIP3   OH237084   0.806   3.607   5.610 -0.2394  0.1669  0.0598
 5198TIP3    H137085   0.888   3.629   5.565 -0.7414  0.9121 -0.5148
 5198TIP3    H237086   0.802   3.668   5.684  0.6589 -1.1565  1.2617
 5199TIP3   OH237087   2.327   4.617   4.110 -0.2043  0.4475 -0.0350
 5199TIP3    H137088   2.377   4.688   4.149 -0.1372 -0.1654  1.0166
 5199TIP3    H237089   2.369   4.537   4.141 -0.8019 -0.0659 -0.5083
 5200TIP3   OH237090   4.706   4.577  16.009 -0.3731  0.5434  0.5604
 5200TIP3    H137091   4.687   4.601  16.100 -2.0754 -0.2932  0.4569
 5200TIP3    H237092   4.748   4.491  16.015  1.3775  1.3611  0.6410
 5201TIP3   OH237093   0.766   5.186  14.474 -0.3395 -0.0867  0.5246
 5201TIP3    H137094   0.678   5.213  14.502 -0.3811 -1.4717  1.8135
 5201TIP3    H237095   0.757   5.093  14.455  0.7782 -0.1498  0.2695
 5202TIP3   OH237096   3.921   1.352  15.580 -0.0514  0.2877  0.0377
 5202TIP3    H137097   3.959   1.362  15.492 -0.3239 -1.0023 -0.2484
 5202TIP3    H237098   3.951   1.266  15.609 -1.9237 -0.3494  0.2085
 5203TIP3   OH237099   0.919   0.939   3.213 -0.8596 -0.0364 -0.3096
 5203TIP3    H137100   0.935   0.941   3.118 -2.0779 -0.9994 -0.5636
 5203TIP3    H237101   0.853   0.871   3.224 -2.0799  1.3059  1.0319
 5204TIP3   OH237102   2.432   4.883  11.526  0.5483  0.2427  0.6199
 5204TIP3    H137103   2.504   4.839  11.481  1.5266  0.0724  2.2891
 5204TIP3    H237104   2.372   4.909  11.455  2.2398  0.4297 -0.8028
 5205TIP3   OH237105   0.376   1.844   2.872  0.4612  0.5101 -0.5042
 5205TIP3    H137106   0.348   1.934   2.885  2.2701  1.0737 -0.3879
 5205TIP3    H237107   0.433   1.825   2.946 -1.0724 -1.2795  0.3163
 5206TIP3   OH237108   1.971   3.218  17.050  0.2204 -0.3290  0.0311
 5206TIP3    H137109   1.898   3.184  17.102 -1.0532 -0.3501 -1.6574
 5206TIP3    H237110   2.001   3.142  16.999 -0.8593  0.3891 -1.7709
 5207TIP3   OH237111   0.423   2.764  11.991 -0.0016  0.0085 -0.0148
 5207TIP3    H137112   0.411   2.811  11.909  0.3880  0.2423  0.0568
 5207TIP3    H237113   0.335   2.741  12.020 -0.1314 -0.1979 -0.5697
 5208TIP3   OH237114   2.605   5.137   0.115  0.1298 -0.2506  0.1833
 5208TIP3    H137115   2.622   5.158   0.023  2.4659 -1.4975  0.2604
 5208TIP3    H237116   2.592   5.043   0.116 -0.9468 -0.1084  1.0221
 5209TIP3   OH237117   5.151   6.297   1.599 -0.0737  0.3056  0.4200
 5209TIP3    H137118   5.208   6.253   1.662  0.8177  0.7649 -0.0489
 5209TIP3    H237119   5.063   6.284   1.633  0.4002  0.7266  1.8770
 5210TIP3   OH237120   4.339   2.800   4.037 -0.2175  0.7475 -0.4190
 5210TIP3    H137121   4.339   2.704   4.035  0.5422  0.7015  0.5808
 5210TIP3    H237122   4.431   2.824   4.025 -0.4483  1.3711 -0.9924
 5211TIP3   OH237123   6.654   2.364  12.956 -0.2151 -0.1518  0.1766
 5211TIP3    H137124   6.720   2.421  12.915 -0.8615  1.0896  0.7998
 5211TIP3    H237125   6.672   2.372  13.050 -0.4063 -0.8794  0.2783
 5212TIP3   OH237126   1.711   4.608   0.338  0.3057 -0.0037 -0.7158
 5212TIP3    H137127   1.796   4.643   0.313 -0.5872  2.9275 -0.0693
 5212TIP3    H237128   1.676   4.569   0.257  0.6881  2.2762 -2.0790
 5213TIP3   OH237129   5.140   5.545  10.170 -0.0513  0.1586  0.3343
 5213TIP3    H137130   5.153   5.619  10.111 -0.4288  0.8300  1.0644
 5213TIP3    H237131   5.059   5.566  10.217  0.9913  0.3849  2.1370
 5214TIP3   OH237132   4.052   1.658  11.533 -0.2631 -0.2560 -0.2346
 5214TIP3    H137133   4.039   1.563  11.535 -0.9616 -0.1555  0.5430
 5214TIP3    H237134   4.133   1.670  11.484 -0.1471 -1.2564 -0.3105
 5215TIP3   OH237135   4.371   2.760   3.517 -0.0818 -0.2168  0.5520
 5215TIP3    H137136   4.279   2.772   3.538  0.0804  0.7630  0.7893
 5215TIP3    H237137   4.384   2.666   3.512 -1.1476 -0.3521  0.2791
 5216TIP3   OH237138   1.817   4.603  11.684  0.0376  0.2756  0.7044
 5216TIP3    H137139   1.879   4.664  11.724  0.7338  1.2033 -1.5915
 5216TIP3    H237140   1.748   4.660  11.649  0.2716 -0.2902 -0.7554
 5217TIP3   OH237141   2.851   3.509   1.979  0.3991  0.4618  0.0240
 5217TIP3    H137142   2.818   3.599   1.990  2.8093  1.5104 -0.7903
 5217TIP3    H237143   2.946   3.516   1.991  0.6968 -1.9488 -0.3826
 5218TIP3   OH237144   4.591   1.418   1.401 -0.1972 -0.0915  0.2791
 5218TIP3    H137145   4.560   1.461   1.481  1.5024 -0.8823  1.4152
 5218TIP3    H237146   4.653   1.353   1.431  3.5892  2.1605 -1.8463
 5219TIP3   OH237147   5.910   5.533  12.314  0.5290 -0.4899  0.4795
 5219TIP3    H137148   5.909   5.603  12.380  0.9065 -0.6827  0.6925
 5219TIP3    H237149   5.870   5.573  12.236  1.1877  0.1243  0.4458
 5220TIP3   OH237150   2.857   1.724  16.075  0.5143  0.0500 -0.0845
 5220TIP3    H137151   2.845   1.768  16.158  0.4043  0.4194 -0.2950
 5220TIP3    H237152   2.856   1.630  16.097 -1.1545  0.0974  0.1179
 5221TIP3   OH237153   4.058   1.922  15.229  0.0788  0.0171 -0.1570
 5221TIP3    H137154   4.010   1.940  15.310  0.0847  0.8079 -0.3261
 5221TIP3    H237155   4.013   1.973  15.162 -0.7028 -1.6008 -0.9148
 5222TIP3   OH237156   2.898   1.207  16.772 -0.0031  0.5822 -0.0651
 5222TIP3    H137157   2.937   1.127  16.808 -1.5132 -1.2854 -2.3182
 5222TIP3    H237158   2.968   1.272  16.776  1.6236 -1.1322  0.8177
 5223TIP3   OH237159   5.426   2.036  12.488  0.4656  0.2156  0.3327
 5223TIP3    H137160   5.346   2.083  12.513  0.4560  0.0183  0.6822
 5223TIP3    H237161   5.406   1.944  12.504 -0.4195 -0.2415 -2.7208
 5224TIP3   OH237162   0.601   2.778  15.076  0.3550 -0.6614 -0.4332
 5224TIP3    H137163   0.620   2.687  15.097 -1.3197 -1.1562 -0.8778
 5224TIP3    H237164   0.523   2.799  15.128  0.1971  0.2347 -1.0108
 5225TIP3   OH237165   5.211   6.092   2.309  0.0891  0.3909 -0.0151
 5225TIP3    H137166   5.305   6.112   2.309 -0.3181  2.5443  0.2998
 5225TIP3    H237167   5.206   6.000   2.337  2.1038  0.1306 -0.3837
 5226TIP3   OH237168   1.274   2.670   3.802  0.3852 -0.8614 -0.3345
 5226TIP3    H137169   1.242   2.649   3.714 -2.0038  0.1269  0.2157
 5226TIP3    H237170   1.211   2.628   3.861 -0.9452  2.4274  0.8032
 5227TIP3   OH237171   0.078   6.575  14.386  0.1783 -0.1101 -0.2611
 5227TIP3    H137172   0.158   6.565  14.335  0.1860  0.5539 -0.3865
 5227TIP3    H237173   0.071   6.494  14.436  2.0521  0.6215  1.3273
 5228TIP3   OH237174   6.368   0.833  15.849 -0.0177  0.3895 -0.8418
 5228TIP3    H137175   6.450   0.854  15.894  0.0381 -1.9576  0.3234
 5228TIP3    H237176   6.391   0.764  15.787 -1.3562 -1.8268  0.9638
 5229TIP3   OH237177   6.008   2.211   4.997 -0.1051 -0.0408 -0.1983
 5229TIP3    H137178   6.025   2.143   4.932 -1.2312 -0.6003  0.0747
 5229TIP3    H237179   6.013   2.165   5.081 -1.9557 -0.0452 -0.0579
 5230TIP3   OH237180   5.539   2.315  15.283  0.1522  0.2331  0.3296
 5230TIP3    H137181   5.496   2.358  15.209  1.2889  1.3729  0.2946
 5230TIP3    H237182   5.559   2.386  15.344 -0.2745 -0.6136  1.4943
 5231TIP3   OH237183   5.381   2.788   0.447  0.3809  0.7934  0.2209
 5231TIP3    H137184   5.468   2.822   0.425 -0.0378  1.5123 -0.3822
 5231TIP3    H237185   5.327   2.810   0.371 -0.2233 -0.0675  0.3801
 5232TIP3   OH237186   3.638   5.936  11.908  0.0247 -0.3902 -0.0765
 5232TIP3    H137187   3.688   5.855  11.920 -0.0396 -0.4031  0.1104
 5232TIP3    H237188   3.666   5.969  11.823 -1.2967 -1.5623 -1.0009
 5233TIP3   OH237189   0.718   6.621   2.943 -0.4342  0.3932 -0.6598
 5233TIP3    H137190   0.660   6.590   3.013 -0.2752  1.5437 -0.0012
 5233TIP3    H237191   0.806   6.613   2.979 -0.2300 -0.5045 -1.3279
 5234TIP3   OH237192   3.248   5.443   1.952 -0.4417  0.5678  0.0378
 5234TIP3    H137193   3.253   5.528   1.995  1.1967  0.2587  0.5446
 5234TIP3    H237194   3.230   5.380   2.022  0.8288  0.2287  0.0828
 5235TIP3   OH237195   3.537   1.473  17.197  0.0668 -0.1918 -0.3408
 5235TIP3    H137196   3.622   1.435  17.177  0.7657  1.8121 -1.4315
 5235TIP3    H237197   3.557   1.553  17.246 -1.3517 -1.1715  2.0204
 5236TIP3   OH237198   2.511   4.637   2.342 -0.7047  0.5006  0.1917
 5236TIP3    H137199   2.566   4.562   2.365 -0.7720  0.4627  0.2293
 5236TIP3    H237200   2.542   4.707   2.399 -0.2086  0.6786 -0.3052
 5237TIP3   OH237201   2.822   4.647  15.676 -0.6885 -0.4278  0.3482
 5237TIP3    H137202   2.741   4.699  15.672 -0.9710 -0.6141  2.4555
 5237TIP3    H237203   2.892   4.712  15.684 -0.6992 -0.2944 -0.5485
 5238TIP3   OH237204   2.964   1.614  13.397 -0.3882  0.3598 -0.3212
 5238TIP3    H137205   2.984   1.664  13.476 -2.1105  0.5594  0.0281
 5238TIP3    H237206   3.042   1.559  13.383  0.4846  1.2902  0.7305
 5239TIP3   OH237207   2.118   4.591   0.862 -0.1603  0.3392 -0.2204
 5239TIP3    H137208   2.159   4.677   0.871 -1.8515  1.0837  0.9661
 5239TIP3    H237209   2.191   4.529   0.863  0.9716  1.6157  1.4076
 5240TIP3   OH237210   0.220   5.177   3.716  1.0265 -0.4273  0.6435
 5240TIP3    H137211   0.300   5.132   3.742  1.3567 -1.9134 -2.5262
 5240TIP3    H237212   0.250   5.247   3.658  0.1918  1.1879  2.0739
 5241TIP3   OH237213   1.120   0.161  15.106 -0.2569  1.0678  1.0485
 5241TIP3    H137214   1.040   0.175  15.156 -0.0738 -0.3087  1.7742
 5241TIP3    H237215   1.136   0.245  15.062 -3.5473  0.6628 -1.3170
 5242TIP3   OH237216   4.712   3.588   4.238 -0.1947  0.2373  0.0217
 5242TIP3    H137217   4.743   3.648   4.170  2.0140 -0.6706  0.1478
 5242TIP3    H237218   4.683   3.510   4.190 -1.1164  0.5770 -0.0036
 5243TIP3   OH237219   5.553   2.787  11.997 -0.7299 -0.4359  0.5329
 5243TIP3    H137220   5.624   2.795  11.934 -0.4045 -0.6528  0.8660
 5243TIP3    H237221   5.580   2.842  12.071  0.3891 -2.5496  1.8084
 5244TIP3   OH237222   4.171   4.818   3.577  0.1347 -0.2032 -0.5409
 5244TIP3    H137223   4.221   4.799   3.497 -0.2880 -0.3141 -0.7853
 5244TIP3    H237224   4.204   4.903   3.606 -1.2268  0.9280 -2.0824
 5245TIP3   OH237225   2.291   4.135   4.657 -0.4923  0.1213 -0.0541
 5245TIP3    H137226   2.247   4.146   4.741  0.5259  0.5797  0.4396
 5245TIP3    H237227   2.220   4.115   4.595 -1.1634 -0.9428  1.0328
 5246TIP3   OH237228   1.694   2.027  14.681 -0.0373  0.1344  0.7308
 5246TIP3    H137229   1.780   2.026  14.724 -0.3275  0.0024  1.3302
 5246TIP3    H237230   1.709   2.072  14.598  0.5917  0.1948  0.8697
 5247TIP3   OH237231   0.352   0.403   3.509  0.2454  0.3883 -0.2867
 5247TIP3    H137232   0.354   0.372   3.600 -2.5350  0.6471 -0.0399
 5247TIP3    H237233   0.337   0.497   3.516  2.0488  0.7669 -1.0546
 5248TIP3   OH237234   4.151   2.558  15.360 -0.5025 -0.2607 -0.5523
 5248TIP3    H137235   4.197   2.480  15.329 -1.8048 -0.6907 -1.5051
 5248TIP3    H237236   4.176   2.627  15.298  0.3122 -0.0089  0.0393
 5249TIP3   OH237237   0.752   5.998   1.245 -0.0058  0.6037 -0.1296
 5249TIP3    H137238   0.768   5.936   1.316 -0.1155 -0.8367 -1.2995
 5249TIP3    H237239   0.840   6.024   1.217  0.0863 -0.0385 -0.4637
 5250TIP3   OH237240   2.474   4.360   4.641 -0.1305 -0.6209  0.0266
 5250TIP3    H137241   2.498   4.422   4.710 -0.6290 -1.2801  0.8042
 5250TIP3    H237242   2.467   4.276   4.685  1.3436 -1.4229 -1.1589
 5251TIP3   OH237243   4.933   1.653   0.872 -0.1273 -0.0435 -0.6789
 5251TIP3    H137244   4.978   1.642   0.955  0.0807 -1.3669 -0.9389
 5251TIP3    H237245   4.865   1.585   0.872  0.0871 -0.2757 -1.7074
 5252TIP3   OH237246   3.903   1.714  15.732 -0.1058  0.2123 -0.2287
 5252TIP3    H137247   3.963   1.789  15.726  1.5753 -0.9090  1.2616
 5252TIP3    H237248   3.835   1.742  15.793 -0.5989  1.1635 -1.1773
 5253TIP3   OH237249   5.531   5.490   2.263 -0.0973 -0.5121 -0.1267
 5253TIP3    H137250   5.567   5.494   2.174 -0.9164  0.1350 -0.4425
 5253TIP3    H237251   5.593   5.539   2.316 -1.3436  2.1725 -0.9784
 5254TIP3   OH237252   5.819   6.711  13.607  0.0999  0.6008 -0.3535
 5254TIP3    H137253   5.732   6.688  13.640 -0.2784  1.9150 -0.3921
 5254TIP3    H237254   5.856   6.769  13.674  1.7420 -1.4117  0.6020
 5255TIP3   OH237255   5.847   0.490   0.251 -0.5923 -0.4236  0.1435
 5255TIP3    H137256   5.764   0.519   0.214 -1.3234 -0.3871  1.7319
 5255TIP3    H237257   5.900   0.465   0.175 -1.9612 -0.2356 -0.9087
 5256TIP3   OH237258   1.610   4.085  13.591 -0.5386 -0.2315  0.1623
 5256TIP3    H137259   1.632   4.179  13.596  1.0884 -0.5521 -0.4346
 5256TIP3    H237260   1.552   4.079  13.515  0.1606  0.1737 -0.4261
 5257TIP3   OH237261   1.396   4.877  16.878 -0.5131  0.2545  0.0560
 5257TIP3    H137262   1.397   4.927  16.959 -1.9272 -0.5829  0.6230
 5257TIP3    H237263   1.406   4.943  16.809 -1.0935  1.1804  0.8361
 5258TIP3   OH237264   6.520   2.210  17.237  0.4750 -0.3751 -0.1822
 5258TIP3    H137265   6.521   2.225  17.143  0.2510 -0.2083 -0.1584
 5258TIP3    H237266   6.480   2.123  17.247 -1.5226  0.4975 -0.1291
 5259TIP3   OH237267   3.484   1.278   5.223 -0.1567  0.0697  0.5418
 5259TIP3    H137268   3.566   1.268   5.273  0.5249 -0.6228 -0.6590
 5259TIP3    H237269   3.420   1.226   5.272  0.5071 -0.6321  0.6835
 5260TIP3   OH237270   2.312   1.504  16.191  0.1478  0.0121 -0.2190
 5260TIP3    H137271   2.354   1.419  16.206  0.0567 -0.4537 -2.2836
 5260TIP3    H237272   2.382   1.560  16.157 -0.3089 -0.0295 -1.2951
 5261TIP3   OH237273   0.886   2.899  16.295 -0.2949 -0.0517 -0.0135
 5261TIP3    H137274   0.856   2.822  16.344 -0.9518 -1.1694 -2.0111
 5261TIP3    H237275   0.862   2.974  16.349 -0.1024 -1.2343  1.7738
 5262TIP3   OH237276   2.680   2.290   1.795 -0.5577 -0.0411 -0.0601
 5262TIP3    H137277   2.690   2.195   1.787 -1.2388 -0.1793  0.5841
 5262TIP3    H237278   2.589   2.307   1.771 -0.5314  0.4075  0.1397
 5263TIP3   OH237279   3.101   4.006  15.512 -0.4940 -0.3451  0.1763
 5263TIP3    H137280   3.097   3.926  15.565  0.6010  0.3735  1.3663
 5263TIP3    H237281   3.035   4.064  15.551  1.0502  0.5956  1.5143
 5264TIP3   OH237282   1.384   6.451  15.580  0.8788  0.0814 -0.1013
 5264TIP3    H137283   1.326   6.500  15.522 -0.2160 -0.5669  0.4136
 5264TIP3    H237284   1.417   6.516  15.641  0.0476  0.3251  0.1041
 5265TIP3   OH237285   4.452   5.406  13.346 -0.4103  0.0154  0.2196
 5265TIP3    H137286   4.522   5.404  13.411 -0.5608  0.6492  0.4052
 5265TIP3    H237287   4.496   5.423  13.263 -0.2494 -0.5110  0.1930
 5266TIP3   OH237288   4.449   1.933  14.850  0.1699  0.3076  0.0688
 5266TIP3    H137289   4.469   2.018  14.812 -0.0625  0.3179 -0.0324
 5266TIP3    H237290   4.362   1.944  14.890  1.2327  0.9108  2.4090
 5267TIP3   OH237291   1.719   2.147  11.041  0.4400  0.3968 -0.4314
 5267TIP3    H137292   1.791   2.116  10.986 -1.2645 -1.4314 -1.7627
 5267TIP3    H237293   1.653   2.079  11.034 -0.4057  0.7077  2.9012
 5268TIP3   OH237294   2.741   6.607  14.385  0.1427 -0.1757  0.9207
 5268TIP3    H137295   2.823   6.655  14.379 -0.4661  1.0229  1.6791
 5268TIP3    H237296   2.764   6.517  14.361  2.0353 -0.2531  2.7102
 5269TIP3   OH237297   5.771   6.417  17.211  0.0431  0.1947 -0.1993
 5269TIP3    H137298   5.720   6.454  17.283 -1.8328 -4.1089  0.9734
 5269TIP3    H237299   5.725   6.446  17.132 -0.8269  0.9447  0.5604
 5270TIP3   OH237300   0.775   0.046  13.419 -0.1848  0.1695 -0.0998
 5270TIP3    H137301   0.732   0.122  13.458  0.9211  0.7065  0.1168
 5270TIP3    H237302   0.857   0.037  13.467 -0.0070 -0.7894 -0.5432
 5271TIP3   OH237303   3.268   3.045  15.681 -0.2102  0.5465 -0.3525
 5271TIP3    H137304   3.193   3.028  15.738  0.8659  0.7904  1.2081
 5271TIP3    H237305   3.245   3.127  15.637 -0.4560  1.1782  0.8843
 5272TIP3   OH237306   2.137   3.222   3.732 -1.0327  0.2686  0.5664
 5272TIP3    H137307   2.201   3.273   3.782 -1.1849  1.6260 -0.5681
 5272TIP3    H237308   2.057   3.227   3.784 -1.6078  2.9191 -0.4327
 5273TIP3   OH237309   5.694   1.572   5.370 -0.4464  0.1244 -0.0830
 5273TIP3    H137310   5.717   1.504   5.432 -0.2454  0.9151  0.7404
 5273TIP3    H237311   5.776   1.620   5.355 -0.4728 -0.1164 -1.0353
 5274TIP3   OH237312   6.095   1.372  14.499  0.1852 -0.0358 -0.6199
 5274TIP3    H137313   6.139   1.304  14.550  1.3167 -0.5971 -2.2577
 5274TIP3    H237314   6.044   1.324  14.434 -0.8620  0.6685 -0.3349
 5275TIP3   OH237315   4.251   5.462  14.544 -0.7499  0.0882  0.4370
 5275TIP3    H137316   4.204   5.476  14.461 -0.6896 -0.1841  0.3559
 5275TIP3    H237317   4.244   5.546  14.590  1.6914  1.2554 -1.0809
 5276TIP3   OH237318   4.084   2.129   2.835  0.0276 -0.0173 -0.4736
 5276TIP3    H137319   4.047   2.092   2.755  0.7202  0.2181 -0.9130
 5276TIP3    H237320   4.100   2.221   2.814 -0.7869  0.3079  0.2957
 5277TIP3   OH237321   6.512   2.755   1.305 -0.0090  0.7924 -0.0934
 5277TIP3    H137322   6.583   2.777   1.365  0.0529 -0.7223  0.4310
 5277TIP3    H237323   6.539   2.672   1.264  0.8109  2.5897 -3.6271
 5278TIP3   OH237324   3.079   2.100   0.380  0.2217  0.7562  0.1988
 5278TIP3    H137325   3.166   2.073   0.350 -0.0607 -0.9020  0.7782
 5278TIP3    H237326   3.034   2.126   0.300  1.1766  1.5004 -0.1286
 5279TIP3   OH237327   1.608   3.810   4.783 -0.8156 -0.1014  0.2692
 5279TIP3    H137328   1.565   3.739   4.736  1.7498  0.1541 -2.8798
 5279TIP3    H237329   1.648   3.769   4.859 -2.6480 -1.1781  0.6953
 5280TIP3   OH237330   5.337   2.241  16.415 -0.4629 -0.0984  0.0048
 5280TIP3    H137331   5.393   2.262  16.341 -2.2024 -0.9792 -1.6779
 5280TIP3    H237332   5.392   2.189  16.473  0.2665 -1.7345 -2.0092
 5281TIP3   OH237333   5.670   3.658   2.123 -0.0561 -0.3205  0.1322
 5281TIP3    H137334   5.608   3.587   2.106  0.1744 -0.8706  1.4778
 5281TIP3    H237335   5.756   3.619   2.109  0.1295 -0.7106  2.0714
 5282TIP3   OH237336   4.679   2.494   0.924 -0.3933 -0.0326  0.0538
 5282TIP3    H137337   4.626   2.531   0.994 -1.6267 -1.0636 -0.2791
 5282TIP3    H237338   4.615   2.462   0.860  0.6894  0.9195 -1.5850
 5283TIP3   OH237339   0.397   3.397  11.407  0.3752  0.5163 -0.0755
 5283TIP3    H137340   0.425   3.368  11.493 -0.2818 -0.9507 -0.3234
 5283TIP3    H237341   0.478   3.423  11.363  1.0141 -0.9231  0.2001
 5284TIP3   OH237342   0.033   2.975   2.258 -0.5749  0.0929  0.2977
 5284TIP3    H137343  -0.053   2.940   2.278  0.1678 -1.7802  0.4404
 5284TIP3    H237344   0.018   3.036   2.185 -2.0848  0.3558  0.8008
 5285TIP3   OH237345   0.048   0.366  16.479  0.0960 -0.1063 -0.2026
 5285TIP3    H137346   0.079   0.353  16.389 -0.0727  2.0382 -0.6369
 5285TIP3    H237347   0.128   0.379  16.530  0.1265  0.4492 -0.3860
 5286TIP3   OH237348   5.264   6.067   3.366 -0.5786 -0.5868  0.1244
 5286TIP3    H137349   5.302   6.141   3.412 -0.9540 -0.8064  0.7998
 5286TIP3    H237350   5.201   6.107   3.305 -1.4308 -0.3890  1.1119
 5287TIP3   OH237351   0.233   5.103  16.521  0.4435 -0.3218  0.3179
 5287TIP3    H137352   0.298   5.123  16.453  1.4464 -0.4203  1.2241
 5287TIP3    H237353   0.275   5.128  16.603 -0.3387 -1.1767  1.0082
 5288TIP3   OH237354   3.005   3.621   0.933 -0.0683 -0.0834  0.0921
 5288TIP3    H137355   3.019   3.687   0.866  0.0910  0.5568  0.7415
 5288TIP3    H237356   3.070   3.553   0.915  1.4672  1.1110  0.8811
 5289TIP3   OH237357   2.075   0.262   4.124  0.0704  0.4113  0.3750
 5289TIP3    H137358   2.104   0.333   4.180  1.8706  0.7481 -0.9237
 5289TIP3    H237359   2.153   0.234   4.077 -1.2978 -0.0237 -1.7791
 5290TIP3   OH237360   4.227   0.839  14.577 -0.2125  0.1264 -0.4718
 5290TIP3    H137361   4.238   0.812  14.486  1.3895 -2.8557  0.4854
 5290TIP3    H237362   4.138   0.812  14.600 -0.7787  1.2806 -1.2201
 5291TIP3   OH237363   2.873   3.290  15.881 -0.0203  0.2898 -0.0243
 5291TIP3    H137364   2.875   3.256  15.792 -1.4639 -0.0072  0.0246
 5291TIP3    H237365   2.787   3.330  15.890 -1.1722 -2.3090  2.1170
 5292TIP3   OH237366   2.639   0.147   0.485  0.4120 -0.3607  0.4320
 5292TIP3    H137367   2.720   0.159   0.533  0.8442 -1.2918 -0.0323
 5292TIP3    H237368   2.631   0.052   0.474 -0.1453 -0.2218 -0.5265
 5293TIP3   OH237369   1.871   3.327  14.847  0.2755 -0.3606  0.0634
 5293TIP3    H137370   1.835   3.399  14.898 -1.3695  0.0937 -1.6147
 5293TIP3    H237371   1.810   3.255  14.859  0.0935 -0.3805 -0.8643
 5294TIP3   OH237372   4.734   6.307   3.832  0.1985  0.1111 -0.2418
 5294TIP3    H137373   4.817   6.260   3.838 -0.1900 -0.8512 -1.8309
 5294TIP3    H237374   4.668   6.243   3.860 -0.0814  0.6901  0.4627
 5295TIP3   OH237375   5.963   3.009   3.962 -0.1115  0.3121 -0.3617
 5295TIP3    H137376   5.990   2.924   3.926  1.2461  0.5808 -0.0447
 5295TIP3    H237377   5.897   3.041   3.901 -0.2736 -0.7385 -0.7685
 5296TIP3   OH237378   1.651   1.947   1.102  0.2532  0.5146 -0.0733
 5296TIP3    H137379   1.706   1.920   1.176 -0.0889 -0.8844 -0.3012
 5296TIP3    H237380   1.711   1.990   1.042  0.6571  1.0966  0.7221
 5297TIP3   OH237381   3.926   6.571   0.347  0.2306 -0.1105 -0.3082
 5297TIP3    H137382   3.981   6.492   0.347  0.9871  0.3255  2.3363
 5297TIP3    H237383   3.847   6.544   0.299  0.7738 -2.2408 -0.1343
 5298TIP3   OH237384   3.053   6.497  13.947 -0.2176  0.7718 -0.0133
 5298TIP3    H137385   3.121   6.430  13.958 -0.7606  0.4496  1.8694
 5298TIP3    H237386   2.991   6.458  13.885  0.3528  0.2646 -0.2720
 5299TIP3   OH237387   1.021   5.185  11.574 -0.1271 -0.1274 -0.0008
 5299TIP3    H137388   1.022   5.248  11.646  1.6420  1.2872 -1.1721
 5299TIP3    H237389   1.026   5.238  11.495 -0.0893 -1.7008 -1.1030
 5300TIP3   OH237390   6.315   2.571  13.204  0.4692  0.5211  0.0239
 5300TIP3    H137391   6.409   2.558  13.218  0.4421 -1.2685 -1.2558
 5300TIP3    H237392   6.303   2.666  13.212  2.5248  0.8840 -0.6530
 5301TIP3   OH237393   1.914   0.503  11.470  0.1975 -0.5025  0.3745
 5301TIP3    H137394   1.823   0.509  11.443  0.7746 -1.5180 -2.0315
 5301TIP3    H237395   1.961   0.560  11.410  1.2455 -0.5733  1.0960
 5302TIP3   OH237396   0.461   2.592   4.143  0.1194  0.0521 -0.1383
 5302TIP3    H137397   0.377   2.619   4.107 -0.2498 -0.6651  0.1657
 5302TIP3    H237398   0.486   2.664   4.201  0.6576  1.1525 -1.6701
 5303TIP3   OH237399   6.425   0.566   0.923  0.4339  0.5311 -0.4114
 5303TIP3    H137400   6.332   0.581   0.938  0.8858  3.9128 -0.3641
 5303TIP3    H237401   6.428   0.518   0.840 -1.3371 -0.6731  0.1681
 5304TIP3   OH237402   2.832   3.606   4.341  0.0113 -0.6046  0.7908
 5304TIP3    H137403   2.799   3.538   4.401 -0.5875 -1.3359 -0.3197
 5304TIP3    H237404   2.779   3.683   4.360 -0.7676 -1.0892  0.6153
 5305TIP3   OH237405   1.148   1.579  11.778 -0.6665  0.4206 -0.3154
 5305TIP3    H137406   1.229   1.555  11.733  0.4313  1.2784  1.1270
 5305TIP3    H237407   1.102   1.496  11.789  0.0090 -0.0877 -1.1466
 5306TIP3   OH237408   0.957   4.479  14.571 -0.0185 -0.5083  0.3186
 5306TIP3    H137409   0.942   4.395  14.615 -1.6556 -0.5636 -0.2603
 5306TIP3    H237410   0.870   4.506  14.543  0.6581  0.7940 -0.5877
 5307TIP3   OH237411   0.654   0.645   6.033  0.6084  0.1107  0.3997
 5307TIP3    H137412   0.660   0.556   6.066  1.2608 -0.2235 -0.5741
 5307TIP3    H237413   0.638   0.699   6.110 -1.0232 -0.9716  0.8636
 5308TIP3   OH237414   0.461   4.648  13.001  0.6847 -0.1492 -0.5823
 5308TIP3    H137415   0.483   4.737  12.972  0.3037 -0.2135 -1.0911
 5308TIP3    H237416   0.481   4.647  13.094  1.6052  0.1843 -0.7603
 5309TIP3   OH237417   3.441   0.840  16.091 -0.0201  0.3169 -0.1674
 5309TIP3    H137418   3.510   0.838  16.157  0.7215  1.1541 -0.9066
 5309TIP3    H237419   3.362   0.866  16.139  0.3151  0.0346  0.5452
 5310TIP3   OH237420   3.163   2.990  13.586  0.0040  0.3374  0.1731
 5310TIP3    H137421   3.138   3.072  13.544  1.0821 -0.1310 -1.4490
 5310TIP3    H237422   3.248   3.009  13.627 -0.2168  0.2989  0.6580
 5311TIP3   OH237423   5.686   6.174   6.657 -0.7978 -0.1122 -0.6168
 5311TIP3    H137424   5.617   6.203   6.598 -0.6460 -0.5119 -0.9942
 5311TIP3    H237425   5.756   6.238   6.644 -1.1349  0.3524 -0.1560
 5312TIP3   OH237426   4.426   3.221   1.330  0.0792 -0.7656 -0.3623
 5312TIP3    H137427   4.486   3.189   1.262 -1.1415  0.4113 -2.0629
 5312TIP3    H237428   4.468   3.300   1.364  0.2455 -0.8421 -0.3873
 5313TIP3   OH237429   3.419   6.515   6.252  0.1200  0.1982 -0.0850
 5313TIP3    H137430   3.463   6.571   6.316 -0.1941  0.6015 -0.2182
 5313TIP3    H237431   3.487   6.456   6.220  0.2697 -0.0447  0.6605
 5314TIP3   OH237432   4.195   6.242  10.403 -0.0447  0.0869 -0.1952
 5314TIP3    H137433   4.191   6.324  10.354 -0.9971  0.8500  1.0744
 5314TIP3    H237434   4.206   6.174  10.337 -3.6388  0.8213 -1.7768
 5315TIP3   OH237435   2.613   2.254  11.620 -0.0597  0.5343 -0.2948
 5315TIP3    H137436   2.667   2.302  11.683 -0.4612  1.4528 -0.6392
 5315TIP3    H237437   2.579   2.321  11.562 -2.3779  0.1151  0.4857
 5316TIP3   OH237438   5.727   0.084   0.273 -0.5608 -0.1622 -0.3457
 5316TIP3    H137439   5.790   0.125   0.214 -2.0996  0.4051 -1.6516
 5316TIP3    H237440   5.705   0.152   0.336  0.3709 -0.4808  0.3583
 5317TIP3   OH237441   1.237   3.609  12.025  0.1088 -0.5049  0.4430
 5317TIP3    H137442   1.275   3.536  12.073  2.3179 -0.2690 -0.7771
 5317TIP3    H237443   1.300   3.680  12.036 -1.2470  0.7593  0.3650
 5318TIP3   OH237444   0.199   5.760   4.297  0.3514  0.2420  0.1701
 5318TIP3    H137445   0.162   5.690   4.243  2.3794 -2.2148  1.7092
 5318TIP3    H237446   0.143   5.762   4.374  1.2586 -0.9575  0.8918
 5319TIP3   OH237447   5.092   3.931   3.675  0.1683  0.2816 -0.1738
 5319TIP3    H137448   5.156   3.892   3.615 -0.5972  2.4879 -2.5810
 5319TIP3    H237449   5.010   3.887   3.655 -0.0658  0.9359 -0.6497
 5320TIP3   OH237450   1.740   4.214   0.828 -0.1311  0.1265  0.3960
 5320TIP3    H137451   1.829   4.215   0.865 -0.1520  0.9641  0.4345
 5320TIP3    H237452   1.698   4.139   0.870  0.8752 -0.9430 -0.4003
 5321TIP3   OH237453   2.693   3.431  13.065 -0.2369 -0.0824  0.0533
 5321TIP3    H137454   2.715   3.367  12.998 -1.8449  0.3717 -0.9693
 5321TIP3    H237455   2.776   3.452  13.107  0.9335  0.0091 -2.1671
 5322TIP3   OH237456   3.942   4.921   4.902 -0.3343  0.0551  0.0651
 5322TIP3    H137457   3.907   4.833   4.903 -0.3375  0.0608  1.0186
 5322TIP3    H237458   4.001   4.925   4.977  0.7898  0.4228 -0.7901
 5323TIP3   OH237459   2.920   3.524   1.331  0.1367 -0.3074  0.1792
 5323TIP3    H137460   3.008   3.500   1.302 -0.0279 -3.2281  1.6565
 5323TIP3    H237461   2.864   3.507   1.255  0.3072 -3.2817  0.5901
 5324TIP3   OH237462   3.401   2.866  16.310  0.2264 -0.0649 -0.3410
 5324TIP3    H137463   3.454   2.796  16.270  0.7060  0.0617  0.0618
 5324TIP3    H237464   3.352   2.903  16.237  0.2080 -0.6108 -0.6167
 5325TIP3   OH237465   6.282   6.719  16.610 -0.1640  0.0577  0.5523
 5325TIP3    H137466   6.191   6.701  16.633 -0.5773  0.4903 -0.6647
 5325TIP3    H237467   6.334   6.665  16.670 -1.2668 -3.3152 -1.3175
 5326TIP3   OH237468   4.703   1.617   5.330  0.2876  0.3437 -0.2626
 5326TIP3    H137469   4.750   1.659   5.258 -0.1435  0.2452 -0.6108
 5326TIP3    H237470   4.623   1.584   5.289 -0.0840  0.5142  0.3176
 5327TIP3   OH237471   3.483   4.180   2.003  0.3692  0.5299 -0.2665
 5327TIP3    H137472   3.532   4.252   2.041  1.8659 -0.7598  0.3596
 5327TIP3    H237473   3.397   4.184   2.045  0.9226  1.0663  0.8407
 5328TIP3   OH237474   6.249   4.840  14.421  0.0037  0.2908 -0.0970
 5328TIP3    H137475   6.309   4.767  14.437 -0.8246 -0.7737 -1.6265
 5328TIP3    H237476   6.207   4.855  14.505  1.6618  0.3886  0.7530
 5329TIP3   OH237477   1.521   6.460  11.951 -1.0000 -0.0398 -0.1463
 5329TIP3    H137478   1.574   6.382  11.971 -0.9788 -0.6063 -2.1690
 5329TIP3    H237479   1.514   6.506  12.034  2.3542 -0.1474  0.3639
 5330TIP3   OH237480   5.025   0.962  11.160  0.5253  0.0447  0.4011
 5330TIP3    H137481   4.980   1.039  11.193  0.7910  0.2328  0.3364
 5330TIP3    H237482   4.964   0.922  11.098  1.0568  1.2255 -0.9580
 5331TIP3   OH237483   0.069   0.996  11.790 -0.7525  0.4759 -0.3518
 5331TIP3    H137484   0.061   0.984  11.695  0.6033 -1.1443 -0.3078
 5331TIP3    H237485   0.024   0.921  11.828 -0.5320  0.6479  0.2702
 5332TIP3   OH237486   2.635   0.394   4.582 -0.2701  0.6459  0.1506
 5332TIP3    H137487   2.597   0.309   4.606  0.1905  0.3353 -0.1932
 5332TIP3    H237488   2.566   0.439   4.534  0.2797 -0.5391 -1.8505
 5333TIP3   OH237489   0.701   0.796   1.369 -0.7863 -0.3713  0.3302
 5333TIP3    H137490   0.772   0.764   1.314 -1.7526 -2.1399  0.0176
 5333TIP3    H237491   0.744   0.826   1.449  0.4679  0.4808 -0.6351
 5334TIP3   OH237492   5.863   1.507   3.074 -0.2578 -0.6257 -0.1557
 5334TIP3    H137493   5.952   1.531   3.048 -0.7687  2.2389  0.3426
 5334TIP3    H237494   5.811   1.519   2.995 -0.9557  2.9938  0.6595
 5335TIP3   OH237495   2.848   6.581  15.328 -0.3980  0.9419 -0.2405
 5335TIP3    H137496   2.855   6.517  15.400 -0.4879  1.4892  0.2619
 5335TIP3    H237497   2.938   6.609  15.312 -0.1281 -0.5795 -1.6499
 5336TIP3   OH237498   5.227   2.552   1.912  0.1125  0.6635  0.2372
 5336TIP3    H137499   5.143   2.570   1.953 -0.2182  0.6710 -0.4357
 5336TIP3    H237500   5.248   2.633   1.865 -0.1958  0.1779 -0.7673
 5337TIP3   OH237501   0.872   2.282   2.109 -0.0406  0.4121  0.0457
 5337TIP3    H137502   0.897   2.340   2.181 -0.6439  0.0624  0.5553
 5337TIP3    H237503   0.887   2.334   2.030 -0.3611  1.1884  0.4792
 5338TIP3   OH237504   1.443   3.971   1.992 -0.1822  0.6010 -0.0970
 5338TIP3    H137505   1.462   4.046   2.049  0.1920  0.0772  0.4758
 5338TIP3    H237506   1.381   3.918   2.042 -1.3798  1.1051 -0.9851
 5339TIP3   OH237507   2.725   6.342  14.633  0.0647  0.0426  0.0933
 5339TIP3    H137508   2.730   6.423  14.684 -0.6075 -0.2973  0.7224
 5339TIP3    H237509   2.730   6.272  14.699 -1.3499 -0.4049 -0.2226
 5340TIP3   OH237510   0.809   5.882  16.034  0.0957  0.9712 -0.4424
 5340TIP3    H137511   0.795   5.969  15.997  2.4564  0.8571 -1.7656
 5340TIP3    H237512   0.893   5.888  16.080 -0.2680 -0.3234  0.4671
 5341TIP3   OH237513   4.098   1.531  11.189  0.1429 -0.0273 -0.3037
 5341TIP3    H137514   4.155   1.457  11.208 -0.9828 -0.7904  0.1759
 5341TIP3    H237515   4.098   1.582  11.270  1.1367  0.6934 -0.7199
 5342TIP3   OH237516   0.652   2.049  12.975 -0.3898  0.3162 -0.0084
 5342TIP3    H137517   0.733   2.028  12.930 -1.3651 -1.9350 -0.8781
 5342TIP3    H237518   0.658   2.143  12.994  2.8131  0.0587  0.8635
 5343TIP3   OH237519   2.214   6.527  13.238 -0.2647 -0.3113 -1.1583
 5343TIP3    H137520   2.269   6.564  13.307  0.3614 -1.5596 -0.9541
 5343TIP3    H237521   2.235   6.579  13.161 -0.4822  0.6708 -0.5732
 5344TIP3   OH237522   1.925   1.690   0.354 -0.3246 -0.2657 -0.2919
 5344TIP3    H137523   1.967   1.629   0.414  0.6053  1.0947  0.4922
 5344TIP3    H237524   1.980   1.687   0.275  0.2748  0.2476  0.0990
 5345TIP3   OH237525   6.151   3.454  16.473  0.9343 -0.3657  0.2060
 5345TIP3    H137526   6.093   3.530  16.468 -0.6142 -1.4723  0.2898
 5345TIP3    H237527   6.204   3.458  16.394 -0.0684  0.0958 -0.4730
 5346TIP3   OH237528   1.154   5.814   1.926 -0.2503  0.0694 -0.1962
 5346TIP3    H137529   1.240   5.844   1.897  0.2386 -0.6827  0.4431
 5346TIP3    H237530   1.172   5.749   1.994 -1.2615 -1.5814 -1.4304
 5347TIP3   OH237531   6.273   6.504   4.411 -0.3838 -0.1826 -0.4839
 5347TIP3    H137532   6.209   6.573   4.398 -2.9368 -2.1626  0.6627
 5347TIP3    H237533   6.317   6.496   4.326 -2.0467  0.8928 -1.5076
 5348TIP3   OH237534   1.177   1.357  12.783  0.1537 -0.2270  0.0703
 5348TIP3    H137535   1.128   1.303  12.720 -1.5883 -0.4984  1.5651
 5348TIP3    H237536   1.114   1.422  12.812  1.7679  1.6874 -0.5119
 5349TIP3   OH237537   5.179   4.776   4.259 -0.3856  0.1106 -0.5787
 5349TIP3    H137538   5.266   4.745   4.285 -0.7620 -1.3686 -1.0340
 5349TIP3    H237539   5.158   4.843   4.323  0.4755 -0.5420  0.4148
 5350TIP3   OH237540   5.685   3.232   2.838  0.4929 -0.2737 -0.2779
 5350TIP3    H137541   5.596   3.195   2.838  0.7585 -0.9646 -0.9869
 5350TIP3    H237542   5.679   3.310   2.892 -1.0367  0.8384 -1.9226
 5351TIP3   OH237543   4.792   5.459   4.811 -0.1168  0.2521  0.3896
 5351TIP3    H137544   4.844   5.435   4.734 -1.3668  0.1537 -0.4517
 5351TIP3    H237545   4.819   5.398   4.879 -0.5370 -1.0982 -0.6163
 5352TIP3   OH237546   4.700   2.653   5.678 -0.1697 -0.2344  0.2171
 5352TIP3    H137547   4.659   2.739   5.672 -1.7513 -1.0568 -2.1425
 5352TIP3    H237548   4.777   2.659   5.621 -0.8480 -0.6193 -0.7768
 5353TIP3   OH237549   2.705   3.868   2.436  0.4750 -0.0419  0.5181
 5353TIP3    H137550   2.689   3.794   2.377  1.0585 -0.5141  0.9521
 5353TIP3    H237551   2.701   3.831   2.524 -3.4174  1.1354  1.0581
 5354TIP3   OH237552   1.942   2.286  14.583 -0.1607  0.3141 -0.0448
 5354TIP3    H137553   1.892   2.315  14.506 -0.6188  1.0666  0.5193
 5354TIP3    H237554   2.032   2.310  14.563 -0.4647  1.7918  0.2095
 5355TIP3   OH237555   0.878   0.066   4.100 -0.0299 -0.2092 -0.5790
 5355TIP3    H137556   0.887   0.160   4.112 -0.8248  0.0636 -1.8409
 5355TIP3    H237557   0.957   0.040   4.052 -0.2660  0.0114 -1.1018
 5356TIP3   OH237558   5.413   0.636   3.264 -0.7158  0.1010 -0.2258
 5356TIP3    H137559   5.426   0.648   3.358 -0.2357 -0.8553 -0.1581
 5356TIP3    H237560   5.405   0.541   3.253 -0.7971  0.2078 -1.1481
 5357TIP3   OH237561   2.176   5.784   4.532 -0.1705  0.2575  0.0671
 5357TIP3    H137562   2.170   5.688   4.535  1.8585  0.0650  4.0532
 5357TIP3    H237563   2.145   5.807   4.444 -0.1343 -4.0620 -1.3076
 5358TIP3   OH237564   2.251   4.831  11.769 -0.5214 -0.2784  0.5170
 5358TIP3    H137565   2.295   4.852  11.687  2.2857 -3.5290  0.9687
 5358TIP3    H237566   2.311   4.862  11.837 -1.2783 -0.4909  1.3054
 5359TIP3   OH237567   4.930   3.859  10.464  0.4119 -0.1824 -0.4966
 5359TIP3    H137568   4.851   3.832  10.511  0.3668  0.1659 -0.3654
 5359TIP3    H237569   4.947   3.789  10.401 -1.1894  0.6696 -1.9734
 5360TIP3   OH237570   3.101   4.737   1.868  0.6288 -0.2925  0.0541
 5360TIP3    H137571   3.166   4.785   1.818  1.6926 -1.8964 -0.1835
 5360TIP3    H237572   3.125   4.645   1.856 -1.5995 -0.9279  0.1015
 5361TIP3   OH237573   6.424   2.852   0.112 -0.0489  0.2200  0.3543
 5361TIP3    H137574   6.484   2.917   0.148 -1.8163  2.7726 -0.9897
 5361TIP3    H237575   6.441   2.852   0.018 -2.2889  1.3446 -0.1309
 5362TIP3   OH237576   6.363   0.302  13.041 -0.7105 -0.0060 -0.2930
 5362TIP3    H137577   6.278   0.265  13.019  0.6242 -1.6986 -3.3151
 5362TIP3    H237578   6.398   0.244  13.109 -1.5054  0.0208  0.1437
 5363TIP3   OH237579   6.710   1.109  13.634  0.6664 -0.2123 -0.4279
 5363TIP3    H137580   6.631   1.068  13.671  0.8591 -0.4098 -0.2314
 5363TIP3    H237581   6.774   1.105  13.705  1.0838 -0.7160 -0.8288
 5364TIP3   OH237582   1.157   6.215   5.432  0.2328  1.1736 -0.5129
 5364TIP3    H137583   1.208   6.205   5.512 -1.4922  1.0251  0.6311
 5364TIP3    H237584   1.131   6.307   5.432 -0.9146  0.8676 -0.1390
 5365TIP3   OH237585   5.506   2.234  14.836 -0.0389  0.5976  0.4371
 5365TIP3    H137586   5.528   2.326  14.852  0.1653  0.7856 -0.8250
 5365TIP3    H237587   5.587   2.186  14.854  0.4306  0.8964 -0.7788
 5366TIP3   OH237588   1.601   1.667  12.192 -0.2206 -0.3765 -0.6023
 5366TIP3    H137589   1.669   1.734  12.199  1.8388 -2.1918 -1.9533
 5366TIP3    H237590   1.647   1.585  12.207 -1.7024 -1.8446 -3.3579
 5367TIP3   OH237591   4.906   1.372   0.330  0.1718  0.0347 -0.0328
 5367TIP3    H137592   4.911   1.293   0.277 -1.7608  0.5352 -1.0615
 5367TIP3    H237593   4.852   1.347   0.405  0.6215  0.0479  0.2969
 5368TIP3   OH237594   4.749   6.595  12.919  0.3639  0.3825  0.1902
 5368TIP3    H137595   4.745   6.652  12.842 -2.0110  2.1565  1.4960
 5368TIP3    H237596   4.842   6.592  12.942  1.0666  0.2915 -2.3353
 5369TIP3   OH237597   2.741   5.261   5.570 -0.1546  0.0556  0.0320
 5369TIP3    H137598   2.795   5.340   5.573 -0.0367  0.0051 -0.6401
 5369TIP3    H237599   2.798   5.191   5.601 -0.0246  0.1108 -0.0795
 5370TIP3   OH237600   1.988   0.107  11.686 -0.4282 -0.3551 -0.2912
 5370TIP3    H137601   2.011   0.198  11.706 -1.2862  0.3076 -2.1099
 5370TIP3    H237602   2.072   0.065  11.667 -0.1687  0.7196 -1.7812
 5371TIP3   OH237603   1.820   0.349   3.177  0.1201  0.2650 -0.4242
 5371TIP3    H137604   1.811   0.440   3.204 -0.1933 -0.0354  0.5191
 5371TIP3    H237605   1.732   0.323   3.151  0.0372 -0.0066  0.1111
 5372TIP3   OH237606   1.810   4.756  13.534 -0.1786 -0.2550 -0.3614
 5372TIP3    H137607   1.788   4.826  13.596  1.2503  0.4099 -0.5576
 5372TIP3    H237608   1.900   4.777  13.506 -0.1697 -1.5125 -1.3322
 5373TIP3   OH237609   1.794   2.337  15.800  0.3973  0.4424 -0.1850
 5373TIP3    H137610   1.718   2.393  15.814 -0.2246 -0.5910  0.7105
 5373TIP3    H237611   1.863   2.379  15.853 -0.8597 -1.1761  3.0120
 5374TIP3   OH237612   6.022   0.509  16.996  0.3105 -0.5981  0.3634
 5374TIP3    H137613   6.105   0.477  16.961  1.3762 -0.4229  2.5550
 5374TIP3    H237614   6.041   0.598  17.026 -0.1791 -1.0849  2.3051
 5375TIP3   OH237615   1.221   5.909  14.647 -0.2067  0.6373  0.5628
 5375TIP3    H137616   1.213   5.869  14.560 -1.4812  1.5895  0.2271
 5375TIP3    H237617   1.194   5.840  14.707  1.2532 -0.2340  0.2892
 5376TIP3   OH237618   3.970   3.747  14.616 -0.1856  0.5253 -0.0141
 5376TIP3    H137619   3.906   3.688  14.656 -1.4272 -0.0923 -2.7022
 5376TIP3    H237620   3.964   3.828  14.666 -0.0572 -0.8385  2.3535
 5377TIP3   OH237621   6.218   3.885  14.850  0.2025 -0.2927 -0.2940
 5377TIP3    H137622   6.247   3.897  14.940  0.8105 -0.5023 -0.4542
 5377TIP3    H237623   6.281   3.823  14.813 -1.3857 -2.0478 -0.1990
 5378TIP3   OH237624   4.915   1.747   0.497 -0.1640 -0.3839  0.8613
 5378TIP3    H137625   5.006   1.751   0.526  0.3589 -0.8823 -0.6329
 5378TIP3    H237626   4.918   1.769   0.404 -1.6180 -0.1111  0.8519
 5379TIP3   OH237627   2.833   4.506  14.351  0.0234  0.0793 -0.0176
 5379TIP3    H137628   2.765   4.473  14.292 -0.7144  2.4768 -0.6332
 5379TIP3    H237629   2.910   4.515  14.295 -0.1037  0.4383 -0.1406
 5380TIP3   OH237630   1.954   6.333   0.943 -0.2935 -0.4798 -0.3459
 5380TIP3    H137631   1.893   6.340   1.016  0.4414 -0.7081  0.3052
 5380TIP3    H237632   1.900   6.308   0.868 -1.1012  0.0595  0.0484
 5381TIP3   OH237633   3.566   1.841   2.197 -0.4071 -0.1886 -0.9900
 5381TIP3    H137634   3.544   1.795   2.117 -1.0052  0.3421 -1.1434
 5381TIP3    H237635   3.626   1.911   2.169  0.0139 -0.4915 -0.8519
 5382TIP3   OH237636   4.254   6.070   5.470  0.1059  0.7220 -0.9971
 5382TIP3    H137637   4.221   6.040   5.385 -0.3197  0.3792 -0.7135
 5382TIP3    H237638   4.328   6.013   5.489  1.3221  1.9181 -1.9456
 5383TIP3   OH237639   3.924   0.649  11.794 -0.2988  0.0329  0.0816
 5383TIP3    H137640   3.914   0.667  11.701 -1.1074  1.8013  0.4646
 5383TIP3    H237641   4.013   0.677  11.815 -1.5102  4.1989  0.6610
 5384TIP3   OH237642   1.487   4.580   4.119 -0.3854 -0.0401  0.3738
 5384TIP3    H137643   1.543   4.505   4.097 -1.0204 -0.5405  0.4197
 5384TIP3    H237644   1.461   4.564   4.210 -0.7559  0.0882  0.2918
 5385TIP3   OH237645   4.703   3.351  15.639 -0.7604  0.7819  0.7263
 5385TIP3    H137646   4.774   3.376  15.698  0.9438  0.2907 -0.9801
 5385TIP3    H237647   4.683   3.430  15.589  0.2071  0.3942 -0.3278
 5386TIP3   OH237648   6.262   1.125  12.796 -0.2690 -0.2750  0.5840
 5386TIP3    H137649   6.205   1.094  12.867 -1.8627  0.7588 -0.1914
 5386TIP3    H237650   6.235   1.074  12.720  0.7509 -0.6754  0.4821
 5387TIP3   OH237651   5.469   0.524   2.533  0.2278 -0.6287  0.2628
 5387TIP3    H137652   5.469   0.442   2.484  0.4917  0.4514 -1.6200
 5387TIP3    H237653   5.557   0.529   2.571  3.4412  2.2861 -6.0391
 5388TIP3   OH237654   0.501   2.220   5.886 -0.0872 -0.5857 -0.0273
 5388TIP3    H137655   0.588   2.259   5.886 -0.5071  0.4351 -1.3019
 5388TIP3    H237656   0.498   2.167   5.807  0.0877 -2.3760  1.1167
 5389TIP3   OH237657   5.712   2.104   5.115 -0.4847  0.3886  0.0661
 5389TIP3    H137658   5.729   2.014   5.143 -0.3250  0.7796  1.3111
 5389TIP3    H237659   5.781   2.156   5.158 -0.9123  1.1669 -0.1616
 5390TIP3   OH237660   4.162   6.699  13.629  0.0969  0.2810  0.4374
 5390TIP3    H137661   4.155   6.604  13.639 -0.8592  0.0802 -1.6496
 5390TIP3    H237662   4.255   6.714  13.613 -0.1103 -0.6903 -2.0829
 5391TIP3   OH237663   2.195   2.390  16.308 -0.1377  0.5896  0.1731
 5391TIP3    H137664   2.260   2.328  16.341  0.6116  0.2215 -1.8603
 5391TIP3    H237665   2.127   2.392  16.375  2.0452  1.1688  2.5427
 5392TIP3   OH237666   1.339   4.700   4.600 -0.4445 -0.1832 -0.2037
 5392TIP3    H137667   1.346   4.642   4.524 -1.2451  0.1973 -0.5835
 5392TIP3    H237668   1.335   4.641   4.675 -1.2323 -0.6330 -0.5862
 5393TIP3   OH237669   6.132   5.822   5.059 -0.2889  0.4623  0.2978
 5393TIP3    H137670   6.117   5.728   5.057 -0.1201  0.4398 -0.5675
 5393TIP3    H237671   6.188   5.836   5.135  0.1299 -0.2108  0.1224
 5394TIP3   OH237672   4.158   3.853   5.278 -0.4405  0.0991 -0.1241
 5394TIP3    H137673   4.185   3.943   5.295  0.9857 -0.5440  1.3309
 5394TIP3    H237674   4.064   3.858   5.261 -0.4546  1.8062  0.3261
 5395TIP3   OH237675   6.294   5.991   0.260 -0.4133  0.3850  0.4498
 5395TIP3    H137676   6.238   5.930   0.308 -1.1521  2.0538  1.8280
 5395TIP3    H237677   6.362   6.015   0.323  0.6217  0.0194 -0.5064
 5396TIP3   OH237678   6.210   5.112  14.922  0.4137 -0.2090 -0.1763
 5396TIP3    H137679   6.129   5.068  14.946  1.0611 -1.0141  0.6098
 5396TIP3    H237680   6.191   5.205  14.930  0.4016 -0.4010  2.9381
 5397TIP3   OH237681   6.412   4.464  16.121 -0.2681 -0.2865  0.3696
 5397TIP3    H137682   6.420   4.368  16.121 -0.1329 -0.2892 -0.9364
 5397TIP3    H237683   6.466   4.492  16.195 -0.6883 -1.2375  1.0616
 5398TIP3   OH237684   6.721   0.681  12.500  0.1546  0.2707  0.0982
 5398TIP3    H137685   6.702   0.681  12.594  0.8915 -0.5392  0.2554
 5398TIP3    H237686   6.734   0.774  12.479  3.3522  0.2803  1.5268
 5399TIP3   OH237687   2.649   3.215  15.084 -0.4611  0.1256 -0.1795
 5399TIP3    H137688   2.647   3.209  14.988 -0.5440  0.5621 -0.2065
 5399TIP3    H237689   2.650   3.309  15.102  0.9305  0.0571  0.2208
 5400TIP3   OH237690   5.657   4.375  16.626 -0.1241  0.3053  0.4449
 5400TIP3    H137691   5.568   4.386  16.592 -0.1190  0.9127  0.6133
 5400TIP3    H237692   5.653   4.295  16.678 -0.3852 -0.0811 -0.1504
 5401TIP3   OH237693   0.093   2.613  15.564  0.8600  0.1383  0.2410
 5401TIP3    H137694   0.155   2.597  15.635 -1.3148 -0.6318  2.1239
 5401TIP3    H237695   0.012   2.570  15.593  0.0116 -0.7873 -3.0333
 5402TIP3   OH237696   2.647   0.133   0.203 -0.5825  0.1832 -0.4112
 5402TIP3    H137697   2.649   0.155   0.297 -0.8047  1.6148 -0.7109
 5402TIP3    H237698   2.558   0.155   0.175 -0.8476 -1.2604 -0.7505
 5403TIP3   OH237699   3.870   5.858  17.239 -0.1631  0.2549 -0.0869
 5403TIP3    H137700   3.878   5.766  17.264  1.8221  0.3176 -0.2766
 5403TIP3    H237701   3.797   5.861  17.179  0.8270 -1.5398 -1.4737
 5404TIP3   OH237702   1.936   1.831  15.109  0.2473  0.0622  0.2131
 5404TIP3    H137703   2.004   1.766  15.089  0.9927  0.2100  2.0442
 5404TIP3    H237704   1.893   1.847  15.025  0.2564 -2.5180 -0.3859
 5405TIP3   OH237705   3.622   0.228   1.861 -0.3188 -0.3370 -0.2525
 5405TIP3    H137706   3.684   0.156   1.847 -0.7236 -0.8785  0.6502
 5405TIP3    H237707   3.669   0.306   1.831 -0.4091 -1.1308 -2.6636
 5406TIP3   OH237708   1.321   6.042   5.133 -0.4229 -0.3705  0.3935
 5406TIP3    H137709   1.328   5.971   5.069 -2.4875 -2.0175  1.8374
 5406TIP3    H237710   1.244   6.019   5.186 -1.4376  3.1692  0.7029
 5407TIP3   OH237711   2.807   1.062  13.432 -0.2130  0.1401  0.1022
 5407TIP3    H137712   2.793   1.010  13.511  0.7922 -0.1825  0.0740
 5407TIP3    H237713   2.862   1.135  13.459 -0.6530  0.5606 -0.1094
 5408TIP3   OH237714   0.180   5.359  14.388  0.5042 -0.0493  0.5573
 5408TIP3    H137715   0.148   5.269  14.394 -0.6270  0.2312 -0.7765
 5408TIP3    H237716   0.154   5.400  14.470 -1.1167 -0.2987  0.1959
 5409TIP3   OH237717   2.543   5.259  11.246  0.5589  0.1080 -0.1052
 5409TIP3    H137718   2.588   5.337  11.278 -0.3927  0.2476  0.9765
 5409TIP3    H237719   2.553   5.263  11.151  3.1789 -0.1214  0.0879
 5410TIP3   OH237720   3.169   5.306  14.255 -0.0780  0.3215 -0.1347
 5410TIP3    H137721   3.263   5.308  14.275  0.2871 -0.8090 -1.5384
 5410TIP3    H237722   3.156   5.221  14.213 -1.7369  0.4714  0.0394
 5411TIP3   OH237723   4.771   0.263   1.692 -0.5934  0.8754  0.1712
 5411TIP3    H137724   4.788   0.169   1.705 -0.6390  1.0680  1.8492
 5411TIP3    H237725   4.855   0.298   1.663  0.5086  0.8702  3.0187
 5412TIP3   OH237726   3.769   0.091   2.883  0.4911 -0.0648 -0.0157
 5412TIP3    H137727   3.687   0.141   2.878 -1.7803 -3.5508 -2.2142
 5412TIP3    H237728   3.822   0.125   2.811 -1.0356 -0.7051 -1.5221
 5413TIP3   OH237729   6.152   4.890  11.110 -0.3867 -0.3383  0.3786
 5413TIP3    H137730   6.247   4.899  11.105 -0.5841  1.7104 -2.5036
 5413TIP3    H237731   6.132   4.896  11.203  2.2281  0.4811  0.9762
 5414TIP3   OH237732   1.196   1.950   1.679 -0.2823  0.3278  0.8023
 5414TIP3    H137733   1.267   2.014   1.688  0.2259 -0.1781  0.4161
 5414TIP3    H237734   1.206   1.893   1.756  1.7343 -1.6944 -0.8401
 5415TIP3   OH237735   5.608   4.108  16.426 -0.2185  0.2252  0.6768
 5415TIP3    H137736   5.520   4.122  16.463  0.2908  0.7941  1.7267
 5415TIP3    H237737   5.629   4.190  16.381  0.6526  0.9715  2.3505
 5416TIP3   OH237738   4.738   0.221  13.038 -0.3396  0.4165  0.6128
 5416TIP3    H137739   4.809   0.166  13.006 -0.3975 -0.0488  1.2577
 5416TIP3    H237740   4.688   0.244  12.960  0.5183  0.7639  0.1562
 5417TIP3   OH237741   3.732   2.097   2.580 -0.1508  0.1591  0.4123
 5417TIP3    H137742   3.728   2.141   2.665 -1.2016  0.4448  0.2401
 5417TIP3    H237743   3.700   2.009   2.597 -0.2035  0.1653  0.3464
 5418TIP3   OH237744   3.242   1.460   4.352  0.3545  0.3326  0.1935
 5418TIP3    H137745   3.316   1.476   4.293 -0.1481  0.1476 -0.4958
 5418TIP3    H237746   3.226   1.366   4.344 -1.1814  0.6732 -1.1410
 5419TIP3   OH237747   3.937   6.252  11.912 -0.5795  0.0752  0.3675
 5419TIP3    H137748   3.890   6.323  11.956  0.1293  0.4303  0.5609
 5419TIP3    H237749   3.916   6.263  11.819  1.3187  1.9592  0.0797
 5420TIP3   OH237750   3.474   3.141  14.937  0.7981  0.0024 -0.5314
 5420TIP3    H137751   3.415   3.074  14.972  2.0508 -0.2174  1.2689
 5420TIP3    H237752   3.417   3.217  14.924 -0.1065 -0.5234  0.1367
 5421TIP3   OH237753   0.690   5.558   2.878  0.1544 -0.3478  0.0513
 5421TIP3    H137754   0.606   5.569   2.923  0.4669  0.7048  0.4160
 5421TIP3    H237755   0.748   5.521   2.945  0.2315 -0.1579  0.0910
 5422TIP3   OH237756   1.478   0.171  14.011  0.5104 -0.1459 -0.4394
 5422TIP3    H137757   1.457   0.079  14.000  0.8225 -0.1290 -1.1971
 5422TIP3    H237758   1.458   0.211  13.927  3.3502 -0.1001 -1.2152
 5423TIP3   OH237759   1.290   2.408   4.341  0.3454  0.3864  0.0781
 5423TIP3    H137760   1.346   2.463   4.396  0.2649  1.3932 -0.8185
 5423TIP3    H237761   1.208   2.403   4.390  1.2132 -1.2318  1.4779
 5424TIP3   OH237762   5.705   0.518   2.645 -0.0617  0.0561  0.6005
 5424TIP3    H137763   5.716   0.598   2.695 -0.2626  0.2551  0.3272
 5424TIP3    H237764   5.745   0.450   2.700 -0.4032  0.2490  1.0888
 5425TIP3   OH237765   5.742   3.206  15.199 -0.0049  0.3736 -0.0203
 5425TIP3    H137766   5.660   3.201  15.149 -0.3537 -0.2637  0.5989
 5425TIP3    H237767   5.808   3.170  15.140  0.0789  1.9895 -0.9903
 5426TIP3   OH237768   6.542   6.537   6.365 -0.6548 -0.1335  0.0275
 5426TIP3    H137769   6.606   6.493   6.422  0.5564  0.4634 -0.8152
 5426TIP3    H237770   6.537   6.626   6.400 -1.1895 -0.2386  0.2165
 5427TIP3   OH237771   3.771   4.634  12.712  0.2470  0.3254 -0.0986
 5427TIP3    H137772   3.841   4.573  12.737  0.3071  0.5756  0.3351
 5427TIP3    H237773   3.803   4.676  12.632  0.0686 -0.4442 -0.5904
 5428TIP3   OH237774   0.027   4.898   0.892 -0.4854  0.1049 -0.0585
 5428TIP3    H137775  -0.049   4.951   0.917  0.5249  1.4256  0.3219
 5428TIP3    H237776   0.035   4.910   0.798 -0.6784  0.0421 -0.0838
 5429TIP3   OH237777   0.378   2.218   4.653 -0.2310  0.1324  0.7089
 5429TIP3    H137778   0.463   2.258   4.633 -0.3856  2.2100  3.5215
 5429TIP3    H237779   0.314   2.287   4.638 -1.0165 -0.3515  1.6717
 5430TIP3   OH237780   4.532   1.505  14.937  0.7654  0.1128 -0.1424
 5430TIP3    H137781   4.548   1.465  15.022 -0.5640  1.1538  0.6485
 5430TIP3    H237782   4.614   1.548  14.914  0.5397  1.6292  1.6695
 5431TIP3   OH237783   6.550   2.646   4.183  0.5324 -0.4041 -0.0090
 5431TIP3    H137784   6.479   2.581   4.181  0.1047  0.0677 -0.4597
 5431TIP3    H237785   6.584   2.640   4.272 -2.0706  1.4192  1.2586
 5432TIP3   OH237786   1.179   5.687   5.300  0.1803 -0.7856  0.0957
 5432TIP3    H137787   1.170   5.780   5.323 -1.2019 -1.0507  0.7405
 5432TIP3    H237788   1.272   5.669   5.312  0.7425  0.8269 -1.3617
 5433TIP3   OH237789   1.523   4.133   0.063  0.9825  0.2396 -0.0337
 5433TIP3    H137790   1.453   4.103   0.005 -0.4784 -2.2709  2.7598
 5433TIP3    H237791   1.600   4.085   0.034 -0.2125 -2.6782  1.2420
 5434TIP3   OH237792   1.702   3.354  11.843 -0.2114  0.7169 -0.1408
 5434TIP3    H137793   1.793   3.332  11.863 -0.8664 -1.6835  0.5417
 5434TIP3    H237794   1.705   3.389  11.754  1.3131  0.1787 -0.3352
 5435TIP3   OH237795   4.034   0.523   2.628 -0.1881  0.3096 -0.1950
 5435TIP3    H137796   4.052   0.570   2.547 -0.5083 -0.8721 -0.9704
 5435TIP3    H237797   4.032   0.591   2.695  1.3714  1.1646 -0.9592
 5436TIP3   OH237798   6.511   6.096   4.658  0.0620  0.0653  0.1800
 5436TIP3    H137799   6.476   6.158   4.593 -0.5431 -0.8822 -0.4242
 5436TIP3    H237800   6.605   6.092   4.638 -0.2059 -0.6723 -1.0739
 5437TIP3   OH237801   6.216   2.856  15.208  0.3433 -0.2816 -0.0871
 5437TIP3    H137802   6.164   2.830  15.132 -0.5861  1.2641 -0.0308
 5437TIP3    H237803   6.300   2.882  15.172  0.6397 -1.5527 -0.3360
 5438TIP3   OH237804   4.427   1.229   4.403  0.0998  0.3683 -0.1567
 5438TIP3    H137805   4.420   1.277   4.485 -0.5995  1.7402 -0.9743
 5438TIP3    H237806   4.342   1.186   4.393  0.5953 -0.7788  0.3915
 5439TIP3   OH237807   3.482   0.739   1.343 -0.9095  0.2242  0.8884
 5439TIP3    H137808   3.559   0.706   1.297 -0.8098 -0.5986  1.6318
 5439TIP3    H237809   3.452   0.812   1.289 -0.8427 -0.7599 -0.5570
 5440TIP3   OH237810   6.405   5.640   3.657  0.1561 -0.3635  0.4659
 5440TIP3    H137811   6.499   5.644   3.674  0.3209 -0.8570 -0.2999
 5440TIP3    H237812   6.369   5.593   3.733  0.4189  0.4548  1.1145
 5441TIP3   OH237813   3.650   3.780   1.269 -0.0570 -0.2775 -0.0248
 5441TIP3    H137814   3.698   3.771   1.352 -0.0238  2.7757  0.3863
 5441TIP3    H237815   3.686   3.859   1.229 -1.9217 -0.2248 -1.7221
 5442TIP3   OH237816   0.774   2.002   2.652 -0.2290  0.0472 -0.1598
 5442TIP3    H137817   0.766   1.915   2.690 -0.8476  1.0275  2.1555
 5442TIP3    H237818   0.751   1.990   2.559  1.6857 -2.5417 -0.4208
 5443TIP3   OH237819   5.688   4.031  15.021  0.3803  0.4502 -0.3938
 5443TIP3    H137820   5.760   4.094  15.018  0.9078 -0.1642 -1.1392
 5443TIP3    H237821   5.688   3.990  14.935 -0.3921 -0.0852 -0.1547
 5444TIP3   OH237822   2.337   0.051   0.096 -0.0269  0.5167 -0.5242
 5444TIP3    H137823   2.290   0.127   0.130  1.1175  1.1921 -0.3762
 5444TIP3    H237824   2.353   0.072   0.004  0.9339  0.8074 -0.3022
 5445TIP3   OH237825   1.662   5.224  14.263 -0.1258  0.4728  0.4160
 5445TIP3    H137826   1.616   5.301  14.229 -0.4330 -0.0514 -0.3837
 5445TIP3    H237827   1.650   5.158  14.195 -0.3707 -0.4690  1.3606
 5446TIP3   OH237828   0.873   2.609  12.090  0.4381  0.1497 -0.0840
 5446TIP3    H137829   0.897   2.542  12.026  1.3149  1.0252 -0.7068
 5446TIP3    H237830   0.840   2.682  12.037  2.0389  1.2499  0.3464
 5447TIP3   OH237831   4.579   3.084   1.147  0.3482 -0.0179  0.2471
 5447TIP3    H137832   4.536   3.011   1.193 -1.7860  0.6276 -0.6134
 5447TIP3    H237833   4.665   3.049   1.122 -0.4831 -2.1342  0.1618
 5448TIP3   OH237834   6.015   4.984   0.409  0.3899  0.5255  0.1975
 5448TIP3    H137835   5.944   4.942   0.457  0.1869  1.2095  0.5082
 5448TIP3    H237836   6.056   5.043   0.473 -0.2125  1.8442 -0.5720
 5449TIP3   OH237837   6.345   0.203   3.551  0.0117 -0.1447  0.4700
 5449TIP3    H137838   6.423   0.239   3.509  0.3599 -0.7824  0.5608
 5449TIP3    H237839   6.378   0.155   3.627 -0.6451  1.3778  1.7688
 5450TIP3   OH237840   2.820   4.006   2.132  0.0400 -0.1396  0.4391
 5450TIP3    H137841   2.793   4.090   2.168  0.7386  0.4954 -0.4792
 5450TIP3    H237842   2.890   3.976   2.191  1.9851  1.4415 -0.9588
 5451TIP3   OH237843   1.088   1.627   0.262  0.2493  0.0169 -0.0410
 5451TIP3    H137844   1.167   1.575   0.245 -0.2561 -1.1031  0.8983
 5451TIP3    H237845   1.107   1.673   0.344 -1.5125 -3.5235  2.6519
 5452TIP3   OH237846   6.516   6.427  15.600  0.4742  0.3298 -0.1868
 5452TIP3    H137847   6.446   6.447  15.539  1.3566  0.5132 -1.1696
 5452TIP3    H237848   6.513   6.497  15.664 -1.1906 -0.4721  0.6701
 5453TIP3   OH237849   6.331   1.239   1.725  0.3595  0.0400  0.2677
 5453TIP3    H137850   6.295   1.163   1.772  0.0701 -0.6933 -1.0614
 5453TIP3    H237851   6.418   1.211   1.698 -0.0663 -0.2000 -0.9729
 5454TIP3   OH237852   4.532   2.804  15.580 -0.0857 -0.5092  0.6780
 5454TIP3    H137853   4.486   2.883  15.610 -0.3664 -0.3292 -0.1916
 5454TIP3    H237854   4.585   2.777  15.655  1.4081  1.5384  0.4718
 5455TIP3   OH237855   0.139   0.524  16.788  0.1149  0.3419 -0.2150
 5455TIP3    H137856   0.070   0.470  16.826  0.5380 -0.4091 -0.5117
 5455TIP3    H237857   0.199   0.462  16.748  1.1236  0.9713  0.2870
 5456TIP3   OH237858   1.865   3.129  13.690 -0.1212 -0.5884  0.1111
 5456TIP3    H137859   1.795   3.195  13.696 -0.1699 -0.5943 -0.3456
 5456TIP3    H237860   1.911   3.151  13.608  0.0601 -0.9278  0.1223
 5457TIP3   OH237861   5.194   6.100   0.542  0.5498 -0.2016 -0.7003
 5457TIP3    H137862   5.265   6.163   0.537  1.2098 -0.7677  0.8759
 5457TIP3    H237863   5.146   6.112   0.460 -0.6624  3.8692  0.3527
 5458TIP3   OH237864   0.982   3.132  12.695  0.5042 -0.8051 -0.0079
 5458TIP3    H137865   0.966   3.114  12.602  0.2211 -0.4679 -0.0303
 5458TIP3    H237866   0.994   3.227  12.698  0.7749 -0.8502  0.2638
 5459TIP3   OH237867   3.289   4.132   5.343  0.5232  0.2182 -0.0255
 5459TIP3    H137868   3.267   4.208   5.398 -1.4836  0.5263 -1.1441
 5459TIP3    H237869   3.256   4.057   5.393 -1.0887  0.4768 -0.6489
 5460TIP3   OH237870   5.376   1.753  12.534  0.2455  0.3617 -0.0315
 5460TIP3    H137871   5.288   1.741  12.498  0.5801  0.3133 -0.8556
 5460TIP3    H237872   5.414   1.665  12.535  0.8328  0.5743 -1.1679
 5461TIP3   OH237873   3.798   2.322  11.744  0.3292  0.6919 -0.3661
 5461TIP3    H137874   3.825   2.265  11.672  0.0305  0.2282 -0.1142
 5461TIP3    H237875   3.864   2.309  11.812 -0.7370 -0.8010  0.4359
 5462TIP3   OH237876   2.585   2.976   5.239  0.6319 -0.3832  0.4178
 5462TIP3    H137877   2.623   3.036   5.303  0.3011 -0.9228  1.1415
 5462TIP3    H237878   2.658   2.951   5.183  0.6833  1.0349 -0.1792
 5463TIP3   OH237879   5.004   2.804  13.046 -0.6961 -0.0152  0.0211
 5463TIP3    H137880   4.997   2.882  12.992 -0.9487 -0.2161 -0.2429
 5463TIP3    H237881   5.064   2.828  13.116  1.8988 -0.5966 -1.8462
 5464TIP3   OH237882   5.645   4.342   3.264  0.6091 -0.1540 -0.3872
 5464TIP3    H137883   5.576   4.303   3.211  2.4200 -2.1930 -1.4068
 5464TIP3    H237884   5.626   4.315   3.353  0.0433 -0.6359 -0.6491
 5465TIP3   OH237885   1.298   6.485  12.814  0.3493 -0.3203 -0.4734
 5465TIP3    H137886   1.222   6.427  12.812  0.4572 -0.5720  1.1644
 5465TIP3    H237887   1.367   6.436  12.770  0.1807 -1.0531  0.0594
 5466TIP3   OH237888   2.221   5.391  10.949 -0.0662 -0.8915  0.2394
 5466TIP3    H137889   2.313   5.402  10.974  0.4910  3.0344 -2.6044
 5466TIP3    H237890   2.173   5.444  11.014  0.0405 -0.5147  0.0154
 5467TIP3   OH237891   6.242   1.615   2.229 -0.1376  0.4112 -0.3190
 5467TIP3    H137892   6.186   1.558   2.176  0.7118  0.9105 -1.7972
 5467TIP3    H237893   6.317   1.634   2.173  1.9965 -0.9308  1.8883
 5468TIP3   OH237894   4.054   1.285   0.730  0.1009  0.3589  0.4637
 5468TIP3    H137895   3.993   1.225   0.688  1.6965 -0.5169 -0.7007
 5468TIP3    H237896   4.141   1.252   0.707  1.0721  0.8639  3.0213
 5469TIP3   OH237897   2.674   4.795  14.696  1.0161 -0.3336 -0.4926
 5469TIP3    H137898   2.601   4.733  14.689 -0.8000  1.8067 -1.6137
 5469TIP3    H237899   2.645   4.859  14.761  2.3599  0.0110 -0.1996
 5470TIP3   OH237900   2.402   6.051  16.163  0.2540 -0.3689 -0.0977
 5470TIP3    H137901   2.413   5.998  16.241 -0.0474 -2.1308 -1.2041
 5470TIP3    H237902   2.375   6.137  16.196 -1.2907 -1.4589  1.6822
 5471TIP3   OH237903   5.482   0.053  13.510 -0.6944  0.3446  0.2582
 5471TIP3    H137904   5.520   0.068  13.597  0.6959  2.7658 -0.6507
 5471TIP3    H237905   5.527  -0.025  13.478  2.1072  1.8916  0.0951
 5472TIP3   OH237906   6.449   6.796   1.536  0.0186  0.6905  0.0838
 5472TIP3    H137907   6.472   6.831   1.621  0.6879  2.8357 -0.9214
 5472TIP3    H237908   6.506   6.842   1.474 -2.2720  1.2140 -1.7925
 5473TIP3   OH237909   6.027   6.758   3.410  0.2874  0.3841 -0.3460
 5473TIP3    H137910   5.951   6.734   3.464 -0.3844  0.0784 -1.3981
 5473TIP3    H237911   6.056   6.842   3.447  0.5516 -0.3554  1.1924
 5474TIP3   OH237912   6.722   6.373   2.366  0.3944  0.1220 -0.0840
 5474TIP3    H137913   6.661   6.418   2.424 -0.6645 -2.1702  0.7325
 5474TIP3    H237914   6.794   6.435   2.352 -1.3156  2.3010  0.2608
 5475TIP3   OH237915   0.416   6.710  11.256 -0.4962  0.1691  0.3368
 5475TIP3    H137916   0.326   6.719  11.288 -0.5653  0.0170  0.1871
 5475TIP3    H237917   0.468   6.764  11.316 -0.7715  0.7756  0.0292
 5476TIP3   OH237918   0.746   5.476  10.307 -0.5180 -0.3777 -0.3847
 5476TIP3    H137919   0.700   5.539  10.363 -0.7625 -0.7457 -0.1715
 5476TIP3    H237920   0.780   5.529  10.235 -0.2373  0.0907  0.0885
 5477TIP3   OH237921   2.885   1.778   3.013  0.2444 -0.1768  0.0937
 5477TIP3    H137922   2.841   1.811   3.091  2.8215 -1.2656  2.1815
 5477TIP3    H237923   2.934   1.853   2.980  1.8913 -0.4838  1.6773
 5478TIP3   OH237924   6.571   5.439  14.447  0.5619  0.2694 -0.0945
 5478TIP3    H137925   6.503   5.467  14.508  0.6120 -2.3707  1.3305
 5478TIP3    H237926   6.653   5.466  14.488  0.5139  0.3379 -0.0437
 5479TIP3   OH237927   3.643   1.898   3.243 -0.7975 -0.0669 -0.5087
 5479TIP3    H137928   3.569   1.862   3.293 -2.6268  1.2728 -2.0764
 5479TIP3    H237929   3.613   1.986   3.217 -0.0958 -0.7306 -4.0472
 5480TIP3   OH237930   0.017   0.732  15.557  0.0796  0.0009  0.3926
 5480TIP3    H137931   0.001   0.825  15.573  0.6306  0.4283 -1.3316
 5480TIP3    H237932  -0.036   0.687  15.623  1.1906  1.5318  2.4913
 5481TIP3   OH237933   1.813   3.900  12.177  0.2324 -0.2928 -0.1036
 5481TIP3    H137934   1.845   3.859  12.257 -0.4072 -1.6616 -0.5133
 5481TIP3    H237935   1.752   3.967  12.207  0.5720 -0.2831  0.5680
 5482TIP3   OH237936   1.038   2.418  15.161 -0.0746 -0.7211 -0.1930
 5482TIP3    H137937   0.989   2.448  15.237 -0.1478 -0.0029 -0.5072
 5482TIP3    H237938   1.003   2.331  15.142 -0.6138 -0.5757  0.1111
 5483TIP3   OH237939   2.982   5.094  12.419  0.1725  0.7980  0.3299
 5483TIP3    H137940   2.889   5.083  12.401 -0.1106  1.5722  1.2184
 5483TIP3    H237941   3.023   5.101  12.332 -0.3291 -1.2686 -0.1282
 5484TIP3   OH237942   5.194   4.814  14.358  0.1992 -0.6645 -0.4569
 5484TIP3    H137943   5.281   4.790  14.326 -0.2329 -0.0061 -2.2327
 5484TIP3    H237944   5.202   4.905  14.384  0.3142 -0.9340  0.4742
 5485TIP3   OH237945   5.510   4.330  12.534 -0.3957 -0.5138 -0.6663
 5485TIP3    H137946   5.559   4.375  12.603  2.1465 -1.6001 -1.6326
 5485TIP3    H237947   5.499   4.396  12.465  2.3257 -0.8899 -1.6061
 5486TIP3   OH237948   3.164   4.473  12.093 -0.4777  0.4025  0.1515
 5486TIP3    H137949   3.183   4.416  12.019  0.5784  2.8818 -1.6308
 5486TIP3    H237950   3.092   4.430  12.139  0.0451 -2.1379 -1.2495
 5487TIP3   OH237951   2.371   6.265  14.641 -0.4767 -0.3683  0.0382
 5487TIP3    H137952   2.294   6.269  14.698 -0.6193 -0.7049 -0.1278
 5487TIP3    H237953   2.435   6.213  14.690 -0.3966 -0.1869  0.1264
 5488TIP3   OH237954   6.382   2.670  11.164  0.0540 -0.1095 -0.0733
 5488TIP3    H137955   6.388   2.695  11.072 -1.4652  0.8503  0.0545
 5488TIP3    H237956   6.296   2.701  11.192 -0.7887 -2.9736  0.9049
 5489TIP3   OH237957   4.493   1.646  13.883  0.1133  0.1039 -0.2092
 5489TIP3    H137958   4.506   1.697  13.803 -0.1371  2.1193  0.9410
 5489TIP3    H237959   4.543   1.694  13.949  1.3839 -2.2365  0.6169
 5490TIP3   OH237960   4.214   4.304  12.301  0.1881  0.1767 -0.1642
 5490TIP3    H137961   4.306   4.301  12.274  0.7707  0.2258  1.7244
 5490TIP3    H237962   4.181   4.386  12.264  0.3477 -0.6721 -2.3834
 5491TIP3   OH237963   1.324   3.092  12.887 -0.2197 -0.3201  0.6799
 5491TIP3    H137964   1.392   3.151  12.920 -0.8758  0.1217  1.2524
 5491TIP3    H237965   1.311   3.029  12.957 -0.0027 -0.7503  0.3402
 5492TIP3   OH237966   5.579   2.623  14.417  0.2555  0.1671  0.5557
 5492TIP3    H137967   5.613   2.607  14.505  0.8514  1.6850  0.6384
 5492TIP3    H237968   5.500   2.569  14.411 -0.1310  0.4857  2.2433
 5493TIP3   OH237969   4.161   0.751  11.863 -0.2506 -0.4914  0.4415
 5493TIP3    H137970   4.220   0.826  11.868 -1.1200  0.1882  0.7888
 5493TIP3    H237971   4.218   0.677  11.843  0.9798 -0.1865  2.5514
 5494TIP3   OH237972   4.161   0.448  16.655 -0.5109  0.2451 -0.1874
 5494TIP3    H137973   4.217   0.526  16.648 -0.5104  0.1770 -1.0131
 5494TIP3    H237974   4.075   0.478  16.626 -0.2520 -0.3271 -1.6279
 5495TIP3   OH237975   0.498   3.939   2.683 -0.2185  0.2853 -0.9589
 5495TIP3    H137976   0.404   3.923   2.671 -0.8734  1.7146  1.5980
 5495TIP3    H237977   0.512   4.026   2.646 -0.6240  1.3949  1.3471
 5496TIP3   OH237978   4.076   1.759   4.864  0.3195  0.1516 -0.1730
 5496TIP3    H137979   4.087   1.812   4.786 -0.6729  0.8863  0.1520
 5496TIP3    H237980   4.066   1.669   4.832  0.0916  0.4261 -0.8752
 5497TIP3   OH237981   4.159   3.061   3.665 -0.1467 -0.7415  0.2575
 5497TIP3    H137982   4.080   3.108   3.693 -1.3281 -2.5981  0.1954
 5497TIP3    H237983   4.187   3.107   3.586  0.4112  1.5695  1.6957
 5498TIP3   OH237984   1.356   4.608   0.584 -0.2346 -0.2792  0.3203
 5498TIP3    H137985   1.416   4.681   0.567 -0.2877 -0.2768  0.1343
 5498TIP3    H237986   1.399   4.532   0.546 -1.0701 -0.0018 -1.2814
 5499TIP3   OH237987   5.814   1.520   0.866  0.4185  0.1658  0.0035
 5499TIP3    H137988   5.894   1.564   0.836  0.5936 -0.7975 -1.0198
 5499TIP3    H237989   5.826   1.429   0.840  0.4651 -0.7319  2.8606
 5500TIP3   OH237990   1.983   2.792  14.982 -0.0180 -0.0524  0.5131
 5500TIP3    H137991   1.966   2.715  14.927 -0.8551 -0.9460  1.9666
 5500TIP3    H237992   2.000   2.756  15.069 -0.2671  1.4032  1.1824
 5501TIP3   OH237993   2.754   5.458  11.818 -0.2432  0.1964  0.0677
 5501TIP3    H137994   2.776   5.418  11.902  0.0863  0.1298 -0.0472
 5501TIP3    H237995   2.683   5.405  11.783  2.3552 -2.4606 -1.6600
 5502TIP3   OH237996   4.554   6.084   3.452  0.0566 -0.3216  0.0587
 5502TIP3    H137997   4.503   6.158   3.485  0.0785  0.1868 -0.9937
 5502TIP3    H237998   4.594   6.045   3.530 -0.6608  0.2387  0.7193
 5503TIP3   OH237999   6.477   2.860   5.354  0.0112  0.6866  0.3827
 5503TIP3    H138000   6.503   2.925   5.419  2.5370  0.8138 -0.6353
 5503TIP3    H238001   6.422   2.908   5.292  1.0230  1.6430  0.1903
 5504TIP3   OH238002   6.803   4.472   4.041 -0.3862  0.3359  0.4714
 5504TIP3    H138003   6.873   4.407   4.048  0.3494  1.2105  1.4735
 5504TIP3    H238004   6.839   4.540   3.983 -0.6893  0.4378  0.3981
 5505TIP3   OH238005   1.101   2.536   0.934  0.0873  0.1947  0.5523
 5505TIP3    H138006   1.185   2.580   0.945 -0.0086  0.1107  1.7256
 5505TIP3    H238007   1.122   2.443   0.934 -0.0667  0.1474  1.6044
 5506TIP3   OH238008   1.353   6.617   2.213  0.5533  0.1679 -0.3089
 5506TIP3    H138009   1.431   6.672   2.225  0.8975 -0.5582  0.9815
 5506TIP3    H238010   1.298   6.637   2.288  1.0300 -1.7669  0.6265
 5507TIP3   OH238011   4.607   0.324   0.034 -0.3717  0.1073 -0.4935
 5507TIP3    H138012   4.597   0.334   0.129 -0.2838 -1.5665 -0.2800
 5507TIP3    H238013   4.679   0.383   0.012 -0.2043  0.3093  0.5327
 5508TIP3   OH238014   0.983   0.511   1.616  0.2507  0.2222 -0.3456
 5508TIP3    H138015   1.053   0.560   1.660  0.0166 -1.1330  1.6490
 5508TIP3    H238016   0.981   0.427   1.660 -1.2480 -0.5677 -1.7998
 5509TIP3   OH238017   6.220   6.661   1.618 -0.1105 -0.1092 -0.2915
 5509TIP3    H138018   6.295   6.684   1.564  1.3889  1.7898  2.3448
 5509TIP3    H238019   6.182   6.745   1.644 -2.0387 -1.0027 -0.0499
 5510TIP3   OH238020   6.349   0.495  12.177 -0.3434 -0.2157  0.0675
 5510TIP3    H138021   6.415   0.518  12.241 -0.8353 -3.0564  1.8077
 5510TIP3    H238022   6.266   0.502  12.224 -1.5141  3.6531 -2.1655
 5511TIP3   OH238023   2.110   0.152   5.163  0.0546 -0.2706 -0.8455
 5511TIP3    H138024   2.122   0.096   5.240 -0.5643 -0.9682 -1.2480
 5511TIP3    H238025   2.196   0.156   5.122 -0.2373 -2.3037 -1.7322
 5512TIP3   OH238026   6.114   4.505   3.869 -0.1688 -0.2236  0.0030
 5512TIP3    H138027   6.135   4.433   3.928 -1.6085  0.2840  1.1974
 5512TIP3    H238028   6.177   4.574   3.891  0.5219 -0.7116 -0.4050
 5513TIP3   OH238029   2.073   3.016   3.057 -0.1222 -0.5412 -0.8061
 5513TIP3    H138030   2.043   2.962   3.130  0.7209  1.3442  1.0550
 5513TIP3    H238031   2.168   3.017   3.065 -0.0965  0.8594 -1.0220
 5514TIP3   OH238032   1.302   6.200   5.672  0.4931 -0.3397  0.3420
 5514TIP3    H138033   1.380   6.146   5.659  0.3864 -0.7595  1.3046
 5514TIP3    H238034   1.284   6.192   5.766  0.6753  1.6571  0.5871
 5515TIP3   OH238035   6.248   0.831  13.664  0.0209 -0.4758  0.6928
 5515TIP3    H138036   6.191   0.803  13.592  0.5064  0.1248  0.0623
 5515TIP3    H238037   6.188   0.870  13.728 -0.2614  0.3962 -0.0883
 5516TIP3   OH238038   3.360   2.889  12.913  0.5159 -0.6296  0.3680
 5516TIP3    H138039   3.442   2.939  12.910 -0.3228  0.7651 -1.3209
 5516TIP3    H238040   3.304   2.940  12.972 -0.0057 -0.0594 -0.5853
 5517TIP3   OH238041   2.325   4.499   5.077  0.0968 -0.5482  0.3359
 5517TIP3    H138042   2.319   4.546   4.994  0.6964 -2.9510 -1.1948
 5517TIP3    H238043   2.419   4.482   5.087  0.1083  0.2378  1.8838
 5518TIP3   OH238044   5.405   2.170   4.738 -0.2915  0.5523  0.1606
 5518TIP3    H138045   5.342   2.113   4.692  0.7833 -0.4858 -0.0642
 5518TIP3    H238046   5.400   2.142   4.829  0.0593  0.2561  0.0911
 5519TIP3   OH238047   0.747   6.071  12.371  0.3612  0.2229 -0.1596
 5519TIP3    H138048   0.714   5.999  12.317  1.0531  0.7896 -1.3595
 5519TIP3    H238049   0.812   6.116  12.317  0.5587  1.2578  0.8716
 5520TIP3   OH238050   3.525   2.442   1.463  0.6122  0.7603  0.1532
 5520TIP3    H138051   3.498   2.389   1.538 -0.5856  1.2640  0.0851
 5520TIP3    H238052   3.484   2.527   1.477 -0.5216  0.5344 -1.6185
 5521TIP3   OH238053   2.333   4.784  14.394  0.3366 -0.1306 -0.0808
 5521TIP3    H138054   2.424   4.757  14.384  0.2006 -1.2230  1.3143
 5521TIP3    H238055   2.308   4.817  14.308  1.6738 -0.9727 -0.8266
 5522TIP3   OH238056   0.486   1.861   3.102  0.5645 -0.1929 -0.3022
 5522TIP3    H138057   0.437   1.826   3.176 -1.8682  2.0143 -0.6992
 5522TIP3    H238058   0.504   1.953   3.125  2.0704 -0.1606 -1.3862
 5523TIP3   OH238059   2.544   4.432   1.513 -0.2289 -0.2737  0.5119
 5523TIP3    H138060   2.523   4.354   1.565  2.0792 -0.6171  1.0066
 5523TIP3    H238061   2.544   4.503   1.577 -1.9358  0.1309  0.1255
 5524TIP3   OH238062   0.356   4.971   3.455 -0.2589  0.6411 -0.0481
 5524TIP3    H138063   0.422   4.953   3.522 -0.0415 -0.5425 -0.5569
 5524TIP3    H238064   0.402   5.023   3.389  0.5318 -1.1330 -0.9617
 5525TIP3   OH238065   4.467   4.489   2.991  0.1363  0.4163  0.3588
 5525TIP3    H138066   4.489   4.420   3.054  0.2257 -0.8028 -0.9479
 5525TIP3    H238067   4.372   4.490   2.988  0.1251 -0.7213 -0.6841
 5526TIP3   OH238068   6.672   1.179  12.685 -0.2314 -0.0930  0.3722
 5526TIP3    H138069   6.742   1.221  12.636 -0.5382  0.4138  0.3655
 5526TIP3    H238070   6.606   1.247  12.697 -1.7411 -1.1035 -1.5290
 5527TIP3   OH238071   3.716   5.867   4.860  0.2210  0.1116  0.5040
 5527TIP3    H138072   3.809   5.889   4.851 -0.2832  1.3456 -3.0880
 5527TIP3    H238073   3.711   5.775   4.834  0.4049  0.0546  0.6639
 5528TIP3   OH238074   5.350   3.890   2.965 -0.2062 -0.0131 -0.3800
 5528TIP3    H138075   5.278   3.947   2.940  0.7840  1.8696  0.8399
 5528TIP3    H238076   5.323   3.853   3.050 -0.8015 -1.3363 -1.1179
 5529TIP3   OH238077   2.603   1.654   2.054  0.3443 -0.0967 -0.5497
 5529TIP3    H138078   2.532   1.693   2.105 -1.1350 -1.2258 -1.6704
 5529TIP3    H238079   2.676   1.647   2.116 -0.6816  0.5898  0.7839
 5530TIP3   OH238080   4.867   4.684   2.915  0.3517  0.5368  0.0357
 5530TIP3    H138081   4.937   4.721   2.860  0.4377  1.7900  0.9463
 5530TIP3    H238082   4.821   4.760   2.950 -0.6771 -0.2593  0.4811
 5531TIP3   OH238083   2.977   2.591   4.274  0.3589 -0.0856  0.2144
 5531TIP3    H138084   2.955   2.554   4.359  1.4786  0.2105  0.6478
 5531TIP3    H238085   2.983   2.516   4.215  0.9445 -0.4369  0.7111
 5532TIP3   OH238086   5.601   2.649   1.045  0.5772 -0.1902  0.1239
 5532TIP3    H138087   5.545   2.581   1.085 -0.8966  1.5075  1.1327
 5532TIP3    H238088   5.680   2.648   1.099  0.6131 -1.1379  0.0833
 5533TIP3   OH238089   0.990   4.637   3.955  0.5871 -0.3311 -0.3279
 5533TIP3    H138090   0.912   4.581   3.955  0.7607 -0.5816  0.2772
 5533TIP3    H238091   1.021   4.635   4.045  0.4296  0.9961 -0.2375
 5534TIP3   OH238092   5.278   2.150   3.892  0.3635  0.4944  0.0356
 5534TIP3    H138093   5.231   2.190   3.964  0.9270  0.1403  0.6161
 5534TIP3    H238094   5.337   2.087   3.934  2.9156  2.4188 -0.4495
 5535TIP3   OH238095   2.065   1.527   4.382  0.0905  0.2167 -0.0876
 5535TIP3    H138096   2.066   1.570   4.297 -0.3513  0.2968 -0.0535
 5535TIP3    H238097   2.021   1.444   4.367  0.7485 -0.1307 -0.1074
 5536TIP3   OH238098   3.283   4.064   1.597 -0.7852  0.3228  0.0290
 5536TIP3    H138099   3.250   4.031   1.514 -1.0341  2.2539 -0.6855
 5536TIP3    H238100   3.374   4.034   1.601 -1.2852 -1.2863 -0.0683
 5537TIP3   OH238101   6.522   1.635  13.463  0.1222  0.2528 -0.1938
 5537TIP3    H138102   6.442   1.665  13.505  0.3803 -0.1380  0.5988
 5537TIP3    H238103   6.579   1.712  13.463  0.5803 -0.0561  1.3354
 5538TIP3   OH238104   3.056   5.800  11.153 -0.1432  0.2879  0.2157
 5538TIP3    H138105   3.118   5.771  11.220 -0.7693 -0.4609  0.4924
 5538TIP3    H238106   3.065   5.735  11.083 -1.4698 -0.5667  0.7875
 5539TIP3   OH238107   0.501   5.312  10.869  1.0085  0.2873  0.0266
 5539TIP3    H138108   0.442   5.387  10.880  2.4471  1.4948 -0.1234
 5539TIP3    H238109   0.480   5.278  10.782 -0.7621 -0.5357  0.7234
 5540TIP3   OH238110   2.822   0.812  13.311  0.2537  0.7630 -0.3295
 5540TIP3    H138111   2.748   0.786  13.366 -0.3069 -0.6043 -1.6668
 5540TIP3    H238112   2.838   0.903  13.333  0.5470  0.0995  2.6375
 5541TIP3   OH238113   6.032   6.315  16.904 -0.2135  0.3086  0.2408
 5541TIP3    H138114   5.992   6.285  16.986 -1.2407  1.1073  0.0536
 5541TIP3    H238115   6.021   6.242  16.843 -1.2008  0.4355  0.2604
 5542TIP3   OH238116   4.868   1.176  16.036  0.3345  0.2214  0.5404
 5542TIP3    H138117   4.914   1.250  16.076  0.8687 -1.1855  2.6931
 5542TIP3    H238118   4.936   1.124  15.994 -0.1485  1.3392 -1.8034
 5543TIP3   OH238119   4.649   4.433   3.458 -0.1530  0.1342  0.1045
 5543TIP3    H138120   4.669   4.349   3.501  0.3106  0.0593 -0.2466
 5543TIP3    H238121   4.697   4.498   3.509 -1.1496  0.3029  0.8663
 5544TIP3   OH238122   1.173   1.815   5.270 -0.4230  0.3352  0.8780
 5544TIP3    H138123   1.221   1.752   5.323 -1.8317  0.0257  1.8299
 5544TIP3    H238124   1.197   1.793   5.180  0.6056 -0.2984  1.2891
 5545TIP3   OH238125   2.144   1.601   5.966  0.3058  0.0524 -0.4531
 5545TIP3    H138126   2.071   1.605   6.028  0.5203  0.7760 -0.2417
 5545TIP3    H238127   2.212   1.656   6.005  0.6305  0.1130 -1.0864
 5546TIP3   OH238128   5.629   4.674  15.850  0.3839 -0.9440 -0.5095
 5546TIP3    H138129   5.586   4.624  15.780  1.0856 -1.7116 -0.4042
 5546TIP3    H238130   5.632   4.614  15.924 -0.9191  0.0732  0.4090
 5547TIP3   OH238131   4.570   4.840  15.714 -1.0506 -0.3668  0.6067
 5547TIP3    H138132   4.644   4.877  15.762  0.6441 -0.8615 -1.4679
 5547TIP3    H238133   4.565   4.749  15.743 -0.5057 -0.4613  0.4192
 5548TIP3   OH238134   2.349   5.131   1.821  0.6264 -0.4686  0.3717
 5548TIP3    H138135   2.410   5.152   1.892 -0.7978  0.9005  1.2876
 5548TIP3    H238136   2.324   5.040   1.837  3.3651 -1.5228 -0.8283
 5549TIP3   OH238137   4.807   4.366  12.902 -0.4794 -0.8135  0.3234
 5549TIP3    H138138   4.736   4.401  12.956  0.0990 -0.8106  1.0974
 5549TIP3    H238139   4.870   4.330  12.964  0.4396 -0.3715 -0.3202
 5550TIP3   OH238140   0.065   5.562   4.456  0.0752  0.2348  0.2289
 5550TIP3    H138141   0.018   5.570   4.539 -0.0952 -1.5007  0.3282
 5550TIP3    H238142  -0.001   5.532   4.393  0.8619 -1.5529  0.2128
 5551TIP3   OH238143   1.863   1.071   5.658 -0.1229  0.3505 -0.3179
 5551TIP3    H138144   1.813   1.008   5.709  0.7749  2.0725  2.9182
 5551TIP3    H238145   1.797   1.118   5.607 -1.4819  0.5234  1.5110
 5552TIP3   OH238146   6.533   4.233  15.653 -0.1890 -0.2436 -0.1038
 5552TIP3    H138147   6.470   4.168  15.684  1.6817 -1.3584  1.5036
 5552TIP3    H238148   6.485   4.316  15.658 -1.3480 -0.9696  1.6699
 5553TIP3   OH238149   3.608   5.647  15.121 -0.4578 -0.0854 -0.4463
 5553TIP3    H138150   3.533   5.674  15.068 -0.5111  0.5334 -0.0681
 5553TIP3    H238151   3.652   5.730  15.144 -0.9067 -0.2693  1.1574
 5554TIP3   OH238152   4.012   4.631   0.475 -0.1158 -0.7556  0.0345
 5554TIP3    H138153   3.951   4.596   0.411 -1.2274 -1.0771  1.2152
 5554TIP3    H238154   3.971   4.713   0.505  0.8886 -0.0787 -0.3975
 5555TIP3   OH238155   2.266   3.768   2.023 -0.3714  0.0255 -0.1821
 5555TIP3    H138156   2.333   3.761   2.091 -0.9057  0.1706  0.3751
 5555TIP3    H238157   2.301   3.720   1.949  0.8223  1.0038 -0.2787
 5556TIP3   OH238158   4.832   1.448   5.096  0.4127  0.4260 -0.5089
 5556TIP3    H138159   4.824   1.543   5.098  0.3854  0.4210 -0.3951
 5556TIP3    H238160   4.749   1.416   5.130  1.0592  0.3774  1.1243
 5557TIP3   OH238161   2.070   2.722   1.599 -0.5556  0.1460  0.0295
 5557TIP3    H138162   2.156   2.700   1.635 -0.2149  2.5728  0.8637
 5557TIP3    H238163   2.088   2.751   1.510 -0.6653 -0.3305 -0.1525
 5558TIP3   OH238164   6.736   5.495   4.882 -0.4400 -0.1735 -0.0684
 5558TIP3    H138165   6.728   5.432   4.954  0.5883 -0.0468  0.1785
 5558TIP3    H238166   6.770   5.574   4.924 -0.6585  0.1832 -0.5609
 5559TIP3   OH238167   5.867   1.500  11.424  0.6647  0.2648 -0.0182
 5559TIP3    H138168   5.853   1.589  11.391  0.2379 -0.0125 -0.5982
 5559TIP3    H238169   5.780   1.462  11.429  0.6636  0.3988  1.7794
 5560TIP3   OH238170   4.977   4.635  14.839 -0.6308  0.5337  0.4982
 5560TIP3    H138171   5.005   4.587  14.916 -0.2113  1.6446  1.0726
 5560TIP3    H238172   4.975   4.570  14.769  2.8388  0.1833  0.5383
 5561TIP3   OH238173   5.631   5.558  15.534  0.1704  0.0550 -0.3710
 5561TIP3    H138174   5.721   5.566  15.564  0.2744 -2.2892  0.1146
 5561TIP3    H238175   5.585   5.518  15.608 -1.6651  2.5822 -0.0257
 5562TIP3   OH238176   6.347   5.613  15.817  0.0887  0.3107 -0.8116
 5562TIP3    H138177   6.420   5.612  15.755  0.5481  0.6466 -0.2846
 5562TIP3    H238178   6.368   5.543  15.878 -0.4060 -0.0730 -1.0781
 5563TIP3   OH238179   3.914   2.942  12.361 -0.4651 -0.8426  0.0067
 5563TIP3    H138180   3.975   2.977  12.296 -0.0462 -0.8694  0.3848
 5563TIP3    H238181   3.855   2.886  12.311 -0.2726 -0.7010 -0.3806
 5564TIP3   OH238182   3.829   2.972  17.270  0.0506  0.3737  0.7649
 5564TIP3    H138183   3.788   3.042  17.320 -0.9096 -0.1248  0.6884
 5564TIP3    H238184   3.854   3.013  17.187 -3.5205 -0.0514 -0.6931
 5565TIP3   OH238185   5.241   4.144   6.330  0.2607  0.2735 -0.0486
 5565TIP3    H138186   5.331   4.175   6.325  0.7332 -0.3549  2.7423
 5565TIP3    H238187   5.188   4.220   6.305  1.5278  1.6180  1.1413
 5566TIP3   OH238188   2.664   0.187   2.327  0.3884 -0.5392  0.4491
 5566TIP3    H138189   2.714   0.107   2.338  1.2363  0.0234  0.8232
 5566TIP3    H238190   2.688   0.220   2.240 -0.6629 -1.1540 -0.0911
 5567TIP3   OH238191   5.593   5.552   2.973  0.0839 -0.2326 -0.4682
 5567TIP3    H138192   5.533   5.594   3.035 -0.2245  0.4426 -1.2034
 5567TIP3    H238193   5.638   5.485   3.024 -1.4438 -0.9058  0.0667
 5568TIP3   OH238194   5.668   5.250  14.323  0.0633 -0.2084 -0.0620
 5568TIP3    H138195   5.605   5.258  14.395  2.4104 -0.7697  2.2034
 5568TIP3    H238196   5.719   5.331  14.328  0.7702 -0.6185 -0.5926
 5569TIP3   OH238197   1.989   0.585  14.618 -0.2293 -0.2723 -0.5384
 5569TIP3    H138198   1.896   0.570  14.603 -0.3001  0.1281 -0.5124
 5569TIP3    H238199   1.991   0.652  14.687  0.0788 -0.7709 -0.0535
 5570TIP3   OH238200   3.261   2.624   0.385 -0.0514 -0.6663  0.1427
 5570TIP3    H138201   3.246   2.583   0.300  1.0008 -1.8984  0.5274
 5570TIP3    H238202   3.216   2.567   0.447  1.5917 -1.3947  0.7082
 5571TIP3   OH238203   4.436   0.479   1.564 -0.5121  0.1323  0.2346
 5571TIP3    H138204   4.356   0.465   1.514 -0.0958  0.4810 -0.5531
 5571TIP3    H238205   4.434   0.412   1.632 -2.1957  1.0791  1.1691
 5572TIP3   OH238206   5.407   2.060   4.410  0.1679 -0.2653  0.1911
 5572TIP3    H138207   5.479   2.000   4.392  0.1552  0.1678 -1.4646
 5572TIP3    H238208   5.365   2.025   4.488  1.5017 -1.1419  0.5413
 5573TIP3   OH238209   0.955   4.930   3.625 -0.9416  0.1515  0.1725
 5573TIP3    H138210   0.950   4.840   3.592  0.1949 -0.0518  0.5157
 5573TIP3    H238211   0.908   4.982   3.559 -1.3315 -0.6469 -0.1934
 5574TIP3   OH238212   3.648   6.755  16.724 -0.6515  0.1922 -0.2917
 5574TIP3    H138213   3.566   6.792  16.691 -1.1623  1.7949  2.4255
 5574TIP3    H238214   3.623   6.669  16.758 -1.6872  1.2788  1.9340
 5575TIP3   OH238215   6.094   5.060  11.761  0.0288 -0.2583  0.1092
 5575TIP3    H138216   6.070   5.012  11.681 -2.2010  0.5557  0.2446
 5575TIP3    H238217   6.090   4.995  11.830 -4.8028  0.2435  0.6079
 5576TIP3   OH238218   5.969   6.369  13.699  0.5343 -0.0249 -0.1659
 5576TIP3    H138219   5.970   6.366  13.795 -0.3015 -2.2725 -0.1794
 5576TIP3    H238220   5.878   6.351  13.675  0.6438  0.9414 -1.4026
 5577TIP3   OH238221   5.376   2.696  10.752 -0.3126  0.0333  0.1572
 5577TIP3    H138222   5.342   2.674  10.665  1.1076  0.0500 -0.4317
 5577TIP3    H238223   5.307   2.668  10.812 -1.1113 -0.4537 -0.9395
 5578TIP3   OH238224   6.184   0.185   2.690  0.0498 -0.2694 -0.5061
 5578TIP3    H138225   6.225   0.270   2.703  0.6467 -0.7331  0.8633
 5578TIP3    H238226   6.135   0.169   2.772  1.9375 -2.2802  0.3445
 5579TIP3   OH238227   3.636   3.600   6.196  0.2608 -0.2364  0.0253
 5579TIP3    H138228   3.684   3.681   6.210 -0.7830  0.5835 -0.9449
 5579TIP3    H238229   3.697   3.543   6.148  0.9723 -0.0082  0.6499
 5580TIP3   OH238230   2.297   6.094  15.920  0.0761  0.6703  0.4388
 5580TIP3    H138231   2.356   6.059  15.985  0.3079 -0.1153 -0.1804
 5580TIP3    H238232   2.215   6.046  15.933  0.0540  0.6682  0.2951
 5581TIP3   OH238233   3.192   3.394  14.236  0.1606 -0.5009  0.4029
 5581TIP3    H138234   3.180   3.337  14.312  0.6233  0.3975  1.1647
 5581TIP3    H238235   3.156   3.344  14.163 -1.5510 -0.8420  1.4217
 5582TIP3   OH238236   3.340   2.027  13.568  0.3324  0.1020 -0.4497
 5582TIP3    H138237   3.431   2.027  13.598  1.0796  0.8725 -2.5536
 5582TIP3    H238238   3.330   1.945  13.520 -0.2225 -0.1590  0.0947
 5583TIP3   OH238239   0.376   1.508  11.628  0.0113 -0.0135 -0.1742
 5583TIP3    H138240   0.444   1.484  11.692  0.1399 -0.0670 -0.3309
 5583TIP3    H238241   0.318   1.432  11.627  0.7400 -0.5881 -1.1063
 5584TIP3   OH238242   5.648   4.397   5.884  0.2581  0.4095 -0.4195
 5584TIP3    H138243   5.571   4.396   5.941 -1.2906  0.5087 -2.4110
 5584TIP3    H238244   5.690   4.311   5.898 -0.3617  0.2480  0.4824
 5585TIP3   OH238245   4.055   1.655  11.820 -0.2712 -0.1466 -0.1627
 5585TIP3    H138246   4.023   1.740  11.849 -3.0935 -1.3116  0.4974
 5585TIP3    H238247   4.054   1.660  11.724  1.5468  1.1482 -0.1675
 5586TIP3   OH238248   0.456   5.126  13.370  0.0640 -0.2130  0.0834
 5586TIP3    H138249   0.403   5.047  13.383  1.2381 -1.2669 -1.1701
 5586TIP3    H238250   0.472   5.159  13.458  0.7225 -2.2086  0.7710
 5587TIP3   OH238251   3.356   6.591  15.346 -0.5668  0.6652  0.3259
 5587TIP3    H138252   3.374   6.624  15.433 -0.5485  4.3766 -0.9173
 5587TIP3    H238253   3.420   6.636  15.290 -1.8422 -0.0757 -1.8399
 5588TIP3   OH238254   0.286   0.523   3.249  0.3837 -0.5450 -0.3464
 5588TIP3    H138255   0.380   0.523   3.230  0.8099  0.4718  1.5083
 5588TIP3    H238256   0.277   0.466   3.326 -0.2076  0.8707  0.6766
 5589TIP3   OH238257   0.530   1.173  15.281 -0.0301 -0.1224  0.1097
 5589TIP3    H138258   0.531   1.187  15.376  2.7333  1.5591 -0.0760
 5589TIP3    H238259   0.438   1.156  15.261 -0.8012  0.1202  2.9771
 5590TIP3   OH238260   4.152   4.803  16.429  0.3451 -0.4325  0.1197
 5590TIP3    H138261   4.161   4.713  16.461 -0.1732 -0.0771  1.3295
 5590TIP3    H238262   4.062   4.828  16.451 -1.2566 -1.1641 -4.4130
 5591TIP3   OH238263   4.764   4.285  15.066 -0.0779 -0.3244 -0.5995
 5591TIP3    H138264   4.852   4.264  15.097 -0.5670  0.6203  1.6584
 5591TIP3    H238265   4.706   4.245  15.130 -1.2624 -0.1158 -1.5201
 5592TIP3   OH238266   3.950   0.022  15.253 -0.3939  0.0331 -0.8937
 5592TIP3    H138267   3.887  -0.036  15.209 -0.1477 -0.3077 -0.8010
 5592TIP3    H238268   3.954  -0.011  15.343  0.3653 -0.3255 -1.0526
 5593TIP3   OH238269   3.475   3.582   1.323 -0.1980 -0.0378 -0.7070
 5593TIP3    H138270   3.520   3.659   1.287 -1.2340  0.7627 -0.3278
 5593TIP3    H238271   3.482   3.593   1.418 -0.3934 -0.3981 -0.6521
 5594TIP3   OH238272   4.949   0.681   1.491  0.6298  0.0916 -0.0558
 5594TIP3    H138273   4.880   0.641   1.545 -0.2539 -0.6290 -1.6438
 5594TIP3    H238274   5.030   0.643   1.524 -0.0382 -1.6684 -0.3366
 5595TIP3   OH238275   4.523   2.008  13.834  0.3021  0.0546 -0.8109
 5595TIP3    H138276   4.550   1.953  13.907  0.4907  1.7471  0.4588
 5595TIP3    H238277   4.549   2.096  13.860 -0.7426  0.8701 -2.3915
 5596TIP3   OH238278   4.849   3.031   4.055 -0.4479  0.3720  0.3147
 5596TIP3    H138279   4.812   2.947   4.083  0.2167  0.1947  0.6803
 5596TIP3    H238280   4.805   3.049   3.971 -0.0393 -0.7254 -0.1613
 5597TIP3   OH238281   0.510   6.751   3.522 -0.0941  0.0073 -0.1033
 5597TIP3    H138282   0.446   6.696   3.476  0.0783 -0.2573 -0.0321
 5597TIP3    H238283   0.511   6.833   3.473  1.5258 -0.9382 -1.8067
 5598TIP3   OH238284   4.781   5.130  10.008  0.2125  0.2857  0.2870
 5598TIP3    H138285   4.724   5.059  10.037  1.2218 -1.2260 -1.2312
 5598TIP3    H238286   4.864   5.086   9.986  1.6134  2.2445  1.3874
 5599TIP3   OH238287   0.025   3.017  16.385  0.6565  0.2235 -0.5160
 5599TIP3    H138288   0.091   3.066  16.337  0.6069 -0.3274 -1.1630
 5599TIP3    H238289  -0.043   3.081  16.405  0.8105  0.5161 -0.9343
 5600TIP3   OH238290   1.519   3.096   5.298  0.5610  0.4885  0.4850
 5600TIP3    H138291   1.541   3.102   5.392  0.3357  1.2446  0.4959
 5600TIP3    H238292   1.527   3.186   5.267 -0.5199  0.4299  0.0301
 5601TIP3   OH238293   1.333   6.632  14.227 -0.3719 -0.2465  0.0624
 5601TIP3    H138294   1.367   6.666  14.310  0.8196  1.2884 -0.9929
 5601TIP3    H238295   1.377   6.548  14.216  0.9634  0.4192  0.0961
 5602TIP3   OH238296   4.801   4.121  15.659 -0.6684 -0.2201 -0.0110
 5602TIP3    H138297   4.821   4.200  15.608  0.6616 -0.4938  0.0456
 5602TIP3    H238298   4.728   4.146  15.715  0.1149  1.1915  0.4357
 5603TIP3   OH238299   3.287   2.309   4.168  0.2400  0.1726  0.2680
 5603TIP3    H138300   3.347   2.366   4.217  1.2320 -0.8092  0.2243
 5603TIP3    H238301   3.326   2.303   4.081  1.1550 -1.9768  0.7574
 5604TIP3   OH238302   3.590   4.238  15.243 -0.0847  0.3498 -0.3495
 5604TIP3    H138303   3.556   4.311  15.191 -1.1357 -0.7001 -1.1940
 5604TIP3    H238304   3.639   4.184  15.181  0.9226  0.4734  0.3229
 5605TIP3   OH238305   0.886   5.567  14.938 -0.1694 -0.2790  0.0375
 5605TIP3    H138306   0.833   5.491  14.962 -1.2129  0.4539  0.1249
 5605TIP3    H238307   0.833   5.643  14.964  0.3606  0.4957 -1.0577
 5606TIP3   OH238308   6.117   4.848   3.806 -0.5290  0.7184  0.1791
 5606TIP3    H138309   6.189   4.816   3.861 -0.0527  0.1492 -0.7628
 5606TIP3    H238310   6.086   4.926   3.852  0.1970  0.5453  0.9963
 5607TIP3   OH238311   1.361   4.391  14.335  0.2216  0.3033 -0.1827
 5607TIP3    H138312   1.389   4.305  14.364 -0.1420  0.2291 -0.0487
 5607TIP3    H238313   1.276   4.377  14.294  0.1880  0.5871 -0.2164
 5608TIP3   OH238314   3.032   3.890  11.995  0.6009  0.1691  0.3666
 5608TIP3    H138315   3.066   3.957  11.936 -1.1554 -0.1844 -1.1297
 5608TIP3    H238316   3.082   3.811  11.974  0.4772  0.2282 -0.1509
 5609TIP3   OH238317   2.297   3.589  16.937 -0.6151  0.4441  0.5598
 5609TIP3    H138318   2.280   3.683  16.940  1.7607  0.9210  1.1085
 5609TIP3    H238319   2.347   3.576  16.857 -1.1791 -0.4301  0.3287
 5610TIP3   OH238320   1.620   5.997  11.160  0.1038  0.8249 -0.1702
 5610TIP3    H138321   1.602   6.090  11.173 -0.2826  0.6958  0.2601
 5610TIP3    H238322   1.586   5.977  11.072  0.0056  1.0478 -0.1827
 5611TIP3   OH238323   3.265   2.445   5.336 -0.7717  0.4780  0.3178
 5611TIP3    H138324   3.223   2.410   5.414 -0.5334 -1.3176 -0.3099
 5611TIP3    H238325   3.230   2.392   5.264  2.0830 -0.7875 -0.3078
 5612TIP3   OH238326   3.387   5.218  15.092  0.7111 -0.6954  0.1311
 5612TIP3    H138327   3.327   5.223  15.166  0.4090  1.1611 -0.1985
 5612TIP3    H238328   3.451   5.288  15.106  1.1512 -0.8512 -0.9300
 5613TIP3   OH238329   6.242   1.356   2.720  0.4617 -0.3379 -0.5865
 5613TIP3    H138330   6.263   1.424   2.784 -1.2426 -1.0309  0.7742
 5613TIP3    H238331   6.161   1.385   2.680  0.4339 -0.9120 -0.9586
 5614TIP3   OH238332   0.529   0.606   3.682  0.2927 -0.0610 -0.3151
 5614TIP3    H138333   0.579   0.638   3.757  1.7670  0.5444 -1.4927
 5614TIP3    H238334   0.442   0.645   3.692  0.8698  1.1005  0.3754
 5615TIP3   OH238335   0.798   5.996   3.262 -0.4249  0.0891 -0.6429
 5615TIP3    H138336   0.740   5.966   3.332  0.6213 -0.4943 -0.0047
 5615TIP3    H238337   0.752   6.071   3.224 -1.4310 -0.1399  0.0653
 5616TIP3   OH238338   4.214   0.909   1.549  0.0835 -0.2512 -0.0949
 5616TIP3    H138339   4.167   0.825   1.545 -0.9817  0.3592 -1.6015
 5616TIP3    H238340   4.262   0.906   1.631 -0.5537 -2.0145  0.2604
 5617TIP3   OH238341   6.361   0.470   3.685 -0.1092  0.3660  0.0731
 5617TIP3    H138342   6.392   0.402   3.624 -0.6930 -0.1181  0.3037
 5617TIP3    H238343   6.309   0.529   3.630  0.2293  0.5179 -0.0900
 5618TIP3   OH238344   4.709   5.655   1.469  0.3265  0.2970 -0.5930
 5618TIP3    H138345   4.692   5.567   1.434  0.6113 -0.1105  0.2710
 5618TIP3    H238346   4.646   5.711   1.423  1.2666 -0.0490 -2.4213
 5619TIP3   OH238347   2.831   0.261  15.759 -0.7807  0.1793  0.6443
 5619TIP3    H138348   2.923   0.271  15.783 -0.7042  0.2272  0.3334
 5619TIP3    H238349   2.785   0.324  15.815 -0.3919  1.7450 -0.6999
 5620TIP3   OH238350   6.409   3.691  15.109 -0.7644 -0.2119 -0.1772
 5620TIP3    H138351   6.429   3.771  15.157 -0.4250  0.0179 -0.6962
 5620TIP3    H238352   6.361   3.637  15.172  0.2488 -0.1954  0.6494
 5621TIP3   OH238353   5.954   0.994   2.958  0.0464  0.4425 -0.1949
 5621TIP3    H138354   5.884   1.054   2.934 -0.1655  0.1609 -0.2865
 5621TIP3    H238355   5.947   0.923   2.895  0.5353  0.5035 -0.3251
 5622TIP3   OH238356   0.644   1.181  15.654  0.6680  0.2158 -0.1090
 5622TIP3    H138357   0.641   1.145  15.742  1.1545  2.8096  1.0576
 5622TIP3    H238358   0.609   1.269  15.663  2.6382  1.2931 -2.0773
 5623TIP3   OH238359   3.311   0.312   2.696 -0.1841  0.5108  0.0033
 5623TIP3    H138360   3.300   0.306   2.601 -0.3829 -0.2194  0.0680
 5623TIP3    H238361   3.233   0.360   2.726  0.1949  1.3162 -0.2611
 5624TIP3   OH238362   6.248   3.806  12.612  0.3005 -0.1751 -0.1818
 5624TIP3    H138363   6.281   3.716  12.610  0.5530 -0.1042  0.6566
 5624TIP3    H238364   6.324   3.859  12.635 -0.0687  0.1500  0.2876
 5625TIP3   OH238365   5.916   6.001   4.299  0.2305 -0.2166 -0.1901
 5625TIP3    H138366   5.978   6.023   4.369 -0.0767  0.5484 -0.1408
 5625TIP3    H238367   5.874   5.920   4.328 -1.4792  1.2126  1.6439
 5626TIP3   OH238368   2.206   0.525  12.736  0.1056 -0.5717 -0.1502
 5626TIP3    H138369   2.176   0.439  12.707  0.8460 -1.1583  0.7596
 5626TIP3    H238370   2.196   0.522  12.832 -0.3831  0.5613 -0.1490
 5627TIP3   OH238371   5.944   3.463  15.840 -0.0074  0.3073  0.8690
 5627TIP3    H138372   5.960   3.372  15.863  0.6267  0.3091  0.4474
 5627TIP3    H238373   5.885   3.495  15.909 -0.7421 -0.5847  0.6798
 5628TIP3   OH238374   2.582   4.236  16.245  0.0769 -0.1801  1.0266
 5628TIP3    H138375   2.677   4.238  16.263  0.3670  0.6281 -0.4620
 5628TIP3    H238376   2.574   4.189  16.163 -0.9828 -1.5541  1.8852
 5629TIP3   OH238377   1.389   1.718   1.824 -0.5964  0.4086 -0.1181
 5629TIP3    H138378   1.416   1.708   1.915 -0.5504  0.3509 -0.1383
 5629TIP3    H238379   1.407   1.633   1.784 -0.8055  0.3725 -0.1327
 5630TIP3   OH238380   2.208   4.573  13.864 -0.6066  0.0790 -0.7909
 5630TIP3    H138381   2.278   4.547  13.924 -0.6173  0.6239 -0.5356
 5630TIP3    H238382   2.253   4.621  13.794 -0.3936 -1.8368 -2.0475
 5631TIP3   OH238383   3.338   1.104   3.097  0.2925  0.1205  0.4425
 5631TIP3    H138384   3.256   1.055   3.108  1.3828 -1.8675  0.0803
 5631TIP3    H238385   3.358   1.137   3.185  1.0874 -2.7203  1.4090
 5632TIP3   OH238386   6.300   1.758  12.490  0.4127 -0.5803  0.0432
 5632TIP3    H138387   6.386   1.738  12.527  1.2193 -0.8102 -1.8371
 5632TIP3    H238388   6.273   1.678  12.446  0.3143  0.1580 -1.3092
 5633TIP3   OH238389   2.318   5.021   4.077  0.3831  0.0377 -0.8307
 5633TIP3    H138390   2.393   5.003   4.134  0.0323 -3.3965 -1.2010
 5633TIP3    H238391   2.354   5.016   3.988  0.3504  2.3033 -1.0347
 5634TIP3   OH238392   2.852   2.250  15.699  0.2732  0.0129  0.3068
 5634TIP3    H138393   2.785   2.308  15.661 -0.3990 -1.3171 -0.6258
 5634TIP3    H238394   2.812   2.216  15.779 -0.2650 -0.8922 -0.3228
 5635TIP3   OH238395   5.451   3.065   5.671 -0.1229  0.3411 -0.3627
 5635TIP3    H138396   5.367   3.107   5.689  0.1354  0.9509 -0.5344
 5635TIP3    H238397   5.511   3.102   5.736 -0.0589 -0.3432 -0.0217
 5636TIP3   OH238398   4.734   5.184  12.571 -0.7534  0.1116 -0.0314
 5636TIP3    H138399   4.700   5.182  12.660 -1.5216  1.2943 -0.2642
 5636TIP3    H238400   4.819   5.227  12.579  0.3939 -2.1376  0.4479
 5637TIP3   OH238401   3.442   0.522   0.269 -1.3348  0.2337 -0.5124
 5637TIP3    H138402   3.417   0.595   0.212 -0.5359  1.0625  0.1606
 5637TIP3    H238403   3.444   0.560   0.357  2.7056  0.4715 -0.4966
 5638TIP3   OH238404   3.105   0.330   5.773 -0.2967  0.3655  0.0394
 5638TIP3    H138405   3.148   0.341   5.858 -0.8320 -1.4889  0.5998
 5638TIP3    H238406   3.048   0.407   5.765  0.0292  0.7520  1.1970
 5639TIP3   OH238407   4.040   0.694  14.393  0.1388 -0.4190  0.1571
 5639TIP3    H138408   4.120   0.665  14.351 -1.1892 -1.8247 -1.5886
 5639TIP3    H238409   4.017   0.775  14.349 -1.0231 -1.6703 -1.7051
 5640TIP3   OH238410   0.385   1.971  15.595 -0.3090  0.1471 -0.4745
 5640TIP3    H138411   0.332   1.996  15.670 -0.5564 -0.7179 -0.3528
 5640TIP3    H238412   0.469   2.015  15.609 -0.5595  0.4898 -0.0184
 5641TIP3   OH238413   5.602   2.498  13.417  0.5310 -0.4313 -0.1753
 5641TIP3    H138414   5.613   2.583  13.374  0.9508  0.0057  0.7637
 5641TIP3    H238415   5.577   2.520  13.507 -0.0322 -1.3192 -0.1042
 5642TIP3   OH238416   1.506   6.718   5.625  0.0073 -0.8514  0.5253
 5642TIP3    H138417   1.479   6.804   5.658 -0.7782 -0.1756 -1.6919
 5642TIP3    H238418   1.507   6.661   5.702 -1.9241  0.5529  1.6541
 5643TIP3   OH238419   4.246   3.211  13.602 -0.3513  0.4437  0.2977
 5643TIP3    H138420   4.294   3.159  13.666 -1.7233 -1.6275 -0.2422
 5643TIP3    H238421   4.288   3.191  13.519 -2.5041 -2.1772 -0.3411
 5644TIP3   OH238422   4.554   6.265  11.393  0.2972  0.1329  0.0634
 5644TIP3    H138423   4.547   6.306  11.479  0.8439  0.3473  0.0097
 5644TIP3    H238424   4.473   6.214  11.384 -0.0892  0.6775  0.3985
 5645TIP3   OH238425   3.682   3.183  14.584 -0.0754  0.3953  0.5659
 5645TIP3    H138426   3.741   3.125  14.632  0.9993  2.5165  1.9707
 5645TIP3    H238427   3.722   3.191  14.497  0.6980  0.3328  0.9033
 5646TIP3   OH238428   2.704   4.395   0.493 -0.0539 -0.1210 -0.4027
 5646TIP3    H138429   2.734   4.321   0.546  1.0921  0.1994 -0.5798
 5646TIP3    H238430   2.614   4.373   0.469  0.1068 -1.2152 -0.0330
 5647TIP3   OH238431   0.577   6.501   3.144 -0.3682 -0.4963  0.2292
 5647TIP3    H138432   0.535   6.518   3.228 -0.6833  0.5770 -0.1396
 5647TIP3    H238433   0.506   6.505   3.080  0.0294 -0.2925 -0.2071
 5648TIP3   OH238434   1.101   2.466   1.970  0.4914 -0.5802  0.4878
 5648TIP3    H138435   1.164   2.407   1.927 -0.2351 -1.1098  0.1279
 5648TIP3    H238436   1.016   2.441   1.934 -0.0105 -0.3032  1.4359
 5649TIP3   OH238437   4.938   2.039   5.956 -0.0885 -0.1840 -0.3014
 5649TIP3    H138438   4.928   2.086   5.874  1.1156  0.5629 -0.0406
 5649TIP3    H238439   4.978   1.955   5.931  0.8485  0.2869 -0.4365
 5650TIP3   OH238440   5.338   0.965  15.807 -0.5981  0.1857 -0.5019
 5650TIP3    H138441   5.325   0.971  15.902  0.2416 -0.3504 -0.3430
 5650TIP3    H238442   5.358   0.873  15.791  1.9026  0.6975 -0.8244
 5651TIP3   OH238443   3.380   6.395  12.649  0.5830  0.3045 -0.1668
 5651TIP3    H138444   3.339   6.361  12.729  1.8178  0.9307  0.7504
 5651TIP3    H238445   3.372   6.323  12.586 -0.3087 -0.2343  0.5442
 5652TIP3   OH238446   1.071   2.412   3.183  0.8483 -0.0367  0.1778
 5652TIP3    H138447   1.087   2.463   3.103 -2.3341 -1.4896 -1.6000
 5652TIP3    H238448   1.005   2.462   3.231  0.2200 -0.8134  0.1396
 5653TIP3   OH238449   4.910   4.095  13.053 -0.2961  0.2720  0.2662
 5653TIP3    H138450   4.835   4.052  13.094  0.7969 -0.9829  1.0103
 5653TIP3    H238451   4.981   4.032  13.061  0.7565  1.2790 -0.7775
 5654TIP3   OH238452   5.664   4.270  10.810  0.1653 -0.0497 -0.4201
 5654TIP3    H138453   5.688   4.225  10.729 -0.3092 -0.3357 -0.4020
 5654TIP3    H238454   5.575   4.300  10.796 -0.3044 -0.9949  0.3692
 5655TIP3   OH238455   6.696   6.178   5.669 -0.6797  0.2155  0.8144
 5655TIP3    H138456   6.715   6.207   5.580  0.1520 -2.0205  0.2003
 5655TIP3    H238457   6.606   6.207   5.685 -0.4625  1.5965 -0.3196
 5656TIP3   OH238458   2.947   2.621  12.144  0.1384 -0.2963 -0.3492
 5656TIP3    H138459   3.032   2.596  12.109 -0.4383 -1.8445 -0.7415
 5656TIP3    H238460   2.888   2.551  12.115 -1.3035  0.8224 -0.2311
 5657TIP3   OH238461   2.365   3.198  12.814  0.3056 -0.0298  0.4400
 5657TIP3    H138462   2.461   3.191  12.816  0.2642 -0.4982  1.2124
 5657TIP3    H238463   2.347   3.252  12.738  1.2753  1.3591  1.1427
 5658TIP3   OH238464   0.616   3.910  13.559  0.4572  0.8272  0.1996
 5658TIP3    H138465   0.579   3.959  13.486 -0.3161  1.4714  1.0062
 5658TIP3    H238466   0.711   3.925  13.552  0.3503  1.2595 -0.3796
 5659TIP3   OH238467   4.486   5.132   0.006 -0.0246 -0.1171 -0.1649
 5659TIP3    H138468   4.500   5.163   0.095  0.0924  0.1839 -0.2871
 5659TIP3    H238469   4.555   5.174  -0.045 -1.0722  1.0071 -0.7008
 5660TIP3   OH238470   0.281   2.468  10.632 -0.9791  0.4128  0.0798
 5660TIP3    H138471   0.209   2.529  10.650 -0.7676  0.2458  1.6145
 5660TIP3    H238472   0.247   2.383  10.662 -1.2773 -0.2664 -2.0378
 5661TIP3   OH238473   5.321   0.326   4.924  0.1097  0.2951  0.3335
 5661TIP3    H138474   5.334   0.252   4.983  0.2518 -0.8113 -1.0361
 5661TIP3    H238475   5.229   0.350   4.935 -0.1915 -0.7132  0.1199
 5662TIP3   OH238476   4.815   2.010  13.589  0.2186 -0.5817  0.0050
 5662TIP3    H138477   4.771   1.991  13.672 -1.5943  0.9926 -0.5029
 5662TIP3    H238478   4.835   2.103  13.594  2.0579 -0.9193 -0.4913
 5663TIP3   OH238479   6.817   1.811  11.958  0.0859  0.2366  0.1321
 5663TIP3    H138480   6.882   1.801  11.888  0.1224  1.3449 -0.0042
 5663TIP3    H238481   6.850   1.882  12.012 -1.2375  1.1450 -0.2018
 5664TIP3   OH238482   4.409   3.626  12.643  0.3302 -0.6349  0.2577
 5664TIP3    H138483   4.450   3.696  12.694  1.3743 -0.5517 -0.6605
 5664TIP3    H238484   4.468   3.612  12.569 -0.8394 -1.1686 -0.6147
 5665TIP3   OH238485   3.858   1.572   3.635 -0.4098 -0.3694 -0.6860
 5665TIP3    H138486   3.822   1.656   3.663  2.5987  0.5343  1.0138
 5665TIP3    H238487   3.951   1.591   3.621  0.5777 -3.5789  0.6843
 5666TIP3   OH238488   3.206   3.367   2.713 -0.1498 -0.0202  0.0774
 5666TIP3    H138489   3.261   3.405   2.782  0.3491 -1.8138  0.7434
 5666TIP3    H238490   3.268   3.343   2.644 -0.5291  0.8835 -0.5909
 5667TIP3   OH238491   1.890   3.369  13.498  0.3427  0.1079 -0.2024
 5667TIP3    H138492   1.936   3.437  13.549 -0.4594  0.3026  0.2816
 5667TIP3    H238493   1.959   3.308  13.473  1.1327  1.2468 -0.8952
 5668TIP3   OH238494   0.093   4.801  15.212  0.2934 -0.2063 -0.3264
 5668TIP3    H138495  -0.002   4.810  15.225  0.4215 -1.1273  1.6502
 5668TIP3    H238496   0.120   4.883  15.172 -1.1206  0.7241  0.5431
 5669TIP3   OH238497   3.435   2.232   3.314  0.1154 -0.2858 -0.0010
 5669TIP3    H138498   3.378   2.155   3.322  0.8365 -1.2170 -2.6474
 5669TIP3    H238499   3.377   2.302   3.285  0.1311 -1.0739 -2.0864
 5670TIP3   OH238500   6.684   6.249  11.706 -0.0183 -0.3935 -1.1155
 5670TIP3    H138501   6.762   6.266  11.654  0.7320  0.4162  0.2065
 5670TIP3    H238502   6.695   6.160  11.739 -0.0684 -0.5801 -1.5941
 5671TIP3   OH238503   6.143   4.463   4.941 -0.6260 -0.4754  0.1354
 5671TIP3    H138504   6.229   4.488   4.973 -0.2058 -2.5992  0.8552
 5671TIP3    H238505   6.159   4.384   4.889 -2.2656 -1.8484  1.5893
 5672TIP3   OH238506   4.716   0.013   4.200 -0.1333 -0.2243 -0.4884
 5672TIP3    H138507   4.793  -0.041   4.218 -0.0654 -0.1058 -0.4201
 5672TIP3    H238508   4.651  -0.048   4.164  0.2807 -0.1788 -1.3490
 5673TIP3   OH238509   5.355   2.869   4.814 -0.8373  0.5119  0.1388
 5673TIP3    H138510   5.411   2.859   4.891  1.2738  1.3045 -1.2086
 5673TIP3    H238511   5.303   2.948   4.832  2.2705  2.9272 -0.6355
 5674TIP3   OH238512   0.258   2.501   0.035  0.4254  0.7318  0.2009
 5674TIP3    H138513   0.249   2.543  -0.050  1.4387 -0.5039 -0.5583
 5674TIP3    H238514   0.296   2.415   0.016  1.0429  0.5696  1.9222
 5675TIP3   OH238515   1.908   5.327   0.499 -0.2569  0.3221  0.0060
 5675TIP3    H138516   1.815   5.341   0.483  0.1609  2.6390 -0.8473
 5675TIP3    H238517   1.948   5.322   0.412  0.6059  1.1201  0.3358
 5676TIP3   OH238518   2.718   2.583  14.312  0.3711  0.0477  0.3552
 5676TIP3    H138519   2.632   2.554  14.279  0.4056  0.6473 -0.2946
 5676TIP3    H238520   2.698   2.662  14.363  0.2026 -1.3758  2.6216
 5677TIP3   OH238521   0.612   6.512   3.907  0.3950  0.3451 -0.7262
 5677TIP3    H138522   0.693   6.460   3.904 -0.6697 -1.3865 -0.7030
 5677TIP3    H238523   0.642   6.602   3.897  2.5031 -0.0565  1.1173
 5678TIP3   OH238524   6.379   6.335  12.951  0.7020  0.8061 -0.4185
 5678TIP3    H138525   6.330   6.308  13.028  3.0376 -0.7302  0.6691
 5678TIP3    H238526   6.336   6.291  12.878 -1.7267  2.5157 -0.1022
 5679TIP3   OH238527   5.533   3.397  10.658 -0.6370  1.0926  0.3009
 5679TIP3    H138528   5.473   3.330  10.626 -1.6550  0.8460  2.5734
 5679TIP3    H238529   5.482   3.448  10.720  1.2230  1.4290  1.6575
 5680TIP3   OH238530   0.507   4.865   3.001  0.3127 -0.0776 -0.3224
 5680TIP3    H138531   0.483   4.818   2.921 -1.0423 -0.7442  0.4408
 5680TIP3    H238532   0.436   4.845   3.062  1.0741  0.8252  0.8859
 5681TIP3   OH238533   2.153   2.343   5.151 -0.1450  0.2749  0.2191
 5681TIP3    H138534   2.156   2.438   5.145  1.8275  0.2079 -0.6399
 5681TIP3    H238535   2.060   2.321   5.143 -0.5048  2.0451 -0.9301
 5682TIP3   OH238536   1.803   3.676   4.242 -0.6041  1.0002  0.0038
 5682TIP3    H138537   1.766   3.599   4.199  0.7009  0.0245  0.5523
 5682TIP3    H238538   1.770   3.671   4.332  1.2271 -0.2394  0.6845
 5683TIP3   OH238539   4.724   2.483  15.683  0.4304  0.1651 -0.1896
 5683TIP3    H138540   4.736   2.421  15.611  2.2078  1.2044 -0.8487
 5683TIP3    H238541   4.807   2.530  15.688 -1.1633  3.2941 -0.5285
 5684TIP3   OH238542   5.314   2.696  11.884  0.3581  0.2285  0.2514
 5684TIP3    H138543   5.397   2.716  11.927  0.6107 -1.1505  0.4288
 5684TIP3    H238544   5.251   2.688  11.956  0.4686 -0.5777  0.2666
 5685TIP3   OH238545   6.391   3.068  14.335 -0.5176 -0.2724  0.6010
 5685TIP3    H138546   6.380   2.991  14.392  0.5948 -0.1644  0.9837
 5685TIP3    H238547   6.377   3.035  14.247 -1.1339 -0.6827  0.8464
 5686TIP3   OH238548   3.094   0.047   4.102  0.2176 -0.2630 -0.0792
 5686TIP3    H138549   3.177   0.082   4.134  0.8086 -1.0063 -0.7564
 5686TIP3    H238550   3.087   0.083   4.013  0.6846 -1.5909 -0.6724
 5687TIP3   OH238551   1.477   5.437  10.185  0.0688 -0.1691 -0.0254
 5687TIP3    H138552   1.532   5.482  10.249  0.4225 -0.9057  0.1928
 5687TIP3    H238553   1.403   5.405  10.236 -1.3132  2.0060 -0.5458
 5688TIP3   OH238554   0.569   6.762  15.895 -0.3941 -0.2494  0.1406
 5688TIP3    H138555   0.633   6.717  15.840 -1.3847 -1.8148  0.2147
 5688TIP3    H238556   0.615   6.779  15.977  0.5230  0.4559 -0.4997
 5689TIP3   OH238557   5.711   0.174   1.008 -0.8463 -0.6814 -0.6366
 5689TIP3    H138558   5.652   0.110   0.967 -2.2257 -0.5824  1.0861
 5689TIP3    H238559   5.724   0.141   1.097  0.8003 -0.0829 -0.6271
 5690TIP3   OH238560   2.462   5.963  15.584  0.4137  0.7099  0.1289
 5690TIP3    H138561   2.513   5.974  15.665  0.5702 -1.1041  0.3124
 5690TIP3    H238562   2.372   5.987  15.609  0.7492  1.7914  0.3725
 5691TIP3   OH238563   1.396   6.607   5.384 -0.1650  0.3707 -0.3165
 5691TIP3    H138564   1.397   6.690   5.337 -1.2625  0.7994  0.3738
 5691TIP3    H238565   1.444   6.624   5.464 -2.0612  0.9546  0.7534
 5692TIP3   OH238566   6.794   6.261  12.606 -0.7302 -0.1733  0.3322
 5692TIP3    H138567   6.882   6.226  12.609 -0.8390 -0.4140  2.5037
 5692TIP3    H238568   6.798   6.341  12.659 -1.6510  0.2146 -0.1524
 5693TIP3   OH238569   6.235   6.668  14.884 -0.2447 -0.2131 -0.0920
 5693TIP3    H138570   6.210   6.747  14.836  0.2078 -0.1850 -0.2789
 5693TIP3    H238571   6.329   6.675  14.897  0.4055 -2.1391 -2.7989
 5694TIP3   OH238572   4.246   0.031  16.390  0.1421  0.3078  0.0839
 5694TIP3    H138573   4.187   0.090  16.436 -0.0738  1.4344 -1.5683
 5694TIP3    H238574   4.203  -0.054  16.394 -1.3217  0.9933 -0.5968
 5695TIP3   OH238575   4.117   3.346   4.874  0.0272 -0.3295 -0.2705
 5695TIP3    H138576   4.184   3.285   4.841  0.5730  0.7478 -1.2313
 5695TIP3    H238577   4.136   3.428   4.829 -2.6125 -0.2594 -1.4470
 5696TIP3   OH238578   1.885   5.025  11.798  0.2595 -0.1082 -0.1214
 5696TIP3    H138579   1.955   5.080  11.832  3.1323 -2.0695 -2.4268
 5696TIP3    H238580   1.854   5.071  11.720  0.9515 -0.5601 -0.6690
 5697TIP3   OH238581   5.232   5.298   1.369 -0.4941 -0.6316 -0.7476
 5697TIP3    H138582   5.223   5.393   1.378  2.1864 -0.2118 -1.7336
 5697TIP3    H238583   5.146   5.269   1.338 -1.0191  1.6398 -1.6165
 5698TIP3   OH238584   1.983   1.259   4.475  0.2422  0.4967  0.0628
 5698TIP3    H138585   1.920   1.247   4.547 -0.2391  0.9900 -0.2631
 5698TIP3    H238586   2.001   1.171   4.444 -2.8492  0.4045 -1.9874
 5699TIP3   OH238587   5.878   4.915   2.326  0.2603  0.1123  0.3149
 5699TIP3    H138588   5.936   4.921   2.251 -0.4628  0.4025 -0.2333
 5699TIP3    H238589   5.894   4.995   2.375 -0.4277  0.6872 -0.3913
 5700TIP3   OH238590   5.755   0.680   3.453 -0.4568 -0.0850 -0.1174
 5700TIP3    H138591   5.678   0.665   3.509 -0.8139 -0.7963 -0.7820
 5700TIP3    H238592   5.798   0.595   3.449 -0.5157 -0.0776 -1.0400
 5701TIP3   OH238593   1.736   0.041   2.217  0.2478 -0.6486  0.0402
 5701TIP3    H138594   1.785   0.099   2.159  1.1355 -0.6099  0.8178
 5701TIP3    H238595   1.780   0.048   2.302 -2.0289  0.6404  1.2302
 5702TIP3   OH238596   0.386   4.647   3.543  0.2631  0.0399  0.0398
 5702TIP3    H138597   0.413   4.589   3.614 -3.0926 -1.0640  0.6392
 5702TIP3    H238598   0.353   4.725   3.587 -0.5521 -0.0670 -0.3624
 5703TIP3   OH238599   6.456   1.123   5.916  0.1265  0.2355 -0.4117
 5703TIP3    H138600   6.470   1.210   5.878 -0.5166  0.3448 -0.4012
 5703TIP3    H238601   6.426   1.139   6.005  1.3377 -0.0210  0.0661
 5704TIP3   OH238602   0.418   3.549   5.886  0.2309  0.1774 -0.5467
 5704TIP3    H138603   0.383   3.576   5.971 -0.9491 -0.7532 -0.6983
 5704TIP3    H238604   0.508   3.524   5.904 -0.3363 -1.1385  0.7089
 5705TIP3   OH238605   0.582   6.185   1.981 -0.5017  0.1740  0.2619
 5705TIP3    H138606   0.666   6.190   2.028  0.6895 -0.3365 -1.7134
 5705TIP3    H238607   0.568   6.274   1.949  0.4156 -0.1629 -1.1882
 5706TIP3   OH238608   3.265   0.568   1.499  0.1569  0.5325  0.3451
 5706TIP3    H138609   3.198   0.555   1.431  0.0593  2.1503  0.0911
 5706TIP3    H238610   3.336   0.614   1.454  0.8647  0.0332  0.9371
 5707TIP3   OH238611   0.384   3.259  16.064 -0.1665 -0.2872  0.0863
 5707TIP3    H138612   0.444   3.320  16.106  1.0310 -0.4757 -1.2592
 5707TIP3    H238613   0.424   3.242  15.978 -1.8483 -0.8826 -0.6136
 5708TIP3   OH238614   6.473   5.600   1.131 -0.0821 -0.2956  0.6359
 5708TIP3    H138615   6.418   5.661   1.180  1.6367  1.9555 -0.0749
 5708TIP3    H238616   6.421   5.580   1.053  0.7756  3.6324 -1.1986
 5709TIP3   OH238617   3.232   0.112  11.070  0.5468  0.2167 -0.2013
 5709TIP3    H138618   3.280   0.047  11.122  1.2203 -1.9436 -3.2519
 5709TIP3    H238619   3.146   0.072  11.056 -0.6288  2.0094  1.3960
 5710TIP3   OH238620   4.768   4.909   3.408  0.1702 -0.3266 -0.2555
 5710TIP3    H138621   4.782   4.859   3.488 -0.8786 -0.2937 -0.0462
 5710TIP3    H238622   4.762   4.843   3.339  2.7323 -0.3065 -0.6181
 5711TIP3   OH238623   2.978   1.205   1.828 -0.0503 -0.0700  0.2175
 5711TIP3    H138624   2.895   1.252   1.836  0.4366  0.6745  1.0662
 5711TIP3    H238625   3.023   1.222   1.911  1.0278 -0.3106 -0.3048
 5712TIP3   OH238626   4.409   4.848   0.196  0.2919 -0.0086  0.1911
 5712TIP3    H138627   4.314   4.857   0.190  0.3320 -0.1395 -0.8311
 5712TIP3    H238628   4.442   4.890   0.116  1.0653 -0.3289  0.3347
 5713TIP3   OH238629   2.389   6.171   2.770 -1.0481 -0.0282 -0.5811
 5713TIP3    H138630   2.309   6.150   2.721 -2.3647  2.2501  0.4334
 5713TIP3    H238631   2.373   6.137   2.858 -0.4333 -0.4785 -0.6379
 5714TIP3   OH238632   0.504   3.692  12.744 -0.2410  0.4721 -0.0465
 5714TIP3    H138633   0.516   3.597  12.753  0.7331  0.6235  0.3956
 5714TIP3    H238634   0.528   3.710  12.652 -0.0161  0.3404 -0.0162
 5715TIP3   OH238635   5.134   5.538   1.738 -0.0763  0.0035 -0.0516
 5715TIP3    H138636   5.216   5.489   1.744 -0.9111 -1.2996  1.5372
 5715TIP3    H238637   5.107   5.551   1.829 -1.8393  0.0303 -0.5411
 5716TIP3   OH238638   3.478   5.319   2.799 -0.4850 -0.0238 -0.1380
 5716TIP3    H138639   3.503   5.330   2.707  2.5027 -1.4111  0.3745
 5716TIP3    H238640   3.474   5.408   2.834 -2.2416  0.5594 -1.6581
 5717TIP3   OH238641   2.917   3.419  15.463  0.6049 -0.8697 -0.0965
 5717TIP3    H138642   2.922   3.361  15.386 -1.6433 -0.9684 -0.2332
 5717TIP3    H238643   2.828   3.409  15.494  0.7155  1.1440  1.0126
 5718TIP3   OH238644   4.979   2.250   3.314 -0.3477  0.6479 -0.7349
 5718TIP3    H138645   4.896   2.280   3.351 -1.2312 -2.1555 -0.1772
 5718TIP3    H238646   5.040   2.254   3.387  0.1661  2.9553 -1.2080
 5719TIP3   OH238647   0.224   4.288   2.773  0.3875  0.1936  0.0345
 5719TIP3    H138648   0.145   4.279   2.827  0.2566  1.2846  0.0425
 5719TIP3    H238649   0.288   4.231   2.814 -0.4692 -0.9144 -0.1223
 5720TIP3   OH238650   4.423   0.789   0.892 -0.2131  0.0407 -0.0733
 5720TIP3    H138651   4.507   0.813   0.932 -0.8727  1.1858  0.6772
 5720TIP3    H238652   4.393   0.713   0.942 -0.6854  1.0207  1.1873
 5721TIP3   OH238653   2.463   0.338   0.534 -0.0324 -0.1997  0.2388
 5721TIP3    H138654   2.536   0.381   0.580  0.1959 -0.7306  0.3714
 5721TIP3    H238655   2.501   0.259   0.496 -0.5766 -0.5769  0.4651
 5722TIP3   OH238656   5.173   6.341  16.030 -0.6685 -0.1350  0.5436
 5722TIP3    H138657   5.191   6.381  15.945 -1.7605  0.7843  0.7078
 5722TIP3    H238658   5.217   6.398  16.093 -0.6894 -0.2460  0.6601
 5723TIP3   OH238659   2.992   1.115   1.013  0.0114  0.3455  0.5196
 5723TIP3    H138660   2.951   1.059   1.080  0.9561  0.4180  1.1803
 5723TIP3    H238661   2.964   1.204   1.036  0.0234  0.3292  0.5991
 5724TIP3   OH238662   4.582   4.870   1.189 -0.2127  0.5525  0.0729
 5724TIP3    H138663   4.666   4.903   1.159 -0.2460  2.6575  2.0179
 5724TIP3    H238664   4.604   4.800   1.250  0.0748  0.2665 -0.3585
 5725TIP3   OH238665   4.072   1.151  14.136  0.4175 -0.0452 -0.1152
 5725TIP3    H138666   3.996   1.208  14.146  0.2322 -0.2191 -0.5206
 5725TIP3    H238667   4.134   1.183  14.202 -0.3873 -0.5486  0.9155
 5726TIP3   OH238668   5.926   3.564  10.749 -0.4462  0.3578 -0.7546
 5726TIP3    H138669   5.874   3.510  10.809  0.9298 -0.4025 -0.1954
 5726TIP3    H238670   5.863   3.625  10.711 -1.3647  1.0285  1.6193
 5727TIP3   OH238671   2.986   3.451   2.550  0.5895 -0.0535 -0.3614
 5727TIP3    H138672   3.056   3.454   2.615 -1.3319  0.5583  1.8310
 5727TIP3    H238673   2.934   3.374   2.575 -0.9439  0.9621 -0.2726
 5728TIP3   OH238674   1.319   4.069  11.686 -0.2443  0.1815  0.5797
 5728TIP3    H138675   1.266   4.110  11.617  2.2198  2.3255 -0.2233
 5728TIP3    H238676   1.378   4.010  11.638  0.0861  0.1040  1.0766
 5729TIP3   OH238677   0.090   3.739   2.671 -0.1809 -0.3952 -0.8540
 5729TIP3    H138678   0.142   3.679   2.724  1.9838  1.3814 -0.7766
 5729TIP3    H238679   0.125   3.729   2.583 -1.0837 -0.5851 -1.1890
 5730TIP3   OH238680   3.646   2.516   5.462 -0.4191 -0.3005 -0.5498
 5730TIP3    H138681   3.619   2.580   5.527 -0.5367 -0.3331 -0.5664
 5730TIP3    H238682   3.718   2.468   5.504  1.4622  1.5735 -1.5096
 5731TIP3   OH238683   4.391   3.355   5.723  0.2169  0.2140  0.7969
 5731TIP3    H138684   4.419   3.445   5.739 -0.8124  0.8787 -0.9095
 5731TIP3    H238685   4.464   3.315   5.677  0.0427  0.6735  0.1096
 5732TIP3   OH238686   6.823   3.010   0.527  0.5590 -0.0361  0.1774
 5732TIP3    H138687   6.738   3.025   0.485  0.1552  0.1581  1.0352
 5732TIP3    H238688   6.860   2.936   0.480  0.5767  0.8102 -1.1825
 5733TIP3   OH238689   2.842   6.787   2.359 -0.1502 -0.0657 -0.3653
 5733TIP3    H138690   2.929   6.815   2.386 -0.0138  0.6024 -1.4175
 5733TIP3    H238691   2.848   6.692   2.351  0.1808 -0.1310  0.5716
 5734TIP3   OH238692   3.436   1.171   2.475  0.4046  0.7048 -0.3339
 5734TIP3    H138693   3.464   1.259   2.499 -0.7297  1.1114 -0.4267
 5734TIP3    H238694   3.444   1.167   2.380 -0.5859  1.1044 -0.4459
 5735TIP3   OH238695   4.421   1.013  15.282  0.6996  0.6948 -1.3278
 5735TIP3    H138696   4.390   1.043  15.197 -0.8692  0.5047 -0.8533
 5735TIP3    H238697   4.355   1.043  15.344  1.1731 -0.2379 -0.3371
 5736TIP3   OH238698   3.324   3.551   2.385  0.3062 -0.7279 -0.1120
 5736TIP3    H138699   3.345   3.609   2.458  2.7343  0.6026 -1.7421
 5736TIP3    H238700   3.320   3.609   2.309  1.0230 -2.4481 -1.5274
 5737TIP3   OH238701   2.845   0.157   2.055  0.7039 -0.2137  0.7698
 5737TIP3    H138702   2.899   0.173   1.978  2.9768  0.2777  2.3643
 5737TIP3    H238703   2.795   0.238   2.067  0.7420 -0.0908  0.1086
 5738TIP3   OH238704   6.731   3.571  11.199  0.3973  0.2982 -0.4468
 5738TIP3    H138705   6.731   3.665  11.215 -3.1127 -0.1256  3.9882
 5738TIP3    H238706   6.787   3.534  11.267  0.3410 -0.9261 -1.0277
 5739TIP3   OH238707   5.044   6.662   3.408 -0.2471 -0.1913 -0.0839
 5739TIP3    H138708   5.033   6.723   3.481 -0.1879 -1.7734  1.3016
 5739TIP3    H238709   5.130   6.622   3.422  0.6726  0.8759 -2.1624
 5740TIP3   OH238710   4.943   5.842  14.494 -0.0041 -0.3835  0.1702
 5740TIP3    H138711   4.855   5.831  14.458  0.1426 -1.1232  0.0211
 5740TIP3    H238712   4.945   5.933  14.526 -0.9653 -0.4870  0.5665
 5741TIP3   OH238713   4.514   6.336  17.178  0.0981 -1.0347 -0.0675
 5741TIP3    H138714   4.575   6.408  17.159 -1.6725  0.3721 -0.7421
 5741TIP3    H238715   4.492   6.300  17.091 -0.0238 -1.5473  0.1698
 5742TIP3   OH238716   4.745   5.310  12.042 -0.2134 -0.1893  0.2546
 5742TIP3    H138717   4.763   5.327  11.949 -1.0792 -2.1592 -0.3252
 5742TIP3    H238718   4.654   5.334  12.054 -0.0627  0.2012  0.6379
 5743TIP3   OH238719   0.490   1.750   1.861 -0.2286  0.4924  0.4392
 5743TIP3    H138720   0.402   1.711   1.869  0.5894 -1.1780  2.0575
 5743TIP3    H238721   0.543   1.681   1.823  0.6988  0.9749  0.8240
 5744TIP3   OH238722   2.899   1.948   6.028 -0.0296  0.3204 -0.6780
 5744TIP3    H138723   2.988   1.923   6.003 -0.0263  0.3645 -0.7106
 5744TIP3    H238724   2.844   1.880   5.989  0.1622 -1.1419  1.4260
 5745TIP3   OH238725   3.031   1.626   4.236  0.0413  0.0152  0.2245
 5745TIP3    H138726   2.976   1.658   4.164 -1.0527 -1.3724  0.3985
 5745TIP3    H238727   2.989   1.660   4.315 -0.5574 -0.9693  0.3524
 5746TIP3   OH238728   1.953   5.180   0.230  0.1229 -0.1073  0.3652
 5746TIP3    H138729   1.947   5.089   0.260  0.5776 -0.0004  0.7955
 5746TIP3    H238730   1.973   5.173   0.137  0.0656 -0.4482  0.3763
 5747TIP3   OH238731   1.709   0.558   4.351  0.5903  0.1519 -0.5166
 5747TIP3    H138732   1.616   0.575   4.334  0.7863  0.8917 -0.9212
 5747TIP3    H238733   1.727   0.601   4.434  0.1526 -1.5774  0.5188
 5748TIP3   OH238734   6.119   0.522   1.091 -0.2284 -0.0467  0.6527
 5748TIP3    H138735   6.110   0.428   1.071 -0.6437 -0.3754  2.2225
 5748TIP3    H238736   6.112   0.565   1.006 -2.4557 -1.2909  0.1121
 5749TIP3   OH238737   4.686   4.003   2.863 -0.3605  0.2256 -0.2432
 5749TIP3    H138738   4.753   4.032   2.800  1.6490 -0.1179  1.5922
 5749TIP3    H238739   4.736   3.982   2.942 -2.5652 -1.1965  0.8592
 5750TIP3   OH238740   1.795   0.240   0.990  1.0294 -0.0209  1.0484
 5750TIP3    H138741   1.766   0.155   1.022  0.1121 -0.7767 -1.5582
 5750TIP3    H238742   1.879   0.222   0.947  0.1914  0.0581 -0.7022
 5751TIP3   OH238743   4.450   1.911   5.408 -0.3088  0.6977 -0.4408
 5751TIP3    H138744   4.371   1.965   5.413 -0.1198  0.8830  2.4496
 5751TIP3    H238745   4.522   1.975   5.408 -0.1131  0.4913 -1.3792
 5752TIP3   OH238746   5.664   4.712   4.650  0.7471 -0.0433  0.2356
 5752TIP3    H138747   5.633   4.659   4.724 -2.2847 -0.6173 -1.2859
 5752TIP3    H238748   5.730   4.657   4.609  1.3706 -0.3692  1.5913
 5753TIP3   OH238749   5.119   1.155  16.422  0.5463  0.2255 -0.0669
 5753TIP3    H138750   5.114   1.067  16.459  0.4638  0.1834 -0.1796
 5753TIP3    H238751   5.171   1.145  16.342 -0.8042 -0.0033 -0.9431
 5754TIP3   OH238752   3.076   5.909   5.263 -0.3199 -0.3997 -0.6707
 5754TIP3    H138753   3.038   5.941   5.344  1.1105  0.7052 -0.3838
 5754TIP3    H238754   3.164   5.878   5.287 -0.9717 -2.9639 -1.2792
 5755TIP3   OH238755   6.068   6.408   3.445  0.6630 -0.4338  0.4149
 5755TIP3    H138756   6.154   6.377   3.418  0.4263 -0.3248 -0.4818
 5755TIP3    H238757   6.086   6.474   3.512  1.3287  0.2512 -0.4196
 5756TIP3   OH238758   0.592   5.334  13.265  0.7070  0.4911  0.4243
 5756TIP3    H138759   0.520   5.276  13.290 -0.1278  2.3054  2.6480
 5756TIP3    H238760   0.668   5.298  13.311  0.5719  0.2285  0.4473
 5757TIP3   OH238761   3.848   1.716   4.006 -0.8047  0.3700  0.6371
 5757TIP3    H138762   3.860   1.648   4.072  0.8546 -0.4332 -0.4404
 5757TIP3    H238763   3.754   1.713   3.985 -0.4760 -3.2963 -1.0773
 5758TIP3   OH238764   0.256   3.798   3.611 -0.4254  0.2313  0.4495
 5758TIP3    H138765   0.222   3.799   3.700  0.3841  0.0717  0.7689
 5758TIP3    H238766   0.314   3.874   3.607  0.0822 -0.1633  0.2761
 5759TIP3   OH238767   5.305   3.496  15.685 -0.1625 -0.0369 -0.1559
 5759TIP3    H138768   5.214   3.523  15.678  0.0852  0.9551  0.3201
 5759TIP3    H238769   5.304   3.403  15.664 -1.2869 -0.0473 -0.0976
 5760TIP3   OH238770   3.955   4.438   4.914  0.3244  0.4886 -0.1172
 5760TIP3    H138771   3.952   4.364   4.853  0.5478  1.1785 -0.9848
 5760TIP3    H238772   3.942   4.398   5.000 -3.9933 -0.1602 -0.8301
 5761TIP3   OH238773   1.340   6.153  17.046  0.2700 -0.0577  0.2057
 5761TIP3    H138774   1.346   6.245  17.023 -0.7369  0.1389  0.6398
 5761TIP3    H238775   1.428   6.129  17.075  0.1911  1.1909  1.5960
 5762TIP3   OH238776   5.197   4.157  16.364 -0.7182  0.3749  0.3949
 5762TIP3    H138777   5.169   4.091  16.428 -0.5647  0.8770  0.9829
 5762TIP3    H238778   5.254   4.109  16.304 -0.9965 -0.1378  0.5286
 5763TIP3   OH238779   0.683   2.819   5.408  0.3261 -0.2702  0.1165
 5763TIP3    H138780   0.619   2.767   5.359  0.3997  0.3316 -0.6295
 5763TIP3    H238781   0.768   2.783   5.382  0.3109 -1.2616  1.3259
 5764TIP3   OH238782   0.020   1.643   2.932 -0.1385 -0.0956 -0.5625
 5764TIP3    H138783   0.038   1.710   2.998  1.2056  0.2288 -1.2187
 5764TIP3    H238784   0.099   1.641   2.878 -0.1923 -2.1289 -0.6394
 5765TIP3   OH238785   5.368   5.744   2.197 -0.1138 -0.2808 -0.0453
 5765TIP3    H138786   5.435   5.812   2.205 -0.5599  0.0678  0.7893
 5765TIP3    H238787   5.414   5.663   2.218  0.1617 -0.1017  0.0505
 5766TIP3   OH238788   2.345   1.745   4.111  0.0087 -0.0449 -0.3572
 5766TIP3    H138789   2.264   1.791   4.131 -0.4884 -1.3757  0.9283
 5766TIP3    H238790   2.317   1.665   4.066  0.6135 -0.3530 -0.2073
 5767TIP3   OH238791   5.412   4.053  13.173  0.2145 -0.0487 -0.0051
 5767TIP3    H138792   5.475   4.009  13.230 -1.0574  0.1314  1.6296
 5767TIP3    H238793   5.390   4.134  13.219 -1.1927 -0.1021 -0.5195
 5768TIP3   OH238794   0.786   5.320   5.004  0.1143  0.5766 -0.0540
 5768TIP3    H138795   0.880   5.334   5.011 -0.0501  2.2035 -0.7187
 5768TIP3    H238796   0.760   5.290   5.091  1.1812  0.4205  0.2262
 5769TIP3   OH238797   4.105   4.400  14.132  0.8575  0.1341 -0.7222
 5769TIP3    H138798   4.021   4.429  14.168  1.5743  1.3733  0.0272
 5769TIP3    H238799   4.122   4.316  14.176  0.0124 -0.1330 -0.8925
 5770TIP3   OH238800   0.478   2.294  14.910  0.2270 -0.0457  0.8984
 5770TIP3    H138801   0.529   2.357  14.960  1.6905 -0.3298 -0.1611
 5770TIP3    H238802   0.495   2.210  14.951 -0.2379 -0.0062  1.1792
 5771TIP3   OH238803   3.789   5.638  13.843  0.4044  0.0403 -0.0156
 5771TIP3    H138804   3.704   5.680  13.831  0.9131  0.9358 -0.5524
 5771TIP3    H238805   3.789   5.566  13.780  0.4427  0.6675 -0.7458
 5772TIP3   OH238806   6.630   5.026  15.664  0.1138 -0.4678  0.6952
 5772TIP3    H138807   6.627   4.965  15.591  0.1335  0.9348 -0.5231
 5772TIP3    H238808   6.583   5.103  15.633  2.6772  1.3506  1.0177
 5773TIP3   OH238809   3.907   1.357  14.676 -0.2762  0.6190  0.1883
 5773TIP3    H138810   3.935   1.448  14.685 -0.5451  0.6766  0.4405
 5773TIP3    H238811   3.885   1.330  14.765  1.1177 -0.1252  0.3420
 5774TIP3   OH238812   0.908   0.373  13.428 -0.0609  0.8424  0.6025
 5774TIP3    H138813   1.000   0.388  13.407 -0.3311  1.2703 -0.3403
 5774TIP3    H238814   0.862   0.448  13.390 -1.2323 -1.2257 -2.4857
 5775TIP3   OH238815   4.664   5.148  12.836 -0.0817 -0.3432  0.1868
 5775TIP3    H138816   4.576   5.113  12.851  0.1363 -0.7557  0.4979
 5775TIP3    H238817   4.719   5.071  12.825  0.0926 -0.0767 -0.9036
 5776TIP3   OH238818   0.216   5.519   1.858 -0.2141 -0.5028 -0.4193
 5776TIP3    H138819   0.263   5.436   1.849 -1.9362 -1.5361 -0.2491
 5776TIP3    H238820   0.255   5.575   1.791  0.3664 -1.7525 -1.1663
 5777TIP3   OH238821   3.615   6.109   0.963  0.2499 -0.5639 -0.3864
 5777TIP3    H138822   3.646   6.189   1.004  1.7593 -0.8278 -0.9675
 5777TIP3    H238823   3.598   6.133   0.872 -0.5322 -0.6111 -0.2604
 5778TIP3   OH238824   1.012   3.753  15.729  0.0238 -0.2538  0.5363
 5778TIP3    H138825   1.052   3.834  15.697  0.5824 -1.1762 -1.1989
 5778TIP3    H238826   1.079   3.686  15.717 -0.8160 -1.1880  0.9010
 5779TIP3   OH238827   4.929   3.753  12.051 -0.0006  0.0269 -0.2547
 5779TIP3    H138828   4.954   3.739  12.142  0.9863  0.8865 -0.3804
 5779TIP3    H238829   4.851   3.698  12.039  0.9041 -1.5030  0.5945
 5780TIP3   OH238830   4.954   2.262  16.005  0.1608 -0.3853  0.4887
 5780TIP3    H138831   4.900   2.216  15.941  0.9508  0.7718 -1.0906
 5780TIP3    H238832   4.993   2.193  16.058 -1.2148 -1.3315  0.2901
 5781TIP3   OH238833   6.109   4.828  16.095 -0.0688  0.2748  0.1447
 5781TIP3    H138834   6.122   4.876  16.014 -0.7719 -0.7057 -0.5698
 5781TIP3    H238835   6.106   4.736  16.069 -2.4550  0.0479  0.9498
 5782TIP3   OH238836   5.327   4.227  12.816  0.1693  0.2217 -0.3046
 5782TIP3    H138837   5.266   4.252  12.885  1.5164  1.2586  0.5691
 5782TIP3    H238838   5.359   4.310  12.781 -0.4995 -0.2681 -2.2494
 5783TIP3   OH238839   0.195   3.871   3.283 -0.2558 -0.3541 -0.2672
 5783TIP3    H138840   0.167   3.962   3.270  0.4733  0.2135  1.7245
 5783TIP3    H238841   0.261   3.876   3.351 -1.5154 -2.5683  1.2556
 5784TIP3   OH238842   3.396   1.789   6.378  0.5862  0.6547  0.1562
 5784TIP3    H138843   3.359   1.842   6.449  0.6061  0.2014  0.5080
 5784TIP3    H238844   3.482   1.829   6.361  0.3173  1.1509 -0.0473
 5785TIP3   OH238845   1.272   1.096   6.060 -0.1226  0.4336  0.1682
 5785TIP3    H138846   1.280   1.191   6.069 -0.1261  0.3906  0.6414
 5785TIP3    H238847   1.260   1.064   6.149 -3.1143  0.2403 -0.2269
 5786TIP3   OH238848   6.370   5.442  14.627 -0.4977  0.0248 -0.2905
 5786TIP3    H138849   6.402   5.478  14.710 -0.1252  0.6765 -0.7104
 5786TIP3    H238850   6.370   5.347  14.641 -0.3893  0.1238  0.4359
 5787TIP3   OH238851   2.826   1.720  15.800 -0.1314  0.2017 -0.3000
 5787TIP3    H138852   2.920   1.739  15.802 -0.1431  0.2221  0.2704
 5787TIP3    H238853   2.795   1.744  15.887 -0.3122 -1.6189  0.1820
 5788TIP3   OH238854   1.740   1.489   0.695 -0.3633  0.3353  0.1983
 5788TIP3    H138855   1.744   1.409   0.643  0.2510  0.6668 -0.2713
 5788TIP3    H238856   1.691   1.551   0.641  0.4541  0.7451 -0.0968
 5789TIP3   OH238857   1.585   5.127   0.421  0.2483 -0.4568 -0.5231
 5789TIP3    H138858   1.599   5.221   0.405 -0.8972 -0.0560  0.6838
 5789TIP3    H238859   1.644   5.106   0.493  1.7690 -1.1129 -1.8786
 5790TIP3   OH238860   0.944   2.038  14.102  0.0568  0.2874 -0.4542
 5790TIP3    H138861   0.993   2.112  14.138 -0.0729 -0.2899  0.9856
 5790TIP3    H238862   0.915   1.990  14.179 -2.0537  0.1376 -1.2837
 5791TIP3   OH238863   0.389   6.083  16.376 -0.0735  0.5170  0.2699
 5791TIP3    H138864   0.321   6.019  16.399 -0.1938  0.2057 -0.9032
 5791TIP3    H238865   0.430   6.105  16.460 -1.6068  0.7046  1.0224
 5792TIP3   OH238866   0.900   0.203  15.273 -0.0936 -0.2129 -0.4395
 5792TIP3    H138867   0.864   0.274  15.327 -0.8480  1.7635 -3.2940
 5792TIP3    H238868   0.823   0.157  15.239  0.3270 -0.9040 -0.4792
 5793TIP3   OH238869   6.554   0.799   2.111  0.0650 -0.3591 -0.0060
 5793TIP3    H138870   6.518   0.778   2.025  0.7473 -0.4978 -0.2674
 5793TIP3    H238871   6.602   0.721   2.136  0.9383  0.1419 -0.0800
 5794TIP3   OH238872   1.379   0.361   5.490 -0.0287  0.0557 -0.0416
 5794TIP3    H138873   1.319   0.376   5.417  0.0190  0.0136 -0.0888
 5794TIP3    H238874   1.453   0.316   5.451  0.0480  0.1348  0.0122
 5795TIP3   OH238875   2.423   5.227  15.770  0.0148 -0.2169  0.1525
 5795TIP3    H138876   2.347   5.274  15.737 -0.8014 -0.7373  1.2425
 5795TIP3    H238877   2.476   5.294  15.814  0.0689  0.0944 -0.3764
 5796TIP3   OH238878   5.016   2.612  11.357 -1.2450 -0.2661 -0.2681
 5796TIP3    H138879   4.924   2.616  11.382 -0.4947 -0.2178  3.0695
 5796TIP3    H238880   5.053   2.694  11.390  0.6264 -1.9136  2.0941
 5797TIP3   OH238881   2.809   5.332  11.488 -0.1060 -0.1780 -0.1980
 5797TIP3    H138882   2.830   5.309  11.398 -0.9311 -0.5674 -0.3064
 5797TIP3    H238883   2.893   5.331  11.534  0.1796 -1.1375 -0.7163
 5798TIP3   OH238884   1.638   2.566   5.828  0.3604  0.3146 -0.0265
 5798TIP3    H138885   1.699   2.541   5.898  0.1864  0.1411  0.0627
 5798TIP3    H238886   1.587   2.638   5.866 -1.1937 -1.1726  0.8032
 5799TIP3   OH238887   4.450   2.053   0.720 -0.0474  0.1719 -0.3165
 5799TIP3    H138888   4.416   2.059   0.631 -1.6635 -1.9572  0.1049
 5799TIP3    H238889   4.533   2.007   0.710 -1.6127 -2.8108 -0.5166
 5800TIP3   OH238890   2.511   1.163   2.486  0.0550  0.3216 -0.4351
 5800TIP3    H138891   2.523   1.073   2.457  0.4000  0.2027  0.0692
 5800TIP3    H238892   2.544   1.165   2.575  0.3035  1.0127 -0.5322
 5801TIP3   OH238893   3.437   3.766  12.490  0.1932 -0.1410  0.0648
 5801TIP3    H138894   3.498   3.814  12.434  2.3960 -0.4302  2.0352
 5801TIP3    H238895   3.351   3.793  12.461  1.2898  2.3856 -1.1452
 5802TIP3   OH238896   2.506   6.731  13.212  0.6558 -0.1791 -0.1645
 5802TIP3    H138897   2.446   6.792  13.255  2.1593  1.0983  0.2099
 5802TIP3    H238898   2.545   6.681  13.284  1.8348  0.7042 -0.1677
 5803TIP3   OH238899   6.826   5.389  15.323 -0.3329 -0.4184 -0.6415
 5803TIP3    H138900   6.766   5.373  15.250 -1.0385  0.5184 -0.2834
 5803TIP3    H238901   6.859   5.302  15.347  0.1922 -0.7136 -2.2939
 5804TIP3   OH238902   6.535   0.105   5.030 -0.2209  0.2174 -0.1089
 5804TIP3    H138903   6.618   0.072   4.996 -1.1229 -0.3471 -1.8653
 5804TIP3    H238904   6.544   0.200   5.027 -0.2392  0.1845 -1.9094
 5805TIP3   OH238905   3.401   0.714   5.366 -0.1203 -0.2404  0.9645
 5805TIP3    H138906   3.436   0.774   5.300 -0.9167 -0.0783  0.6819
 5805TIP3    H238907   3.379   0.634   5.318 -1.2752  0.0937  0.8978
 5806TIP3   OH238908   1.336   1.134  14.312 -0.2733  0.8922 -0.0186
 5806TIP3    H138909   1.383   1.209  14.276 -2.6137  1.6371 -1.7885
 5806TIP3    H238910   1.245   1.150  14.290 -1.3384 -0.7745  2.6948
 5807TIP3   OH238911   0.665   4.634   2.181  0.3902 -0.0944  0.3444
 5807TIP3    H138912   0.612   4.714   2.189 -0.9415 -0.9387  0.3212
 5807TIP3    H238913   0.606   4.571   2.139  2.2340 -0.3667 -1.9959
 5808TIP3   OH238914   3.649   2.605   5.831 -0.5246  0.1077  0.4850
 5808TIP3    H138915   3.688   2.518   5.846  1.9678  1.0498 -0.0051
 5808TIP3    H238916   3.636   2.640   5.919  2.4928  0.8186  0.7638
 5809TIP3   OH238917   1.424   2.125  16.900 -0.0816  0.2856  0.2426
 5809TIP3    H138918   1.336   2.095  16.923 -0.7915 -0.2278 -2.6912
 5809TIP3    H238919   1.478   2.046  16.900  0.8176  0.7663  3.3044
 5810TIP3   OH238920   3.404   1.349  15.609 -0.1142 -0.2214  0.5391
 5810TIP3    H138921   3.476   1.296  15.643  0.2561  0.4609  0.8478
 5810TIP3    H238922   3.385   1.412  15.679 -0.6599 -0.0574  0.2533
 5811TIP3   OH238923   6.575   2.269  16.974  0.0157 -0.4452  0.0977
 5811TIP3    H138924   6.638   2.220  16.922  1.3309 -0.0049  1.2182
 5811TIP3    H238925   6.489   2.247  16.936  0.8180 -1.1366 -1.3864
 5812TIP3   OH238926   5.453   6.782   1.567 -1.0450  0.1122  0.2991
 5812TIP3    H138927   5.464   6.711   1.504 -0.4168  0.1217  0.3922
 5812TIP3    H238928   5.447   6.738   1.652  0.9741  0.2092  0.5559
 5813TIP3   OH238929   0.126   2.699  12.758  0.4622 -0.1317 -0.2768
 5813TIP3    H138930   0.151   2.788  12.736 -0.1358  0.0428 -0.2643
 5813TIP3    H238931   0.047   2.708  12.812 -0.0054 -0.6893 -0.8406
 5814TIP3   OH238932   4.820   3.141   2.966 -0.5449  0.2217 -0.0553
 5814TIP3    H138933   4.825   3.054   3.007  0.0005  0.8701  1.3553
 5814TIP3    H238934   4.730   3.170   2.980 -1.0162 -0.5097 -1.4363
 5815TIP3   OH238935   4.117   1.131  16.619  0.2011  0.2552  0.2788
 5815TIP3    H138936   4.154   1.169  16.699  0.4058  0.8526 -0.0967
 5815TIP3    H238937   4.049   1.193  16.593 -0.0321 -0.0647  0.1219
 5816TIP3   OH238938   4.484   1.647   2.137  0.0185 -0.3373 -0.0218
 5816TIP3    H138939   4.571   1.685   2.140  0.5510 -1.5647  1.1111
 5816TIP3    H238940   4.477   1.597   2.218 -1.3885 -1.0230 -0.5303
 5817TIP3   OH238941   4.559   1.724   4.841  0.6360 -0.0796  0.1223
 5817TIP3    H138942   4.505   1.695   4.914  0.9444 -1.9368 -0.3431
 5817TIP3    H238943   4.533   1.668   4.768  2.3307 -0.2195 -0.4194
 5818TIP3   OH238944   0.854   1.443  15.802  0.0223 -0.1718 -0.2344
 5818TIP3    H138945   0.935   1.427  15.754  0.2704  1.2921 -0.3629
 5818TIP3    H238946   0.831   1.359  15.841 -0.7571 -1.7674 -3.7543
 5819TIP3   OH238947   5.968   3.578   1.260 -0.4209  0.2304  0.2606
 5819TIP3    H138948   5.908   3.580   1.185 -0.9764 -0.0591  0.6871
 5819TIP3    H238949   5.944   3.498   1.307 -0.6025  0.8087  1.1737
 5820TIP3   OH238950   2.365   3.488   3.723  0.0121 -0.2692 -0.0246
 5820TIP3    H138951   2.402   3.574   3.743  0.6824 -0.6083  0.2424
 5820TIP3    H238952   2.405   3.429   3.788 -0.9590 -0.6674  0.2341
 5821TIP3   OH238953   0.139   2.485  11.776 -0.1290 -0.4263  0.3874
 5821TIP3    H138954   0.152   2.402  11.729 -1.0539  0.7328 -2.0553
 5821TIP3    H238955   0.047   2.484  11.802  0.0940 -0.5465  1.2124
 5822TIP3   OH238956   5.990   1.573   2.367 -0.0036 -0.3953 -0.0566
 5822TIP3    H138957   6.030   1.487   2.385 -0.2922 -1.1063 -2.4386
 5822TIP3    H238958   6.046   1.611   2.299 -1.0762  0.3937 -0.5168
 5823TIP3   OH238959   3.266   2.125  12.010 -0.6241  0.3793  0.5219
 5823TIP3    H138960   3.341   2.142  11.953 -1.9484 -0.1762 -1.4717
 5823TIP3    H238961   3.250   2.209  12.054  0.0601  0.9943 -0.3792
 5824TIP3   OH238962   1.497   5.833   3.703 -0.1607  0.0764 -0.3015
 5824TIP3    H138963   1.580   5.866   3.736 -1.1467  0.3111  2.2283
 5824TIP3    H238964   1.483   5.751   3.750 -1.0533 -0.2756 -1.1535
 5825TIP3   OH238965   3.850   3.213  15.152  1.1953  0.0517  0.4275
 5825TIP3    H138966   3.935   3.181  15.122  0.9702  0.7414 -1.0493
 5825TIP3    H238967   3.869   3.297  15.194  1.1961  0.4859 -0.4197
 5826TIP3   OH238968   2.002   6.386  13.089  0.2807  0.1906  0.3206
 5826TIP3    H138969   1.946   6.325  13.138  1.4120 -1.3670 -0.2559
 5826TIP3    H238970   2.079   6.398  13.146  0.1284  0.9858  0.3654
 5827TIP3   OH238971   3.852   0.719  14.962 -0.2419 -0.2557 -0.2722
 5827TIP3    H138972   3.784   0.654  14.978  2.8879 -3.2587  2.5287
 5827TIP3    H238973   3.922   0.670  14.919  1.5917  1.7125  0.3087
 5828TIP3   OH238974   3.586   1.571  14.039 -0.3103  0.3432  0.3842
 5828TIP3    H138975   3.625   1.498  14.088  0.0937  0.8130  0.7630
 5828TIP3    H238976   3.658   1.631  14.024  0.0097 -0.5856 -2.3654
 5829TIP3   OH238977   6.124   2.014  12.285  0.0868  0.1052 -0.1142
 5829TIP3    H138978   6.091   2.014  12.374 -0.4872 -1.3984 -0.3130
 5829TIP3    H238979   6.175   1.933  12.277 -0.6114 -0.2363 -1.4063
 5830TIP3   OH238980   1.973   4.249  17.055 -0.2338  0.1840 -0.0259
 5830TIP3    H138981   2.009   4.330  17.093 -1.6356  0.9347 -0.2218
 5830TIP3    H238982   2.038   4.223  16.990  0.8061  0.4932  0.8530
 5831TIP3   OH238983   3.495   2.621   5.289  0.2425  0.3046  0.2919
 5831TIP3    H138984   3.405   2.589   5.291 -0.4691  2.1278 -0.2792
 5831TIP3    H238985   3.537   2.578   5.364 -1.2488 -0.1727  0.9054
 5832TIP3   OH238986   3.259   6.300  13.932 -0.6362 -0.2720  0.5292
 5832TIP3    H138987   3.353   6.301  13.915 -0.6691 -0.7398  0.3023
 5832TIP3    H238988   3.251   6.282  14.025 -0.4713  1.3591  0.8919
 5833TIP3   OH238989   1.085   3.056  15.930 -0.3034 -0.9398  0.3324
 5833TIP3    H138990   1.160   3.036  15.987  0.6994  2.2139  0.2632
 5833TIP3    H238991   1.020   2.988  15.952  2.1176 -3.1650  1.1294
 5834TIP3   OH238992   4.056   4.208   1.698 -0.0498 -0.1584  0.5463
 5834TIP3    H138993   4.145   4.218   1.732  0.4475 -1.0273 -0.4620
 5834TIP3    H238994   4.021   4.131   1.744 -0.4513  0.4318  1.2556
 5835TIP3   OH238995   0.093   6.045   1.413 -0.2179 -0.1885  0.0611
 5835TIP3    H138996   0.001   6.018   1.422 -0.8718  1.6569 -0.7233
 5835TIP3    H238997   0.111   6.035   1.319  0.1987  0.0178  0.1190
 5836TIP3   OH238998   3.918   4.179   4.142 -0.7781 -0.7522 -0.2187
 5836TIP3    H138999   3.882   4.245   4.084 -0.4677 -1.2515 -0.9957
 5836TIP3    H239000   3.863   4.102   4.130 -2.3390 -0.1105  2.1091
 5837TIP3   OH239001   0.264   3.132  14.209  0.3032  0.4925 -0.3014
 5837TIP3    H139002   0.259   3.228  14.206  1.9131  0.6578  0.8577
 5837TIP3    H239003   0.336   3.114  14.269  0.5966 -1.4506 -1.1573
 5838TIP3   OH239004   2.892   3.285  14.498  0.4384  0.3640 -0.5447
 5838TIP3    H139005   2.976   3.256  14.462  0.3203 -0.7544  0.0190
 5838TIP3    H239006   2.899   3.264  14.592 -0.4935  0.1970 -0.5084
 5839TIP3   OH239007   0.762   0.874  13.291 -0.5180  0.2393 -0.0919
 5839TIP3    H139008   0.692   0.911  13.344 -2.1510 -1.8331 -0.6413
 5839TIP3    H239009   0.841   0.886  13.344 -1.6078  0.8354  1.4804
 5840TIP3   OH239010   1.045   0.957   2.868  0.4495  1.0442  0.4167
 5840TIP3    H139011   0.981   1.014   2.824 -1.1448 -1.4193 -0.6569
 5840TIP3    H239012   1.129   1.003   2.858 -0.7728  3.3160 -0.1021
 5841TIP3   OH239013   2.121   3.567   4.479  0.5371  0.4403  0.0820
 5841TIP3    H139014   2.144   3.573   4.571 -2.2833 -1.3027  1.0413
 5841TIP3    H239015   2.136   3.475   4.456  0.3933  0.6590 -0.9561
 5842TIP3   OH239016   2.488   3.698   1.825 -0.1953  0.0747 -0.1234
 5842TIP3    H139017   2.544   3.732   1.895 -1.8057  0.6978  0.9373
 5842TIP3    H239018   2.549   3.659   1.763  1.3937  0.5696  1.0303
 5843TIP3   OH239019   3.358   1.443  15.355  0.6934  0.1326 -0.2469
 5843TIP3    H139020   3.266   1.470  15.347  0.6555  0.2077  0.3468
 5843TIP3    H239021   3.361   1.393  15.437  1.4390  1.2660  0.4415
 5844TIP3   OH239022   3.235   5.233  12.745 -0.3136  0.4225  0.6935
 5844TIP3    H139023   3.322   5.241  12.704 -0.7069  1.0451 -0.0422
 5844TIP3    H239024   3.244   5.157  12.804 -0.0634 -1.2939 -1.4243
 5845TIP3   OH239025   4.725   1.485  13.364  0.9611 -0.0124 -0.4007
 5845TIP3    H139026   4.689   1.531  13.439 -1.0394 -3.0169  0.6340
 5845TIP3    H239027   4.820   1.484  13.380  0.7133  0.6389  1.3292
 5846TIP3   OH239028   1.210   2.813   0.818 -0.8461 -0.0141 -0.0863
 5846TIP3    H139029   1.197   2.855   0.904 -0.8237  1.1763 -0.6409
 5846TIP3    H239030   1.295   2.770   0.825 -1.0409 -0.3086  0.6293
 5847TIP3   OH239031   2.700   6.559  14.792  0.0994  0.6787 -0.3206
 5847TIP3    H139032   2.766   6.562  14.861 -0.3731  2.5554  0.1012
 5847TIP3    H239033   2.716   6.638  14.740 -0.2688 -0.1226 -1.6989
 5848TIP3   OH239034   5.543   2.158  15.808  0.0760 -0.4011  0.4501
 5848TIP3    H139035   5.629   2.159  15.851  0.3611  2.6449  0.0227
 5848TIP3    H239036   5.480   2.156  15.880  0.5255  0.1206  0.8642
 5849TIP3   OH239037   5.040   4.965   0.568 -0.1942 -0.8164 -0.8776
 5849TIP3    H139038   5.055   4.904   0.640 -0.6260 -0.0615 -0.1290
 5849TIP3    H239039   5.098   4.935   0.498 -1.1917 -2.7467 -0.9352
 5850TIP3   OH239040   0.308   3.768  16.774  0.3986 -1.0116  0.4036
 5850TIP3    H139041   0.307   3.704  16.702 -2.4329 -1.1782  0.4838
 5850TIP3    H239042   0.387   3.747  16.823  1.7307 -1.7419 -1.9067
 5851TIP3   OH239043   5.164   4.224  15.536  0.2036 -0.9407  0.1593
 5851TIP3    H139044   5.138   4.213  15.627  0.6082 -0.1640  0.3799
 5851TIP3    H239045   5.180   4.135  15.504  0.3171 -1.2011  0.9250
 5852TIP3   OH239046   2.661   3.528  15.100 -0.1984  0.0664 -0.1785
 5852TIP3    H139047   2.682   3.621  15.096 -0.5477  0.1472 -0.2284
 5852TIP3    H239048   2.632   3.514  15.190  1.1278 -0.2840  0.2083
 5853TIP3   OH239049   2.185   2.140  11.038 -0.3760 -0.3651  0.2916
 5853TIP3    H139050   2.156   2.113  10.951 -0.4112  1.2127 -0.2026
 5853TIP3    H239051   2.105   2.144  11.090 -0.5327  0.0399  0.0205
 5854TIP3   OH239052   3.639   3.343  11.795  0.3401 -0.1983  0.2348
 5854TIP3    H139053   3.569   3.286  11.763 -0.3465  1.4046 -1.2412
 5854TIP3    H239054   3.719   3.306  11.757 -0.2916  0.7743 -2.1743
 5855TIP3   OH239055   4.290   3.815  12.205  0.0709  0.6411  0.1563
 5855TIP3    H139056   4.251   3.882  12.260 -1.6256  0.7745 -1.1274
 5855TIP3    H239057   4.235   3.812  12.127  1.6631 -0.3952 -1.0043
 5856TIP3   OH239058   1.072   1.797   4.222 -0.2520  0.2656 -0.1275
 5856TIP3    H139059   1.078   1.718   4.168 -1.1519 -0.7416  1.1986
 5856TIP3    H239060   1.143   1.853   4.190 -0.0661 -0.7532 -1.5968
 5857TIP3   OH239061   6.819   1.817  16.785 -0.3087  0.3442 -0.2810
 5857TIP3    H139062   6.802   1.738  16.836  0.2522  0.3497 -0.0691
 5857TIP3    H239063   6.824   1.787  16.695  0.1320  0.0928 -0.1769
 5858TIP3   OH239064   3.694   1.625  10.365  0.5578 -1.0347 -0.1245
 5858TIP3    H139065   3.682   1.640  10.459  0.9340 -0.9213 -0.0917
 5858TIP3    H239066   3.650   1.698  10.322  0.6029 -0.9493 -0.0261
 5859TIP3   OH239067   0.242   6.692  16.968  0.3130 -0.7575  0.2032
 5859TIP3    H139068   0.333   6.679  16.941 -0.6705 -3.6531 -2.2967
 5859TIP3    H239069   0.206   6.752  16.902  0.5088  0.9997  1.6238
 5860TIP3   OH239070   4.484   2.515   2.936  0.2253 -0.2624 -0.2792
 5860TIP3    H139071   4.549   2.524   3.006 -0.4214 -0.9904  0.4314
 5860TIP3    H239072   4.406   2.557   2.971 -1.1510 -3.4197  0.8801
 5861TIP3   OH239073   4.761   5.704  17.152 -0.3466  0.3717  0.1675
 5861TIP3    H139074   4.785   5.702  17.060  0.9010  0.3271  0.4749
 5861TIP3    H239075   4.822   5.644  17.195 -1.3917 -0.1946  0.9292
 5862TIP3   OH239076   5.670   0.113  14.282  0.1311 -0.5761  0.1247
 5862TIP3    H139077   5.763   0.132  14.275  0.7790 -3.0968  0.5667
 5862TIP3    H239078   5.657   0.095  14.376 -1.1187  0.9880  0.2924
 5863TIP3   OH239079   3.017   6.566  12.545  0.0690  0.3292  0.4846
 5863TIP3    H139080   3.011   6.604  12.458 -1.0364 -0.1287  0.3407
 5863TIP3    H239081   3.012   6.641  12.605 -0.2907  0.5518  0.1763
 5864TIP3   OH239082   3.828   0.747   4.995  0.0765  0.1453 -0.0804
 5864TIP3    H139083   3.775   0.770   5.071  0.2924 -0.0598  0.1342
 5864TIP3    H239084   3.869   0.829   4.969  0.7147  0.0458  0.5813
 5865TIP3   OH239085   1.347   3.719  12.340  0.1860 -0.3366  0.1810
 5865TIP3    H139086   1.352   3.736  12.434 -0.3590  1.6850 -0.0959
 5865TIP3    H239087   1.375   3.801  12.300  0.2079 -1.0953 -1.4258
 5866TIP3   OH239088   0.481   1.722   0.891  0.1259 -0.3713  0.2909
 5866TIP3    H139089   0.472   1.814   0.866 -1.3354 -0.4286  0.4953
 5866TIP3    H239090   0.535   1.684   0.823  0.9416  0.6869  0.3233
 5867TIP3   OH239091   3.447   0.425  13.257 -0.1767 -0.0579 -0.8609
 5867TIP3    H139092   3.418   0.346  13.301 -3.5492  2.4562  2.0372
 5867TIP3    H239093   3.381   0.491  13.280  1.8919  3.4242 -3.7893
 5868TIP3   OH239094   4.129   1.035  13.858  0.0902 -0.0325 -0.0474
 5868TIP3    H139095   4.090   1.104  13.805 -0.5936 -0.0383  0.4418
 5868TIP3    H239096   4.090   1.046  13.945  0.3932 -0.6896  0.1799
 5869TIP3   OH239097   5.400   6.331  17.248  0.3867 -0.2449 -0.9354
 5869TIP3    H139098   5.424   6.333  17.340 -2.3025 -1.2628 -0.1223
 5869TIP3    H239099   5.455   6.262  17.210  0.3781 -0.9567  0.2962
 5870TIP3   OH239100   4.187   5.431   3.813  0.2126 -0.0272 -0.1509
 5870TIP3    H139101   4.094   5.410   3.805  0.1913 -0.6379  1.4328
 5870TIP3    H239102   4.220   5.429   3.723 -1.4213  0.8426 -0.8048
 5871TIP3   OH239103   1.290   1.043   4.381 -0.2229  0.7240  0.2461
 5871TIP3    H139104   1.353   1.111   4.355 -1.8136  2.3470  0.3926
 5871TIP3    H239105   1.342   0.963   4.385  1.4574  1.6292 -1.3884
 5872TIP3   OH239106   0.265   2.215   2.483  0.0335 -0.0944  0.3264
 5872TIP3    H139107   0.311   2.205   2.400  0.0686  1.0373  0.2075
 5872TIP3    H239108   0.224   2.301   2.479  0.0985  0.0146  1.5111
 5873TIP3   OH239109   4.121   1.653  17.115 -0.5238 -0.6143  0.0602
 5873TIP3    H139110   4.207   1.678  17.147 -0.3477 -0.7497 -0.3049
 5873TIP3    H239111   4.067   1.648  17.194 -0.1755 -0.6319  0.3002
 5874TIP3   OH239112   6.427   3.754   4.539  0.3106  0.0942  0.3715
 5874TIP3    H139113   6.357   3.816   4.518  0.4488  0.0541 -0.2325
 5874TIP3    H239114   6.402   3.717   4.623 -0.3778  0.1090  0.1772
 5875TIP3   OH239115   6.207   5.323  14.089  0.2849 -0.4118  0.2485
 5875TIP3    H139116   6.161   5.316  14.172  0.8868 -1.6968  0.5034
 5875TIP3    H239117   6.140   5.349  14.026 -0.0094  1.4854  1.2577
 5876TIP3   OH239118   2.181   0.498   6.129  0.3013 -0.1074  0.2332
 5876TIP3    H139119   2.260   0.474   6.176 -0.4711 -0.0624  1.6186
 5876TIP3    H239120   2.141   0.566   6.183 -0.8037 -0.3131 -0.2952
 5877TIP3   OH239121   2.194   5.095  13.357  0.9432  0.8179 -0.1540
 5877TIP3    H139122   2.159   5.006  13.355  0.3435  0.9633  1.7151
 5877TIP3    H239123   2.278   5.087  13.403  1.6102  1.0292 -1.2874
 5878TIP3   OH239124   6.776   0.547   3.085 -0.1066 -0.6382 -0.1421
 5878TIP3    H139125   6.735   0.460   3.079  1.1711 -1.4164  1.6590
 5878TIP3    H239126   6.854   0.541   3.029  0.2817 -0.8482  0.4152
 5879TIP3   OH239127   4.582   5.405   5.442  0.4339  0.0423  0.3940
 5879TIP3    H139128   4.657   5.432   5.495  1.2571 -0.4574 -0.4940
 5879TIP3    H239129   4.608   5.322   5.404 -0.1905  0.3239 -0.6831
 5880TIP3   OH239130   3.880   3.855   5.170  0.0117 -0.0634 -0.1901
 5880TIP3    H139131   3.798   3.863   5.120 -0.4185  0.0414  0.5186
 5880TIP3    H239132   3.864   3.781   5.229  0.2198  0.3127  0.3406
 5881TIP3   OH239133   2.753   6.827  16.820  0.5230  0.0056 -0.1520
 5881TIP3    H139134   2.742   6.871  16.904 -0.0009 -0.1392 -0.1418
 5881TIP3    H239135   2.839   6.856  16.789  1.1091 -0.6085  0.8291
 5882TIP3   OH239136   4.153   4.026  11.061  0.2204  0.0759 -0.5040
 5882TIP3    H139137   4.226   3.972  11.092 -0.3875  0.2175  1.3107
 5882TIP3    H239138   4.189   4.115  11.059  1.1646 -0.2731 -3.3075
 5883TIP3   OH239139   5.357   6.167   5.133 -0.0591  0.0255  0.1869
 5883TIP3    H139140   5.391   6.082   5.159  0.5937 -1.0753 -3.7237
 5883TIP3    H239141   5.435   6.217   5.107 -0.6659  0.7957 -0.1962
 5884TIP3   OH239142   2.717   5.562   2.740 -0.2931 -0.2432  0.7832
 5884TIP3    H139143   2.793   5.511   2.769 -0.1640 -0.2650  0.4021
 5884TIP3    H239144   2.642   5.505   2.758 -0.0782 -0.9585 -0.5226
 5885TIP3   OH239145   3.955   3.998   0.960  0.5087  0.4775 -0.2898
 5885TIP3    H139146   3.951   4.062   0.889 -0.7090 -0.6189 -1.2539
 5885TIP3    H239147   3.918   3.918   0.923  2.2351 -0.9157  0.7866
 5886TIP3   OH239148   6.443   3.629  15.572 -0.3386 -0.7028  0.1770
 5886TIP3    H139149   6.526   3.626  15.620 -0.7361  3.0658  1.4050
 5886TIP3    H239150   6.380   3.589  15.632  0.0289 -0.4662  0.7327
 5887TIP3   OH239151   1.011   2.486  14.734  0.2801  0.0754  0.4438
 5887TIP3    H139152   0.958   2.415  14.772 -1.4427  0.6529 -0.8106
 5887TIP3    H239153   0.968   2.507  14.651  1.3901  1.8665  0.2756
 5888TIP3   OH239154   4.851   3.538   2.949 -0.2313  0.1738  1.0219
 5888TIP3    H139155   4.765   3.507   2.920 -0.2833 -0.9568  2.3099
 5888TIP3    H239156   4.876   3.479   3.019  1.5695  0.5608  0.7590
 5889TIP3   OH239157   2.261   0.987  15.015 -0.1132  0.4505  0.2373
 5889TIP3    H139158   2.209   0.920  15.061 -0.0277 -0.1400 -0.4981
 5889TIP3    H239159   2.206   1.012  14.941  0.5421 -0.0092 -0.4164
 5890TIP3   OH239160   0.207   5.875  15.978 -0.3629 -0.6173 -0.1320
 5890TIP3    H139161   0.269   5.812  16.015 -0.0981  0.2679  0.9668
 5890TIP3    H239162   0.143   5.890  16.047 -2.1488 -1.9017 -1.4210
 5891TIP3   OH239163   4.329   2.078  11.338  0.1784  0.4961 -0.3936
 5891TIP3    H139164   4.332   1.987  11.310 -0.2853  0.2625  0.2999
 5891TIP3    H239165   4.323   2.128  11.256 -4.0713 -0.2599 -0.7706
 5892TIP3   OH239166   1.848   6.105   2.780 -0.0444 -0.5185 -0.6640
 5892TIP3    H139167   1.759   6.131   2.805 -0.5865 -1.0902 -1.8979
 5892TIP3    H239168   1.835   6.048   2.704  1.5748  2.3865 -3.3348
 5893TIP3   OH239169   4.911   3.991  14.454  0.3586 -1.1505 -0.5339
 5893TIP3    H139170   4.908   3.955  14.366  0.2272  0.2852 -1.1489
 5893TIP3    H239171   4.831   3.959  14.496 -0.1504 -0.9239 -1.3147
 5894TIP3   OH239172   5.132   3.302  11.927 -0.8479 -0.2237 -0.2216
 5894TIP3    H139173   5.038   3.317  11.937 -0.4714  1.8471  0.8055
 5894TIP3    H239174   5.164   3.288  12.017 -0.2236 -1.4214 -0.6043
 5895TIP3   OH239175   1.115   1.249  16.192  0.3772  0.2173 -0.4547
 5895TIP3    H139176   1.097   1.320  16.130  0.5153 -0.3385 -1.1502
 5895TIP3    H239177   1.117   1.292  16.278 -2.6178  0.6002 -0.4690
 5896TIP3   OH239178   6.498   5.184   2.786 -0.0281 -0.4872 -0.2883
 5896TIP3    H139179   6.533   5.270   2.764  0.6227 -0.7510 -0.2971
 5896TIP3    H239180   6.527   5.168   2.876 -1.6710  0.0721  0.3900
 5897TIP3   OH239181   6.676   4.337  16.997 -0.0226 -0.1939  0.0230
 5897TIP3    H139182   6.760   4.315  17.037  0.5818  0.2014 -0.9740
 5897TIP3    H239183   6.678   4.432  16.986 -0.5743 -0.1877 -0.0680
 5898TIP3   OH239184   0.102   0.911   0.644  0.2440 -0.0378 -0.3667
 5898TIP3    H139185   0.166   0.983   0.640 -0.9572  1.1547  0.6276
 5898TIP3    H239186   0.133   0.856   0.717  0.2861  0.3946 -0.0523
 5899TIP3   OH239187   2.920   2.475   4.544  0.7525  0.3099 -0.4053
 5899TIP3    H139188   2.956   2.547   4.597  0.7178 -0.7668  1.1476
 5899TIP3    H239189   2.991   2.410   4.541  0.1815 -0.3251 -0.3232
 5900TIP3   OH239190   6.660   3.524   1.313 -0.1601 -0.2640 -0.2455
 5900TIP3    H139191   6.606   3.446   1.299  0.1994 -0.8936  1.6550
 5900TIP3    H239192   6.727   3.520   1.244  1.1935 -2.8664  1.0921
 5901TIP3   OH239193   1.490   1.010   1.339  0.4405  0.1396  0.1574
 5901TIP3    H139194   1.442   1.018   1.256  1.2433  1.5399 -0.2065
 5901TIP3    H239195   1.539   1.091   1.346  1.6782 -0.6606  1.2090
 5902TIP3   OH239196   6.770   2.557  11.501  0.4872  0.5414 -0.3535
 5902TIP3    H139197   6.838   2.621  11.521  0.3273  0.5397  0.2141
 5902TIP3    H239198   6.742   2.525  11.586 -0.7290  1.0708 -0.5315
 5903TIP3   OH239199   6.658   1.291   4.942  0.0766  0.2946 -0.1525
 5903TIP3    H139200   6.659   1.355   5.014 -1.6574 -0.3789  0.5151
 5903TIP3    H239201   6.674   1.343   4.863  2.4708  0.9998  0.7065
 5904TIP3   OH239202   1.899   3.680   6.096  0.1018 -0.3951  0.2938
 5904TIP3    H139203   1.841   3.731   6.153  1.6423 -0.4239  1.9405
 5904TIP3    H239204   1.961   3.638   6.155  2.4022  0.3447 -1.4394
 5905TIP3   OH239205   3.538   3.451   2.793  0.2054 -0.4712 -0.3990
 5905TIP3    H139206   3.595   3.419   2.863  0.0687  0.3591  0.1036
 5905TIP3    H239207   3.562   3.399   2.717  1.8249  0.0258 -0.2646
 5906TIP3   OH239208   2.073   3.214   4.995 -0.4273  0.4924 -0.0086
 5906TIP3    H139209   2.050   3.278   4.928 -2.7094 -1.5639 -1.3488
 5906TIP3    H239210   2.134   3.154   4.951 -0.6927  0.0325  0.2427
 5907TIP3   OH239211   5.920   0.034   5.109 -0.3470 -0.0369 -0.2222
 5907TIP3    H139212   5.951   0.122   5.129 -0.3484 -0.4530  1.8463
 5907TIP3    H239213   6.000  -0.018   5.104 -0.2208  0.2605 -2.8868
 5908TIP3   OH239214   0.475   0.249   1.495  0.3740  0.3850 -0.6117
 5908TIP3    H139215   0.474   0.154   1.485 -2.0130  0.0676  1.4048
 5908TIP3    H239216   0.545   0.266   1.557  0.8106 -0.0506 -0.9799
 5909TIP3   OH239217   5.691   0.794  14.784  0.3150  0.2677 -0.1381
 5909TIP3    H139218   5.690   0.813  14.877  0.9869 -1.2090  0.1860
 5909TIP3    H239219   5.724   0.705  14.777  0.5549  0.4505 -1.8122
 5910TIP3   OH239220   1.085   1.098   4.150 -0.2743 -0.1491 -0.1833
 5910TIP3    H139221   1.170   1.083   4.191  1.1212  1.6302 -2.1885
 5910TIP3    H239222   1.052   1.178   4.190 -1.0004 -0.7721  0.5055
 5911TIP3   OH239223   1.372   3.205   0.404  0.2648  0.3940  0.7746
 5911TIP3    H139224   1.282   3.182   0.380  0.5775 -0.6362  0.5188
 5911TIP3    H239225   1.405   3.127   0.449  1.6174  0.0309 -0.7642
 5912TIP3   OH239226   4.901   1.386  13.733 -0.1993  0.5879 -1.0088
 5912TIP3    H139227   4.811   1.399  13.764  0.1636  1.6770 -0.3384
 5912TIP3    H239228   4.949   1.355  13.810  0.1662  0.7873 -1.1524
 5913TIP3   OH239229   4.438   2.046   2.205  0.4712 -0.6668 -0.0501
 5913TIP3    H139230   4.412   1.974   2.262 -0.5696  1.3267  2.2186
 5913TIP3    H239231   4.499   2.098   2.258  2.1087 -0.4514 -2.0298
 5914TIP3   OH239232   1.016   2.330   0.075  0.4691 -0.2477 -0.6657
 5914TIP3    H139233   0.971   2.273   0.137  1.3573 -0.9448 -0.6313
 5914TIP3    H239234   0.975   2.416   0.087  1.2047 -0.1281  1.5750
 5915TIP3   OH239235   6.626   5.682   5.852 -0.6624 -0.0001 -0.4556
 5915TIP3    H139236   6.615   5.734   5.931 -0.3767 -0.9604  0.2350
 5915TIP3    H239237   6.549   5.626   5.849  0.6313 -1.9783  0.7360
 5916TIP3   OH239238   5.268   4.641   6.078  0.4784 -0.0867  0.3152
 5916TIP3    H139239   5.326   4.695   6.131 -2.0398  0.6954  2.4475
 5916TIP3    H239240   5.208   4.703   6.037 -1.2746 -1.0686  1.2845
 5917TIP3   OH239241   3.721   6.428   0.165  0.1549 -0.1987 -0.0800
 5917TIP3    H139242   3.695   6.388   0.083  1.2493 -1.2181  0.0376
 5917TIP3    H239243   3.648   6.412   0.224  0.3114 -1.5161 -0.2136
 5918TIP3   OH239244   3.526   2.864  17.266 -0.4370  0.5012  0.3837
 5918TIP3    H139245   3.619   2.840  17.271 -0.9515 -1.8199  0.1465
 5918TIP3    H239246   3.514   2.893  17.176 -0.0364  0.3595  0.2803
 5919TIP3   OH239247   5.431   3.948  15.647  0.7111  0.2489 -0.5122
 5919TIP3    H139248   5.486   3.882  15.606 -0.7613 -0.2201 -1.7898
 5919TIP3    H239249   5.488   4.025  15.656  2.5286 -1.2093  1.2545
 5920TIP3   OH239250   3.738   1.075  16.900 -0.4351  0.1186 -0.3382
 5920TIP3    H139251   3.690   0.992  16.894 -1.6253  0.7990 -0.3510
 5920TIP3    H239252   3.820   1.051  16.944 -1.5354 -0.7418  1.3161
 5921TIP3   OH239253   6.739   4.987   0.357 -0.0052 -0.8223 -0.2322
 5921TIP3    H139254   6.795   4.918   0.392  0.4638 -0.0340  0.6245
 5921TIP3    H239255   6.799   5.057   0.330 -0.5058 -0.4024 -0.2927
 5922TIP3   OH239256   2.126   6.605  11.555  0.5829 -0.2720 -0.4072
 5922TIP3    H139257   2.153   6.643  11.470  1.2662  1.5980  0.5792
 5922TIP3    H239258   2.038   6.639  11.569 -0.1088 -1.7350 -0.9734
 5923TIP3   OH239259   5.109   0.286  15.161  0.2519 -0.8825  0.3975
 5923TIP3    H139260   5.151   0.269  15.077 -1.5969  0.6890 -0.9427
 5923TIP3    H239261   5.146   0.370  15.189 -2.9178  1.4644 -1.6691
 5924TIP3   OH239262   2.306   0.933   6.541  0.0020 -0.0598 -0.3673
 5924TIP3    H139263   2.257   0.913   6.461 -1.2337  1.9847 -0.1921
 5924TIP3    H239264   2.272   0.871   6.606 -2.8118  1.5415 -0.1432
 5925TIP3   OH239265   6.661   4.435   4.958 -0.5852  0.2529 -0.2170
 5925TIP3    H139266   6.699   4.437   5.045 -1.2776  3.0785  0.1281
 5925TIP3    H239267   6.724   4.386   4.905  1.1099  0.6465  1.3481
 5926TIP3   OH239268   2.195   5.394  11.535 -0.1746 -0.0951 -0.3071
 5926TIP3    H139269   2.176   5.403  11.628  2.2308 -0.0708  0.2596
 5926TIP3    H239270   2.241   5.475  11.512 -1.4608  0.2740 -1.7566
 5927TIP3   OH239271   2.989   5.725  13.163 -0.2262 -0.7084 -0.5727
 5927TIP3    H139272   2.926   5.785  13.201 -0.3712 -0.6127 -0.9576
 5927TIP3    H239273   2.959   5.713  13.072  0.6740 -0.1418 -0.9585
 5928TIP3   OH239274   0.127   3.863  11.599 -0.6464 -0.0506  0.2376
 5928TIP3    H139275   0.123   3.792  11.535  1.2021  0.8497 -0.9732
 5928TIP3    H239276   0.220   3.870  11.621 -0.7437  2.1110  0.1389
 5929TIP3   OH239277   1.500   1.654  15.883  0.2498 -0.2455  0.7037
 5929TIP3    H139278   1.504   1.584  15.948  1.0066 -0.2909  0.6163
 5929TIP3    H239279   1.591   1.678  15.867 -0.0021  0.8725  0.8451
 5930TIP3   OH239280   2.166   5.436  13.458 -0.5065  0.1565  0.4446
 5930TIP3    H139281   2.174   5.524  13.424  1.3443 -0.2388 -0.2320
 5930TIP3    H239282   2.207   5.440  13.545  0.3885 -0.2312  0.0436
 5931TIP3   OH239283   1.744   0.249  11.690  0.1845 -0.4861  0.3648
 5931TIP3    H139284   1.827   0.205  11.673  0.7223  0.2238  1.0588
 5931TIP3    H239285   1.711   0.207  11.770  0.2685 -0.2299  0.5347
 5932TIP3   OH239286   6.312   1.978   4.245 -0.0535  0.3065  0.4451
 5932TIP3    H139287   6.397   1.957   4.204  0.0490 -1.3284  1.4061
 5932TIP3    H239288   6.283   2.058   4.200  1.5041  0.3229 -0.6237
 5933TIP3   OH239289   5.701   3.971  14.732 -0.1722  0.3694 -0.0614
 5933TIP3    H139290   5.632   3.905  14.739 -0.9078  1.1992  0.9159
 5933TIP3    H239291   5.782   3.922  14.739 -0.6926 -0.4875  0.0966
 5934TIP3   OH239292   0.566   0.013   4.222  0.8877  0.4302  0.1229
 5934TIP3    H139293   0.544  -0.071   4.182 -0.3786 -0.0213  1.6488
 5934TIP3    H239294   0.658   0.004   4.249  0.8819 -0.3006 -0.0914
 5935TIP3   OH239295   1.966   0.028   3.965  0.4630  0.5977 -0.3271
 5935TIP3    H139296   1.926  -0.019   3.892  0.9219 -1.8707  0.8975
 5935TIP3    H239297   2.060   0.023   3.948  0.5356  0.7927  0.0017
 5936TIP3   OH239298   0.273   0.562  11.250 -0.0015  0.1826 -0.5511
 5936TIP3    H139299   0.294   0.474  11.279 -0.3539  0.7473  1.5962
 5936TIP3    H239300   0.358   0.599  11.224  0.6685  0.2122  1.5377
 5937TIP3   OH239301   1.214   4.052   2.529  0.3616  0.2629  0.4185
 5937TIP3    H139302   1.262   4.093   2.601  0.6584 -0.3696  0.5920
 5937TIP3    H239303   1.124   4.086   2.537  1.0245  2.4502 -0.6781
 5938TIP3   OH239304   6.065   6.655  15.399 -0.5949  0.3841  0.0954
 5938TIP3    H139305   6.134   6.695  15.345 -1.2859  1.4013 -0.0642
 5938TIP3    H239306   6.020   6.730  15.439 -2.2937 -0.1908 -0.6483
 5939TIP3   OH239307   4.776   5.139   2.390 -0.4155  0.0657  0.1876
 5939TIP3    H139308   4.870   5.158   2.386  0.2009 -2.1211  2.0637
 5939TIP3    H239309   4.748   5.175   2.474 -0.7685 -1.0161  0.5543
 5940TIP3   OH239310   1.208   3.318  12.749  0.3863 -0.6557  0.2321
 5940TIP3    H139311   1.243   3.247  12.802 -0.1886  0.3733  2.0920
 5940TIP3    H239312   1.154   3.275  12.682  1.4886 -2.0178  0.1735
 5941TIP3   OH239313   3.965   0.858   2.188  0.0886  0.4187 -0.3851
 5941TIP3    H139314   3.887   0.849   2.133 -0.6497  1.0499  0.5131
 5941TIP3    H239315   3.982   0.952   2.191  0.3972  0.3522  0.0727
 5942TIP3   OH239316   1.995   1.269   1.729  0.4893 -0.0053 -0.1706
 5942TIP3    H139317   1.919   1.238   1.678 -0.8463  1.2390  0.9579
 5942TIP3    H239318   1.995   1.364   1.716  0.1972  0.3415  1.9667
 5943TIP3   OH239319   5.963   1.439  13.359  0.0550 -0.3309 -0.3721
 5943TIP3    H139320   6.050   1.440  13.319 -0.1390  2.1460 -0.8569
 5943TIP3    H239321   5.980   1.427  13.452  1.0008  0.9077 -0.3601
 5944TIP3   OH239322   1.725   0.218   0.495 -0.2969  0.0039  0.0053
 5944TIP3    H139323   1.755   0.285   0.433 -0.5829 -0.4392 -0.6199
 5944TIP3    H239324   1.751   0.252   0.580  0.6072  0.3652 -0.3906
 5945TIP3   OH239325   3.250   0.010   2.868 -0.2317  0.1648 -0.1183
 5945TIP3    H139326   3.218  -0.068   2.912 -1.6790 -0.4718 -2.1730
 5945TIP3    H239327   3.243   0.079   2.935 -1.0037 -1.0089  1.0677
 5946TIP3   OH239328   4.734   0.818   5.416 -0.1615  0.3326  0.4384
 5946TIP3    H139329   4.802   0.885   5.405 -1.4310  2.0372  2.2073
 5946TIP3    H239330   4.776   0.750   5.469  0.7982  0.2534 -0.3803
 5947TIP3   OH239331   6.542   5.849  11.374  0.2489 -0.4922 -0.2588
 5947TIP3    H139332   6.521   5.926  11.428  0.4585  0.5003 -1.5322
 5947TIP3    H239333   6.554   5.885  11.286  0.7312 -1.9500 -0.8110
 5948TIP3   OH239334   4.806   4.377  16.817 -0.1965  0.7223  0.1374
 5948TIP3    H139335   4.715   4.361  16.843 -0.2923 -1.0125 -1.0408
 5948TIP3    H239336   4.849   4.293  16.830  0.7165  0.9405 -1.2730
 5949TIP3   OH239337   0.047   0.204  13.062 -0.2685 -0.0782  0.1801
 5949TIP3    H139338  -0.040   0.182  13.028 -1.4128  1.9544  1.5333
 5949TIP3    H239339   0.108   0.165  13.000 -2.1680  0.7188 -2.3764
 5950TIP3   OH239340   5.351   5.300   2.369  0.1935 -0.3233  0.4298
 5950TIP3    H139341   5.270   5.331   2.408 -0.7097 -0.7137 -1.0574
 5950TIP3    H239342   5.392   5.379   2.333  0.5799 -0.1022  1.3225
 5951TIP3   OH239343   6.612   4.890   3.677 -0.7401  0.5655  0.4007
 5951TIP3    H139344   6.618   4.983   3.657  3.8031  0.9000  2.1925
 5951TIP3    H239345   6.544   4.884   3.745  0.6295  3.0823  2.1322
 5952TIP3   OH239346   2.366   3.802  14.238  0.2648  0.0999 -0.1441
 5952TIP3    H139347   2.408   3.742  14.176  0.5653 -1.1263  1.2027
 5952TIP3    H239348   2.304   3.852  14.185  0.7714 -0.6598 -1.4930
 5953TIP3   OH239349   4.593   5.346  14.201  0.3237  1.1555  0.4087
 5953TIP3    H139350   4.638   5.425  14.173  2.1706 -0.4603 -1.5027
 5953TIP3    H239351   4.504   5.376  14.222  1.0171  3.7422  0.0377
 5954TIP3   OH239352   2.250   1.263   2.107 -0.8726 -0.2052 -0.3565
 5954TIP3    H139353   2.315   1.192   2.104  0.1302  0.6765 -0.1985
 5954TIP3    H239354   2.171   1.221   2.139 -0.3794 -1.3165 -0.5293
 5955TIP3   OH239355   5.096   1.032   1.701 -0.2547  0.1389  0.0222
 5955TIP3    H139356   5.181   1.076   1.702 -0.2774  0.1821  0.0745
 5955TIP3    H239357   5.109   0.952   1.752  0.1881 -0.6768 -1.3176
 5956TIP3   OH239358   4.710   0.147  12.561 -0.4904  0.4406 -0.2664
 5956TIP3    H139359   4.775   0.213  12.536 -1.9377  1.7987 -0.6282
 5956TIP3    H239360   4.627   0.183  12.531 -2.0307  0.7690  3.7464
 5957TIP3   OH239361   2.276   2.167   5.605  0.0877 -0.6374  0.3008
 5957TIP3    H139362   2.337   2.111   5.653 -0.9369 -1.7567  0.3511
 5957TIP3    H239363   2.190   2.144   5.639 -0.3632  1.2293  0.5591
 5958TIP3   OH239364   5.753   1.625  17.061  0.4789 -0.2444  0.0603
 5958TIP3    H139365   5.729   1.543  17.105 -2.0198  0.2420 -0.2307
 5958TIP3    H239366   5.848   1.619  17.049  0.7170 -2.0256  2.1573
 5959TIP3   OH239367   0.753   5.677  13.270  0.0244 -0.2838  0.1299
 5959TIP3    H139368   0.802   5.737  13.327  1.6657 -0.7343 -0.7534
 5959TIP3    H239369   0.769   5.590  13.307  0.9257 -0.5581 -0.8535
 5960TIP3   OH239370   1.564   3.494   1.849  0.0373 -0.2101 -0.3579
 5960TIP3    H139371   1.507   3.557   1.893 -0.4908 -1.6645  1.1264
 5960TIP3    H239372   1.519   3.474   1.767 -0.1590  0.7415 -0.4986
 5961TIP3   OH239373   2.162   3.379  10.503 -0.6611  0.0516  0.5610
 5961TIP3    H139374   2.069   3.402  10.501 -1.0169 -1.2844 -1.5532
 5961TIP3    H239375   2.194   3.403  10.416  1.8298  3.3659  2.1772
 5962TIP3   OH239376   6.647   1.747  13.787 -0.1395  0.2725 -0.0722
 5962TIP3    H139377   6.590   1.671  13.790  0.3106 -0.0778 -0.2659
 5962TIP3    H239378   6.686   1.751  13.875 -0.0447  0.1890 -0.1111
 5963TIP3   OH239379   3.609   3.916  15.993  0.4174  0.5404 -0.0964
 5963TIP3    H139380   3.686   3.888  16.044  0.0165  1.3328  0.9934
 5963TIP3    H239381   3.602   4.009  16.011 -1.1503  0.3687  0.3249
 5964TIP3   OH239382   0.863   2.561  11.584  0.6414  0.2884  0.4136
 5964TIP3    H139383   0.806   2.593  11.514  0.5175  2.1748  1.3185
 5964TIP3    H239384   0.806   2.511  11.641  0.7023 -1.1028 -0.6881
 5965TIP3   OH239385   4.769   1.900   5.708 -0.2588  0.5346  0.8224
 5965TIP3    H139386   4.740   1.824   5.657 -1.0618  0.2608  1.6521
 5965TIP3    H239387   4.825   1.863   5.776  2.0215  1.0488 -0.6808
 5966TIP3   OH239388   3.234   0.035  11.523  0.0556  0.0389  0.8700
 5966TIP3    H139389   3.147   0.066  11.549 -0.6061 -0.7670 -0.2846
 5966TIP3    H239390   3.249   0.073  11.437  0.3698 -0.6878  0.5891
 5967TIP3   OH239391   4.075   4.705   1.533 -0.3413 -0.0426 -0.2838
 5967TIP3    H139392   4.157   4.704   1.484  0.1864  2.6433  0.3636
 5967TIP3    H239393   4.036   4.619   1.518  4.1129 -2.8152  2.1076
 5968TIP3   OH239394   2.070   6.256   5.110  0.3969  0.7483  0.4520
 5968TIP3    H139395   1.993   6.259   5.053 -0.8880 -2.0169  1.8323
 5968TIP3    H239396   2.049   6.314   5.182 -0.7867 -0.4679  1.1469
 5969TIP3   OH239397   0.949   6.001   1.990 -0.4473  0.1870 -0.8313
 5969TIP3    H139398   1.009   5.928   1.971 -1.3951 -0.5297 -1.1880
 5969TIP3    H239399   0.952   6.010   2.085  0.5850  0.4840 -0.8836
 5970TIP3   OH239400   0.911   3.353   3.372  0.3961  0.2586 -0.5438
 5970TIP3    H139401   0.820   3.369   3.346 -0.0032  0.8564  1.0791
 5970TIP3    H239402   0.959   3.430   3.341 -0.1196  1.0910  0.6408
 5971TIP3   OH239403   3.524   2.565  16.377 -0.0268  0.2117 -0.2326
 5971TIP3    H139404   3.550   2.477  16.402  1.4128  0.7445  0.2432
 5971TIP3    H239405   3.601   2.619  16.396 -0.4333  1.3655 -1.6858
 5972TIP3   OH239406   5.467   4.007   4.420  0.1614 -0.5087 -0.5617
 5972TIP3    H139407   5.414   4.028   4.497  0.9199  1.3595 -0.5103
 5972TIP3    H239408   5.407   4.017   4.347 -0.2639 -1.1737 -0.3164
 5973TIP3   OH239409   0.689   5.729   0.306  0.0626  0.0703 -0.1610
 5973TIP3    H139410   0.742   5.808   0.319  0.6925 -0.1574 -1.2392
 5973TIP3    H239411   0.736   5.660   0.353 -0.3950  0.2891  0.6337
 5974TIP3   OH239412   1.575   4.435   2.231  0.0241  0.1987  0.0726
 5974TIP3    H139413   1.548   4.527   2.236 -0.0994  0.1594  0.1066
 5974TIP3    H239414   1.560   4.401   2.319  1.6017  0.5833  0.5328
 5975TIP3   OH239415   6.808   1.384  12.949 -0.2035 -0.0409 -0.7658
 5975TIP3    H139416   6.856   1.312  12.907 -1.1419 -0.1838 -1.6214
 5975TIP3    H239417   6.754   1.341  13.015 -0.3567 -0.0673 -0.9064
 5976TIP3   OH239418   0.032   4.598  11.753 -0.5156 -0.7094 -0.1748
 5976TIP3    H139419  -0.019   4.650  11.690 -0.8953 -1.0349 -0.1420
 5976TIP3    H239420   0.035   4.510  11.714 -3.6795 -1.8782  1.7780
 5977TIP3   OH239421   2.012   4.852  15.815  0.1546  0.5577 -0.4234
 5977TIP3    H139422   2.065   4.851  15.735 -0.0534  1.9016 -0.5973
 5977TIP3    H239423   2.073   4.822  15.883  0.4412 -0.2321 -1.0104
 5978TIP3   OH239424   3.298   2.842   4.674 -0.4399  0.2511  0.0519
 5978TIP3    H139425   3.301   2.891   4.592  0.7486  1.3795  0.7374
 5978TIP3    H239426   3.244   2.895   4.732 -1.4883 -0.6683 -0.0572
 5979TIP3   OH239427   0.141   5.703  15.756  0.0011 -0.6652 -1.0783
 5979TIP3    H139428   0.161   5.755  15.834  0.0328 -1.6503 -0.4172
 5979TIP3    H239429   0.058   5.738  15.724 -0.6014 -1.0188  0.0668
 5980TIP3   OH239430   3.661   1.879  15.120  0.0931 -0.3781 -0.6160
 5980TIP3    H139431   3.699   1.797  15.151 -2.1330 -1.1205  0.3517
 5980TIP3    H239432   3.662   1.937  15.197  2.7961  1.0447 -1.5934
 5981TIP3   OH239433   5.667   5.164   4.611 -0.0276 -0.0519  0.6082
 5981TIP3    H139434   5.709   5.249   4.600 -2.0592  1.1975  1.9082
 5981TIP3    H239435   5.682   5.119   4.528 -0.5214  2.3272 -0.8431
 5982TIP3   OH239436   5.804   5.861   5.704 -0.0935  0.1916  0.0415
 5982TIP3    H139437   5.900   5.861   5.702 -0.0663  0.6586  0.7005
 5982TIP3    H239438   5.782   5.804   5.778 -0.3591 -0.7754 -0.7716
 5983TIP3   OH239439   2.147   0.962  13.265  0.0140  0.6705  0.2636
 5983TIP3    H139440   2.238   0.933  13.267  0.0702  0.5938 -1.6514
 5983TIP3    H239441   2.153   1.058  13.258 -0.1385  0.9639  2.9759
 5984TIP3   OH239442   4.593   2.001   4.829 -0.2796  0.0317 -0.0360
 5984TIP3    H139443   4.527   2.020   4.896 -0.2352  0.7132 -0.1793
 5984TIP3    H239444   4.601   1.906   4.830 -1.1422 -0.0473  0.0956
 5985TIP3   OH239445   2.680   3.239   5.332  0.1257  0.3719 -0.1010
 5985TIP3    H139446   2.690   3.248   5.427 -0.1921  0.6377 -0.0945
 5985TIP3    H239447   2.590   3.264   5.315  0.0232 -0.1948 -0.4084
 5986TIP3   OH239448   2.038   0.790  13.063  0.6613 -0.1405  0.3686
 5986TIP3    H139449   2.097   0.855  13.103  1.2725 -0.0790 -0.5896
 5986TIP3    H239450   1.952   0.832  13.064  1.0623  0.7211 -0.3027
 5987TIP3   OH239451   4.121   6.730   0.299  0.0333 -0.4320 -0.0784
 5987TIP3    H139452   4.119   6.772   0.213 -0.6883 -0.7167 -0.1978
 5987TIP3    H239453   4.038   6.683   0.306 -0.4831  0.6016  1.2763
 5988TIP3   OH239454   6.095   0.232  16.904  0.0249 -0.0885  0.0432
 5988TIP3    H139455   6.159   0.303  16.905  0.7397 -0.7019  1.9466
 5988TIP3    H239456   6.138   0.162  16.854 -1.5669  1.4508 -3.8661
 5989TIP3   OH239457   5.269   3.063  15.127  0.1421 -0.2915  0.0417
 5989TIP3    H139458   5.206   2.992  15.138  0.4401 -0.5272  0.2622
 5989TIP3    H239459   5.216   3.141  15.109 -0.2333 -0.4094  0.5973
 5990TIP3   OH239460   1.903   6.134  12.435  0.0402  0.0598  0.4088
 5990TIP3    H139461   1.866   6.072  12.372 -0.3481  0.2373  0.4566
 5990TIP3    H239462   1.946   6.200  12.381  1.5373 -0.8816  0.3716
 5991TIP3   OH239463   1.438   0.826   3.108 -0.1083  0.3570 -0.1948
 5991TIP3    H139464   1.391   0.747   3.133 -0.4707  0.5699 -0.2033
 5991TIP3    H239465   1.393   0.897   3.154  1.3197  0.3714  1.2712
 5992TIP3   OH239466   6.660   1.202  17.068  0.3009 -0.4005 -0.0985
 5992TIP3    H139467   6.730   1.190  17.133 -0.6790  3.7879  2.0358
 5992TIP3    H239468   6.590   1.143  17.097  0.8553 -0.4910  1.1136
 5993TIP3   OH239469   6.420   5.954   0.004  0.1146  0.2567 -0.0080
 5993TIP3    H139470   6.346   5.957   0.065  0.6456  1.6434  0.6183
 5993TIP3    H239471   6.497   5.969   0.060  0.8829 -1.1200 -0.6496
 5994TIP3   OH239472   4.755   0.550   3.002  0.4893 -0.7027 -0.2522
 5994TIP3    H139473   4.703   0.502   3.067  0.7464 -0.8721 -0.1712
 5994TIP3    H239474   4.744   0.642   3.025  1.0107 -0.7916  0.3477
 5995TIP3   OH239475   0.762   6.632  15.781  0.2346 -0.0251 -0.4044
 5995TIP3    H139476   0.715   6.550  15.764 -1.1176  1.0198 -1.9654
 5995TIP3    H239477   0.842   6.605  15.827  1.1905 -2.5340 -3.2187
 5996TIP3   OH239478   5.545   5.715   1.765 -0.2952  0.0699 -0.8532
 5996TIP3    H139479   5.487   5.689   1.837  0.4716 -0.7687 -0.5173
 5996TIP3    H239480   5.633   5.705   1.801  0.1030 -0.3382 -1.9012
 5997TIP3   OH239481   0.975   0.804   5.553 -0.2639  0.0208  0.0372
 5997TIP3    H139482   0.957   0.897   5.542 -0.0439  0.1391  0.6290
 5997TIP3    H239483   0.989   0.793   5.647  0.3501 -0.4906 -0.1046
 5998TIP3   OH239484   2.098   4.050   4.490 -0.0062 -0.2068 -0.5205
 5998TIP3    H139485   2.062   4.138   4.504 -0.6004 -0.6181  0.6750
 5998TIP3    H239486   2.021   3.994   4.485  0.3890 -0.7250 -0.8511
 5999TIP3   OH239487   1.176   4.055  13.846  0.2338  0.1073  0.7604
 5999TIP3    H139488   1.260   4.023  13.881  0.9987 -0.8151 -1.6900
 5999TIP3    H239489   1.192   4.147  13.826  1.0313 -0.2968 -0.5941
 6000TIP3   OH239490   1.869   5.658   1.940  0.5937  0.2492 -0.5380
 6000TIP3    H139491   1.840   5.746   1.915  1.5886  1.0232  0.8786
 6000TIP3    H239492   1.917   5.671   2.022  0.8304 -1.6158 -0.3349
 6001TIP3   OH239493   4.661   3.474  11.423 -0.0681  0.1968 -0.0474
 6001TIP3    H139494   4.682   3.541  11.358 -3.1243  1.2484 -0.1496
 6001TIP3    H239495   4.723   3.489  11.494  1.0392  1.3643 -1.2170
 6002TIP3   OH239496   0.501   4.186   3.956  0.2409 -0.1684 -0.4717
 6002TIP3    H139497   0.508   4.095   3.985 -0.5073 -0.1909 -0.3495
 6002TIP3    H239498   0.576   4.230   3.995  1.3804 -1.0115 -1.6279
 6003TIP3   OH239499   2.905   2.098  15.459 -0.4464  0.1580  0.0591
 6003TIP3    H139500   2.960   2.020  15.466  0.4346  0.8279  0.8875
 6003TIP3    H239501   2.869   2.108  15.548 -0.2461  0.9057  0.0577
 6004TIP3   OH239502   5.536   1.551  12.592 -0.0384 -0.4474 -0.0543
 6004TIP3    H139503   5.590   1.610  12.540  0.1120  1.5154  2.1914
 6004TIP3    H239504   5.596   1.479  12.616  0.5213 -0.1970 -0.6745
 6005TIP3   OH239505   6.700   6.578  16.246  0.2186 -0.4645 -0.7080
 6005TIP3    H139506   6.764   6.648  16.260  0.0389 -0.1529 -1.4411
 6005TIP3    H239507   6.617   6.617  16.272 -0.0027 -0.1336 -1.8767
 6006TIP3   OH239508   5.994   1.590  12.251 -0.2708 -0.6273  0.6828
 6006TIP3    H139509   5.928   1.649  12.215  1.3038  1.5908  1.1965
 6006TIP3    H239510   5.995   1.608  12.345 -0.0114 -1.7812  0.9238
 6007TIP3   OH239511   2.715   2.839   5.608 -0.4315 -0.1005  0.1155
 6007TIP3    H139512   2.760   2.860   5.526 -0.0648  0.3470  0.4196
 6007TIP3    H239513   2.779   2.862   5.676 -0.5032 -1.0370  0.5107
 6008TIP3   OH239514   4.237   1.298  11.235  0.0978  0.4506  0.2663
 6008TIP3    H139515   4.309   1.299  11.297  0.3886  0.2482 -0.0656
 6008TIP3    H239516   4.187   1.219  11.257  1.4090 -0.8239 -1.1121
 6009TIP3   OH239517   4.098   0.951  15.709  0.6720  0.0197  0.2549
 6009TIP3    H139518   4.122   1.006  15.635  0.1101  1.2296  0.9325
 6009TIP3    H239519   4.019   0.991  15.745  0.2158 -1.2633  0.7678
 6010TIP3   OH239520   6.744   5.296  16.995 -0.9725 -0.3562  0.0235
 6010TIP3    H139521   6.690   5.331  16.925 -1.9529  1.4414  1.5945
 6010TIP3    H239522   6.681   5.264  17.060 -0.2268  1.2609  1.6396
 6011TIP3   OH239523   1.512   0.204   4.192 -0.1759 -0.5042 -0.8214
 6011TIP3    H139524   1.422   0.189   4.222  0.2544  0.1445  0.8641
 6011TIP3    H239525   1.501   0.253   4.110 -1.3675  0.4255 -0.1466
 6012TIP3   OH239526   5.863   0.018  13.374  0.1643 -0.3089  0.2936
 6012TIP3    H139527   5.902   0.095  13.416  0.9473 -0.5387  0.0038
 6012TIP3    H239528   5.845  -0.043  13.445 -0.9665  0.3481  0.5929
 6013TIP3   OH239529   1.308   0.777  11.496  0.3890 -0.5839 -0.5186
 6013TIP3    H139530   1.320   0.682  11.504  1.9162 -0.4081 -0.4116
 6013TIP3    H239531   1.367   0.803  11.425 -0.1127  0.2692 -0.6315
 6014TIP3   OH239532   0.338   0.810  13.045  0.3421  0.1912 -0.0182
 6014TIP3    H139533   0.385   0.891  13.061 -1.4142  1.4320 -0.7595
 6014TIP3    H239534   0.405   0.746  13.022  1.6192  2.0315 -1.7103
 6015TIP3   OH239535   3.457   5.507  13.213 -0.4411 -0.0184 -0.4195
 6015TIP3    H139536   3.411   5.584  13.247 -0.0254  0.4430 -0.8688
 6015TIP3    H239537   3.541   5.542  13.181 -0.5685 -0.5288 -1.3493
 6016TIP3   OH239538   5.389   1.755   3.668 -0.0924  0.2005 -0.2782
 6016TIP3    H139539   5.317   1.731   3.726  0.5575 -1.9835 -0.2718
 6016TIP3    H239540   5.371   1.845   3.642 -1.4119  0.5848  1.7832
 6017TIP3   OH239541   6.708   0.729   5.350  0.5603  0.2027  0.2781
 6017TIP3    H139542   6.759   0.652   5.373  0.9425  0.3469 -0.0832
 6017TIP3    H239543   6.656   0.748   5.429  0.4030 -0.4662  0.3432
 6018TIP3   OH239544   0.579   5.812  16.490 -0.4182  0.0966  0.2321
 6018TIP3    H139545   0.593   5.717  16.491 -2.5613 -0.2862 -0.7437
 6018TIP3    H239546   0.591   5.837  16.398  4.3603  1.6173  0.9858
 6019TIP3   OH239547   6.039   2.244   2.990  0.3109  0.0819 -0.4237
 6019TIP3    H139548   6.126   2.277   3.012  1.4015 -1.5725 -1.9121
 6019TIP3    H239549   6.030   2.163   3.041 -0.3748  0.2635 -0.2443
 6020TIP3   OH239550   4.815   1.013   5.680 -0.2033 -0.3825  0.1366
 6020TIP3    H139551   4.720   1.026   5.671 -0.1047  2.0351  1.8688
 6020TIP3    H239552   4.853   1.097   5.657  1.2823 -0.3483  2.4054
 6021TIP3   OH239553   3.691   1.371  14.183 -0.1056  0.0084 -0.1475
 6021TIP3    H139554   3.674   1.287  14.141  0.4709 -0.2935  0.2015
 6021TIP3    H239555   3.670   1.357  14.276  1.1103 -0.1143  0.1266
 6022TIP3   OH239556   1.801   5.877  13.398 -0.3345 -0.2456 -0.2178
 6022TIP3    H139557   1.723   5.901  13.448 -1.0047  0.8896 -1.7002
 6022TIP3    H239558   1.785   5.788  13.367 -0.7968 -0.2226 -0.0377
 6023TIP3   OH239559   3.144   1.995  10.862 -0.3050  0.6174 -0.0162
 6023TIP3    H139560   3.142   1.944  10.943 -0.7860  1.1430  0.3057
 6023TIP3    H239561   3.068   2.052  10.867 -0.5421  0.4083 -1.0034
 6024TIP3   OH239562   4.745   2.482   2.006 -0.0243 -0.4595  0.4148
 6024TIP3    H139563   4.673   2.474   2.069 -0.8866  2.8171  0.0221
 6024TIP3    H239564   4.796   2.557   2.035  1.2770 -0.6452 -1.1892
 6025TIP3   OH239565   5.393   1.372   2.169  0.0041 -0.4462 -0.0488
 6025TIP3    H139566   5.335   1.448   2.178  0.2143 -0.1275 -1.2599
 6025TIP3    H239567   5.432   1.361   2.256  1.1209  1.7709 -0.2154
 6026TIP3   OH239568   6.617   2.531  12.231 -0.1539 -0.2314 -0.0954
 6026TIP3    H139569   6.532   2.573  12.243  0.1473  0.2204  0.5422
 6026TIP3    H239570   6.661   2.540  12.316  0.7404  0.0082 -0.5645
 6027TIP3   OH239571   2.286   6.238   4.966 -0.3003  0.0783  0.1885
 6027TIP3    H139572   2.234   6.244   5.047 -1.0427 -1.6893 -0.1120
 6027TIP3    H239573   2.347   6.166   4.983 -1.7117 -1.6194 -1.4223
 6028TIP3   OH239574   4.888   3.702   0.254  0.0820  0.4214  0.2166
 6028TIP3    H139575   4.868   3.688   0.347  0.0415  0.4083  0.2060
 6028TIP3    H239576   4.918   3.617   0.223  1.8276  0.8329  0.6497
 6029TIP3   OH239577   0.388   3.333   5.698  0.6834  0.3021  1.4800
 6029TIP3    H139578   0.388   3.425   5.722  0.7176  0.4106  1.0603
 6029TIP3    H239579   0.297   3.313   5.678  0.7617  0.3921  1.0153
 6030TIP3   OH239580   6.783   0.898   2.647 -0.6809 -0.1920 -1.1807
 6030TIP3    H139581   6.755   0.987   2.668  0.2968 -0.1849  0.2662
 6030TIP3    H239582   6.862   0.885   2.700 -1.1440 -2.1325 -0.9043
 6031TIP3   OH239583   2.756   6.369  14.268  0.3650  0.2106 -0.0674
 6031TIP3    H139584   2.757   6.333  14.179  2.5616 -0.5912  0.2375
 6031TIP3    H239585   2.751   6.292  14.325  0.6024  0.6383  0.5414
 6032TIP3   OH239586   2.480   0.428  11.873 -0.1829  0.5466 -0.1178
 6032TIP3    H139587   2.515   0.509  11.913 -0.5079  1.9202 -2.4475
 6032TIP3    H239588   2.551   0.397  11.817 -0.0596 -0.8620  0.7702
 6033TIP3   OH239589   1.422   6.800   0.981  0.0792  0.1142 -0.4204
 6033TIP3    H139590   1.372   6.809   0.900 -0.3574  0.9459 -0.0735
 6033TIP3    H239591   1.513   6.812   0.954 -0.1205  1.2044 -0.6932
 6034TIP3   OH239592   5.330   0.520  16.604  0.3297  0.5778  0.0694
 6034TIP3    H139593   5.287   0.484  16.681 -0.8806  0.9636 -0.4108
 6034TIP3    H239594   5.405   0.462  16.590 -0.9889 -1.1650 -0.1031
 6035TIP3   OH239595   1.505   5.976  13.275  0.0342 -0.5100 -0.8283
 6035TIP3    H139596   1.485   6.035  13.348  2.3760 -1.4958  0.7232
 6035TIP3    H239597   1.535   6.034  13.205  0.5446  0.2815  0.0243
 6036TIP3   OH239598   5.507   6.337  14.849 -0.1261 -0.6028 -0.4375
 6036TIP3    H139599   5.414   6.352  14.865  0.2570 -0.4142  2.1017
 6036TIP3    H239600   5.544   6.424  14.835 -0.2172 -0.6075 -0.7059
 6037TIP3   OH239601   4.670   6.765  12.713 -0.2876 -0.3682  0.3788
 6037TIP3    H139602   4.625   6.713  12.646  1.8987 -0.5844 -1.0044
 6037TIP3    H239603   4.673   6.853  12.677  0.0828 -0.2755  0.6359
 6038TIP3   OH239604   5.009   6.057  15.366  0.1886 -0.3320  0.4437
 6038TIP3    H139605   5.103   6.072  15.370  0.3061  0.0590 -2.2609
 6038TIP3    H239606   4.974   6.109  15.438  1.8714  1.2238  0.2058
 6039TIP3   OH239607   4.446   6.188   3.842  0.1304  0.4740 -0.1108
 6039TIP3    H139608   4.408   6.103   3.819 -0.0599  1.0374 -2.0272
 6039TIP3    H239609   4.448   6.237   3.760  3.6170  1.0371  0.1727
 6040TIP3   OH239610   4.562   0.109   1.787  0.4963 -0.0928 -0.5914
 6040TIP3    H139611   4.618   0.185   1.803  0.1356 -0.3290  2.3528
 6040TIP3    H239612   4.480   0.146   1.756  0.3823  0.7646  0.6360
 6041TIP3   OH239613   3.829   2.961  11.987 -0.0542 -0.0280  0.7782
 6041TIP3    H139614   3.875   2.964  11.903 -0.6999  0.3573  0.4302
 6041TIP3    H239615   3.832   3.051  12.019  0.4468 -0.2296  1.3159
 6042TIP3   OH239616   3.340   6.298   0.931 -0.7740 -0.0522 -0.3111
 6042TIP3    H139617   3.407   6.244   0.889  0.1074  0.4751  0.3683
 6042TIP3    H239618   3.354   6.385   0.896 -2.1405 -0.2204 -1.3465
 6043TIP3   OH239619   6.741   2.027   1.933  0.2042  0.2528  0.0100
 6043TIP3    H139620   6.669   1.981   1.889 -1.2551  0.9357  1.5746
 6043TIP3    H239621   6.726   2.011   2.026  1.3945  1.4040  0.4235
 6044TIP3   OH239622   2.817   5.599  10.510  0.2700  0.5689  0.6782
 6044TIP3    H139623   2.828   5.618  10.603  0.9338  1.2844  0.4724
 6044TIP3    H239624   2.727   5.625  10.490  0.4567  1.4045  0.9022
 6045TIP3   OH239625   3.280   2.129  16.628  0.1981 -0.0008 -0.1144
 6045TIP3    H139626   3.331   2.146  16.549  0.4262 -0.3107 -0.0321
 6045TIP3    H239627   3.306   2.199  16.689 -0.8128  0.9172 -0.7003
 6046TIP3   OH239628   2.452   4.969   3.837  0.7691  0.2961 -0.5262
 6046TIP3    H139629   2.512   5.043   3.826  1.4601  0.3188  2.4695
 6046TIP3    H239630   2.509   4.892   3.836  0.1276 -0.2228 -2.9642
 6047TIP3   OH239631   2.004   0.141   3.211  0.8089 -0.6321  0.3112
 6047TIP3    H139632   1.964   0.080   3.149  0.2914 -0.3232  0.3413
 6047TIP3    H239633   1.936   0.205   3.229  1.2168 -0.2783  0.6014
 6048TIP3   OH239634   1.218   4.759  10.823  0.3213  0.2145  0.3466
 6048TIP3    H139635   1.274   4.830  10.790  0.4845  0.3369  0.8884
 6048TIP3    H239636   1.195   4.786  10.912 -1.6372  0.8068 -0.2827
 6049TIP3   OH239637   4.173   5.153  14.270 -0.8226  0.4573 -0.5290
 6049TIP3    H139638   4.081   5.142  14.250 -0.6588  2.2556 -2.6658
 6049TIP3    H239639   4.186   5.105  14.352 -3.3936 -0.6686 -0.6944
 6050TIP3   OH239640   2.136   5.963   2.832  0.1218 -0.1303  0.0272
 6050TIP3    H139641   2.190   6.007   2.897  1.4070 -1.2870 -0.2272
 6050TIP3    H239642   2.113   6.032   2.769  1.2947  0.3828  0.1374
 6051TIP3   OH239643   3.661   4.588   1.299 -0.0588  0.0172  0.1600
 6051TIP3    H139644   3.717   4.666   1.307  1.1881 -0.9549  1.3968
 6051TIP3    H239645   3.628   4.574   1.388 -0.3879 -0.7791 -0.0898
 6052TIP3   OH239646   3.776   4.882  16.975 -0.1644 -0.2003  0.2675
 6052TIP3    H139647   3.785   4.925  17.060  2.3062 -2.0392  1.0626
 6052TIP3    H239648   3.711   4.814  16.989  0.9182 -1.1220  1.0359
 6053TIP3   OH239649   5.089   6.265   4.832 -0.0541  0.0736 -0.4799
 6053TIP3    H139650   5.005   6.303   4.807  0.1900  3.1818  2.6404
 6053TIP3    H239651   5.149   6.293   4.763 -1.0996 -0.1001 -1.4880
 6054TIP3   OH239652   4.579   2.556  13.069 -0.2510 -0.2960  0.4330
 6054TIP3    H139653   4.536   2.472  13.086  0.6095 -0.8216  0.1093
 6054TIP3    H239654   4.517   2.622  13.099 -1.1194 -1.0385  0.3090
 6055TIP3   OH239655   2.784   5.204   1.110  0.1913  0.6620 -0.1581
 6055TIP3    H139656   2.864   5.217   1.059  2.3586 -1.6110  2.3511
 6055TIP3    H239657   2.760   5.113   1.095 -1.5476  1.0906 -0.2497
 6056TIP3   OH239658   2.271   4.023  13.495  0.0519 -0.0888  0.3650
 6056TIP3    H139659   2.329   4.093  13.523 -0.2258  1.0164 -1.6616
 6056TIP3    H239660   2.301   4.000  13.407 -1.5598 -0.5849 -0.1006
 6057TIP3   OH239661   2.758   0.140   4.083  0.2230  0.5942 -0.2085
 6057TIP3    H139662   2.741   0.050   4.056  0.6692  0.3546  0.2875
 6057TIP3    H239663   2.677   0.168   4.126  0.5307 -0.0380  0.8303
 6058TIP3   OH239664   3.328   1.582  16.540  0.1914  0.1044  0.1520
 6058TIP3    H139665   3.292   1.632  16.613 -1.2907  0.1093 -0.5471
 6058TIP3    H239666   3.260   1.517  16.519  0.3314  0.4634 -1.5570
 6059TIP3   OH239667   1.566   3.449  17.184  0.3770 -0.2598  0.4189
 6059TIP3    H139668   1.630   3.442  17.255  0.2530 -0.7470  0.4868
 6059TIP3    H239669   1.527   3.536  17.196  1.8936  0.5819 -0.3850
 6060TIP3   OH239670   4.830   0.881   3.469 -0.1204  0.5061 -0.1357
 6060TIP3    H139671   4.849   0.898   3.562  0.0305  2.2283 -0.4511
 6060TIP3    H239672   4.738   0.857   3.467 -0.7932  2.8206  0.2434
 6061TIP3   OH239673   6.673   6.051  17.087 -0.2213  0.2257  0.0524
 6061TIP3    H139674   6.667   6.074  17.180 -1.9724  3.5813 -0.7454
 6061TIP3    H239675   6.764   6.024  17.075  0.5051  1.3620  2.4193
 6062TIP3   OH239676   3.823   5.688   2.515 -0.2098 -0.1545  0.1245
 6062TIP3    H139677   3.884   5.615   2.526  1.4985  0.9735 -1.1859
 6062TIP3    H239678   3.836   5.717   2.425 -1.0598  1.5333  0.4973
 6063TIP3   OH239679   5.578   6.465  15.496 -0.4064  0.5040  0.2487
 6063TIP3    H139680   5.628   6.402  15.548  1.2817  2.3965  1.0470
 6063TIP3    H239681   5.494   6.422  15.482  0.4343 -1.6558  1.2758
 6064TIP3   OH239682   0.690   4.638  15.018  0.4337  0.3392  0.6163
 6064TIP3    H139683   0.657   4.584  15.089  0.7979  0.6196  1.0035
 6064TIP3    H239684   0.617   4.697  14.998 -0.0806 -0.4858 -0.0253
 6065TIP3   OH239685   5.533   4.172  15.398  0.2893  0.1865 -0.2298
 6065TIP3    H139686   5.505   4.178  15.490 -1.5312  1.8041 -0.8316
 6065TIP3    H239687   5.527   4.079  15.378 -4.3702  0.2079 -0.0841
 6066TIP3   OH239688   3.071   2.294  11.799 -0.1582  0.1101  0.2827
 6066TIP3    H139689   3.077   2.198  11.791  0.2310  0.0315  1.3990
 6066TIP3    H239690   3.018   2.308  11.878 -1.0633  0.8220 -0.4365
 6067TIP3   OH239691   0.181   0.921  11.270  0.0842  0.6031  0.1674
 6067TIP3    H139692   0.252   0.900  11.209 -0.3238 -0.0182 -0.1003
 6067TIP3    H239693   0.164   0.839  11.317  0.2949  1.0386  1.0211
 6068TIP3   OH239694   0.483   0.563  13.075 -0.3037 -0.4438  0.2368
 6068TIP3    H139695   0.433   0.521  13.005  0.8955  1.4445 -1.8743
 6068TIP3    H239696   0.571   0.526  13.067 -0.2893 -0.6431  1.1711
 6069TIP3   OH239697   4.493   1.248   0.318 -0.3711  0.2691 -0.8882
 6069TIP3    H139698   4.538   1.202   0.388 -0.5585 -0.3962 -1.1951
 6069TIP3    H239699   4.544   1.328   0.304 -0.9247  0.9365  0.7102
 6070TIP3   OH239700   5.021   2.004  15.641  0.2406 -0.4342 -0.3825
 6070TIP3    H139701   5.113   2.029  15.649 -0.0073  0.9250 -1.5239
 6070TIP3    H239702   5.022   1.931  15.579  0.3784  1.1073 -2.2948
 6071TIP3   OH239703   6.111   5.257  14.384  0.3102  0.4099 -0.0919
 6071TIP3    H139704   6.196   5.215  14.394 -0.7942 -2.1610 -0.6295
 6071TIP3    H239705   6.066   5.241  14.467  0.1532  1.3224  0.0097
 6072TIP3   OH239706   6.758   2.198   3.053 -0.8479 -0.0048  0.0972
 6072TIP3    H139707   6.727   2.289   3.056 -0.0382  0.2908 -0.2962
 6072TIP3    H239708   6.743   2.165   3.142  0.4954  1.0825  0.7689
 6073TIP3   OH239709   2.245   4.718   2.366 -0.1950  0.1362  0.2669
 6073TIP3    H139710   2.309   4.650   2.389 -0.9211 -1.3789 -1.8467
 6073TIP3    H239711   2.292   4.800   2.378  1.2069 -0.7829  1.4891
 6074TIP3   OH239712   6.169   2.208  11.106  0.4928 -0.7273  0.7692
 6074TIP3    H139713   6.159   2.262  11.027 -0.8512 -0.5885  1.0091
 6074TIP3    H239714   6.140   2.121  11.079  0.3988 -0.7697  1.0069
 6075TIP3   OH239715   0.597   5.603  11.363  0.2253 -0.1782  0.1380
 6075TIP3    H139716   0.674   5.637  11.317  0.7078 -1.1515  0.1893
 6075TIP3    H239717   0.538   5.573  11.294  1.3785 -2.5778  0.0621
 6076TIP3   OH239718   0.815   1.379   1.053 -0.4433  0.3117  0.1881
 6076TIP3    H139719   0.787   1.470   1.061  0.7614  0.7811 -0.5842
 6076TIP3    H239720   0.741   1.328   1.086 -0.7472  1.5844  1.5783
 6077TIP3   OH239721   3.386   2.738  16.957  0.2657  0.5845  0.2427
 6077TIP3    H139722   3.475   2.703  16.958  0.8679  1.9063 -1.5137
 6077TIP3    H239723   3.399   2.833  16.948 -1.3097  0.7196 -0.9186
 6078TIP3   OH239724   6.494   4.331  16.756  0.8637  0.1610  0.6651
 6078TIP3    H139725   6.550   4.302  16.828  0.3263 -0.5014  0.8270
 6078TIP3    H239726   6.428   4.262  16.747  0.7703  0.3591 -0.2960
 6079TIP3   OH239727   0.186   0.668   3.005 -0.2411 -0.0919  0.3316
 6079TIP3    H139728   0.218   0.633   3.088 -0.9336 -0.0874  0.6039
 6079TIP3    H239729   0.195   0.596   2.943  1.1476  0.1811  0.1741
 6080TIP3   OH239730   0.582   4.457   5.376 -0.1198 -0.0336  1.1214
 6080TIP3    H139731   0.579   4.473   5.282 -0.4280  0.4200  1.2066
 6080TIP3    H239732   0.519   4.386   5.390  0.7617 -0.8976  0.8384
 6081TIP3   OH239733   0.573   6.594  12.461  0.0512  0.1835  0.1909
 6081TIP3    H139734   0.529   6.571  12.543 -0.8635  1.0562 -0.0352
 6081TIP3    H239735   0.660   6.555  12.469  0.3350  1.0411  1.9972
 6082TIP3   OH239736   0.811   4.605  13.444  0.1799 -0.7625  0.5052
 6082TIP3    H139737   0.729   4.572  13.481 -1.1129  0.6003 -0.9794
 6082TIP3    H239738   0.830   4.684  13.494  0.0279 -0.5194  0.1804
 6083TIP3   OH239739   5.613   2.895  15.263 -0.1882 -0.5427  0.1350
 6083TIP3    H139740   5.634   2.951  15.188  0.0749 -2.5132 -1.3552
 6083TIP3    H239741   5.678   2.917  15.329 -1.2342  2.1922  0.3637
 6084TIP3   OH239742   1.077   1.203   1.451  1.0435  0.1183 -0.0948
 6084TIP3    H139743   1.123   1.128   1.489  1.5669  0.4314 -0.0996
 6084TIP3    H239744   1.131   1.278   1.474  0.0902  0.6023  0.6460
 6085TIP3   OH239745   4.846   2.610   4.039 -0.4209  0.0616 -0.0546
 6085TIP3    H139746   4.890   2.602   4.123 -2.0962  1.4856  1.0570
 6085TIP3    H239747   4.915   2.633   3.977  1.0488 -2.1926  0.6183
 6086TIP3   OH239748   5.094   0.138  16.887 -0.1683 -0.2886 -0.6373
 6086TIP3    H139749   5.006   0.173  16.876  0.5184  3.6150  3.2420
 6086TIP3    H239750   5.086   0.074  16.958  0.2084  1.4061  1.0162
 6087TIP3   OH239751   0.785   5.523  12.077  0.4208 -0.4647 -0.6807
 6087TIP3    H139752   0.737   5.537  11.995  0.5356 -2.0484 -1.0521
 6087TIP3    H239753   0.823   5.608  12.097 -0.6490  0.2601 -1.6011
 6088TIP3   OH239754   6.764   1.774   4.722 -0.4225 -0.3130  0.2199
 6088TIP3    H139755   6.761   1.862   4.760  0.1945 -0.4011  0.4756
 6088TIP3    H239756   6.675   1.740   4.734 -0.4843  0.0184  0.7233
 6089TIP3   OH239757   6.735   6.461  15.836 -0.0926 -0.5677 -0.0400
 6089TIP3    H139758   6.808   6.474  15.895 -1.2734  0.1927  1.3003
 6089TIP3    H239759   6.740   6.534  15.774  0.4443 -0.6904 -0.1427
 6090TIP3   OH239760   6.502   2.074   4.710  0.3302  0.1488  0.0742
 6090TIP3    H139761   6.436   2.135   4.676 -1.0446 -1.7703 -0.8399
 6090TIP3    H239762   6.551   2.045   4.634  1.0658  0.1839  0.5200
 6091TIP3   OH239763   6.489   3.339   2.426  0.1134 -0.0161  0.1310
 6091TIP3    H139764   6.545   3.275   2.469 -1.6836 -1.5292  0.3307
 6091TIP3    H239765   6.504   3.326   2.333  0.3693 -0.1524  0.1915
 6092TIP3   OH239766   2.056   3.217   6.078 -0.2460  0.0468 -0.2591
 6092TIP3    H139767   2.126   3.198   6.016  2.5395 -0.5614  2.7795
 6092TIP3    H239768   2.000   3.139   6.076  0.1611 -0.2306 -1.5040
 6093TIP3   OH239769   4.423   4.512   0.557 -0.3926  0.1838  0.3083
 6093TIP3    H139770   4.357   4.449   0.587  0.8435 -1.5355 -0.3850
 6093TIP3    H239771   4.453   4.556   0.637 -2.4091  1.0848  0.6205
 6094TIP3   OH239772   2.707   4.487   4.316  0.0839  0.8932 -0.1830
 6094TIP3    H139773   2.799   4.493   4.290 -0.5706  0.7108 -2.8321
 6094TIP3    H239774   2.699   4.401   4.356  1.2272  1.2942  0.9899
 6095TIP3   OH239775   6.375   6.423   5.474  0.5667  0.3845 -0.7662
 6095TIP3    H139776   6.352   6.437   5.383 -0.5000  0.4180 -0.5050
 6095TIP3    H239777   6.374   6.510   5.513 -0.4671  0.2346 -0.4080
 6096TIP3   OH239778   2.015   5.918  13.902  0.8057 -0.2649  0.1204
 6096TIP3    H139779   1.991   5.998  13.856  3.6125  0.5776 -0.0523
 6096TIP3    H239780   1.931   5.876  13.922 -0.7723  2.5905  0.0584
 6097TIP3   OH239781   0.641   2.076  13.451 -0.1780 -0.3299 -0.5843
 6097TIP3    H139782   0.630   1.999  13.395 -0.0949  0.0497 -1.1345
 6097TIP3    H239783   0.603   2.148  13.400 -1.8926 -0.2845  0.6687
 6098TIP3   OH239784   4.227   1.379   4.171  0.0465 -0.3241  0.0053
 6098TIP3    H139785   4.275   1.460   4.183 -0.0903 -0.3588  0.8899
 6098TIP3    H239786   4.256   1.345   4.087  1.8777 -0.5387  0.6779
 6099TIP3   OH239787   5.332   3.111   4.948 -0.1888 -0.3928  0.1982
 6099TIP3    H139788   5.398   3.164   4.903  0.4881 -1.2386  0.1699
 6099TIP3    H239789   5.368   3.097   5.035 -0.5867 -0.4143  0.3617
 6100TIP3   OH239790   3.391   6.452   4.708  0.3087  0.0455 -0.0572
 6100TIP3    H139791   3.296   6.441   4.705  0.4993 -1.6703 -1.1298
 6100TIP3    H239792   3.404   6.547   4.711 -1.4174  0.3617 -1.0956
 6101TIP3   OH239793   3.071   6.482  10.887  0.4534  0.0028  0.3001
 6101TIP3    H139794   3.048   6.491  10.794  0.6261  1.8257  0.3923
 6101TIP3    H239795   3.163   6.505  10.891  0.1078  1.3649  1.0870
 6102TIP3   OH239796   2.416   5.706   1.081 -0.0999  0.1231  0.4928
 6102TIP3    H139797   2.433   5.663   0.996 -0.6768  0.3918  0.2365
 6102TIP3    H239798   2.461   5.790   1.075  0.2389 -0.0433  0.6341
 6103TIP3   OH239799   5.652   5.802   5.449 -0.7047 -0.6287 -0.1805
 6103TIP3    H139800   5.708   5.832   5.521 -1.1423  1.1765 -0.5472
 6103TIP3    H239801   5.565   5.832   5.472 -0.9851 -0.7237 -1.0995
 6104TIP3   OH239802   0.256   0.687   3.559 -0.4225 -0.1655  0.2250
 6104TIP3    H139803   0.259   0.736   3.642 -2.3908 -0.7831  0.6998
 6104TIP3    H239804   0.266   0.755   3.492  1.5709  0.3091  0.9142
 6105TIP3   OH239805   4.247   1.317   0.386  0.1538  0.1966  0.2513
 6105TIP3    H139806   4.214   1.239   0.429 -0.6604  0.8546  0.8607
 6105TIP3    H239807   4.338   1.297   0.366 -0.5526 -1.6464 -1.4006
 6106TIP3   OH239808   0.195   6.606   3.600 -0.5212  0.1432 -0.1618
 6106TIP3    H139809   0.141   6.579   3.526 -1.7947 -1.5617  1.3059
 6106TIP3    H239810   0.241   6.527   3.628  0.0346  0.7722  0.7927
 6107TIP3   OH239811   3.819   6.045  12.423  0.1416 -0.0911  0.5991
 6107TIP3    H139812   3.768   6.102  12.480 -0.3493  0.2127 -0.1347
 6107TIP3    H239813   3.802   6.078  12.334  1.0566 -0.4203  0.2863
 6108TIP3   OH239814   0.309   0.475  14.264 -0.0553  0.0484  0.3338
 6108TIP3    H139815   0.397   0.502  14.239 -0.1550 -0.6647 -0.8916
 6108TIP3    H239816   0.312   0.467  14.359  1.2175  0.0074  0.3045
 6109TIP3   OH239817   2.841   6.591   2.601  0.5383 -0.2406  0.1443
 6109TIP3    H139818   2.792   6.529   2.655 -3.3511 -0.4383 -3.1291
 6109TIP3    H239819   2.855   6.545   2.518  0.9142  1.9815 -1.1053
 6110TIP3   OH239820   4.268   3.100  16.617  0.0117  0.2534 -0.1314
 6110TIP3    H139821   4.268   3.106  16.713  1.0865  3.1097 -0.2401
 6110TIP3    H239822   4.183   3.136  16.591 -0.1645 -0.2652 -0.3012
 6111TIP3   OH239823   0.736   5.421  14.239  0.4639  0.6314 -0.3029
 6111TIP3    H139824   0.795   5.403  14.312  1.0075  0.8564 -0.6813
 6111TIP3    H239825   0.723   5.336  14.197 -0.5691  0.3294  0.5733
 6112TIP3   OH239826   2.056   0.877  10.927 -0.1338  0.1246  0.9377
 6112TIP3    H139827   2.092   0.870  11.015  1.0698  0.4362  0.5051
 6112TIP3    H239828   2.114   0.940  10.883 -1.8428  1.4374  0.4836
 6113TIP3   OH239829   5.841   0.938   2.582  0.6248 -0.6133  0.4682
 6113TIP3    H139830   5.881   0.888   2.653 -1.0410 -1.3140  0.9531
 6113TIP3    H239831   5.815   0.872   2.518  0.0200 -0.2098  0.2843
 6114TIP3   OH239832   2.433   6.506  17.086 -0.0441 -0.0290 -0.2150
 6114TIP3    H139833   2.474   6.566  17.024  0.1281  0.5928  0.4797
 6114TIP3    H239834   2.362   6.557  17.125  1.4877  0.5193  2.0102
 6115TIP3   OH239835   6.827   0.493   5.924 -0.5006 -0.0607 -0.1724
 6115TIP3    H139836   6.862   0.521   6.009  0.3760 -0.6169 -0.3321
 6115TIP3    H239837   6.733   0.506   5.931 -0.6861 -1.8637  1.5705
 6116TIP3   OH239838   1.601   2.983  15.669  0.0977 -0.1806  0.1634
 6116TIP3    H139839   1.522   3.016  15.711 -0.1476  0.0370 -0.4619
 6116TIP3    H239840   1.644   3.060  15.633  0.0161 -0.4201 -0.4664
 6117TIP3   OH239841   4.303   0.172  13.614  0.1654  0.2670 -0.0566
 6117TIP3    H139842   4.246   0.248  13.621  0.2601  0.4627 -1.1891
 6117TIP3    H239843   4.250   0.107  13.568  0.2325 -0.2066  0.5205
 6118TIP3   OH239844   4.655   4.560  17.142  0.4156  0.0317 -0.4461
 6118TIP3    H139845   4.617   4.495  17.083 -0.3117 -0.2665  0.3223
 6118TIP3    H239846   4.661   4.515  17.226 -0.5388  1.0754  0.2169
 6119TIP3   OH239847   0.446   2.879  13.049 -0.2209  0.2585  0.1019
 6119TIP3    H139848   0.505   2.929  12.992 -0.9262 -1.0689 -1.9089
 6119TIP3    H239849   0.377   2.941  13.072  0.1797  0.8817 -0.3306
 6120TIP3   OH239850   3.724   0.521  16.154  0.0378  0.3643 -0.2874
 6120TIP3    H139851   3.644   0.535  16.104 -0.1199 -0.7901 -0.4027
 6120TIP3    H239852   3.785   0.587  16.122 -0.6888  0.8933 -0.5966
 6121TIP3   OH239853   5.265   6.111  16.915 -0.1067 -0.4236  0.0800
 6121TIP3    H139854   5.203   6.094  16.844 -1.0112  2.3356  0.1003
 6121TIP3    H239855   5.214   6.160  16.980  1.2545 -1.0443  1.6737
 6122TIP3   OH239856   5.776   4.994  14.286  0.4401  0.7709 -0.3629
 6122TIP3    H139857   5.763   5.089  14.282 -0.6026  0.6363 -0.4804
 6122TIP3    H239858   5.833   4.975  14.212 -0.3332  1.1622 -1.0749
 6123TIP3   OH239859   4.999   1.952  16.290  0.0198  0.4509 -0.1645
 6123TIP3    H139860   4.914   1.909  16.297  0.1652 -0.0024 -1.0110
 6123TIP3    H239861   5.059   1.898  16.342 -0.0998  0.4674 -0.0114
 6124TIP3   OH239862   5.777   4.811  16.673  0.4296  0.7722 -0.1569
 6124TIP3    H139863   5.682   4.801  16.677  0.3637  1.1227 -0.7363
 6124TIP3    H239864   5.811   4.721  16.672  0.0917  0.6441 -0.2343
 6125TIP3   OH239865   3.555   2.439  12.094 -0.1713  0.5997 -0.9005
 6125TIP3    H139866   3.629   2.475  12.142 -0.2708  0.6109 -0.7539
 6125TIP3    H239867   3.529   2.510  12.034 -0.3851  0.7844 -0.5914
 6126TIP3   OH239868   4.993   4.309  17.122 -0.3226  0.4132 -0.2601
 6126TIP3    H139869   4.963   4.397  17.101 -0.2743  0.4439 -0.2012
 6126TIP3    H239870   5.009   4.268  17.037 -0.4375  0.4299 -0.2892
 6127TIP3   OH239871   2.883   1.152   2.308 -0.0502 -0.6313  0.0870
 6127TIP3    H139872   2.957   1.099   2.278 -0.5963 -1.5117  0.2814
 6127TIP3    H239873   2.918   1.200   2.383 -0.3042 -2.8486  1.7021
 6128TIP3   OH239874   2.983   1.439  12.899 -0.5225  0.1019  0.4969
 6128TIP3    H139875   2.964   1.358  12.946  0.5259  2.0261  4.8194
 6128TIP3    H239876   3.073   1.429  12.869  0.4115  0.3251  2.9817
 6129TIP3   OH239877   4.647   6.218   4.679  0.5689 -1.1048 -0.4397
 6129TIP3    H139878   4.634   6.306   4.643  1.2482  0.1488  2.1241
 6129TIP3    H239879   4.566   6.172   4.660 -0.2825  0.4764 -0.8277
 6130TIP3   OH239880   0.550   0.617  16.295 -0.0744  0.0149 -0.2979
 6130TIP3    H139881   0.541   0.622  16.390  0.3217  1.7615 -0.3153
 6130TIP3    H239882   0.639   0.583  16.281 -0.2431 -0.5389 -0.0599
 6131TIP3   OH239883   2.054   0.519  13.487 -0.2597  0.0733 -0.2316
 6131TIP3    H139884   2.104   0.520  13.569  1.1832  1.2255 -1.0722
 6131TIP3    H239885   2.024   0.609  13.475 -1.9852 -0.4563 -0.1078
 6132TIP3   OH239886   3.469   0.941   5.183  0.5381  0.1662  0.5870
 6132TIP3    H139887   3.442   0.972   5.269  0.4288 -0.0834  0.6411
 6132TIP3    H239888   3.387   0.933   5.133  0.6710  1.2086  0.1577
 6133TIP3   OH239889   2.020   1.115  11.952 -0.2291 -0.2115 -0.1454
 6133TIP3    H139890   1.956   1.121  11.880 -2.7657 -1.2444  1.8370
 6133TIP3    H239891   2.019   1.023  11.976  1.0634  0.0090  0.8023
 6134TIP3   OH239892   2.992   0.567   5.076 -0.6406  0.1309  0.2004
 6134TIP3    H139893   2.985   0.480   5.115 -1.0014  0.3867  0.7292
 6134TIP3    H239894   2.901   0.590   5.054 -0.4677  0.0855 -0.5855
 6135TIP3   OH239895   6.676   1.053   5.398 -0.1464  0.1251 -0.8070
 6135TIP3    H139896   6.604   1.073   5.457 -0.2123  0.0177 -0.8511
 6135TIP3    H239897   6.742   1.121   5.416  0.5010 -0.8123  0.5109
 6136TIP3   OH239898   2.439   1.304   1.695 -0.2591 -0.0001 -0.2856
 6136TIP3    H139899   2.450   1.352   1.777 -0.7422 -1.1550  0.4931
 6136TIP3    H239900   2.352   1.265   1.701 -0.5889  0.4680 -1.6782
 6137TIP3   OH239901   2.198   0.061   4.784 -0.4183 -0.0579 -0.0488
 6137TIP3    H139902   2.231  -0.029   4.790 -0.7363 -0.2040 -0.4841
 6137TIP3    H239903   2.185   0.076   4.690  2.7593  1.5827 -0.3513
 6138TIP3   OH239904   1.578   1.338   4.839  0.3140  0.1541  0.4037
 6138TIP3    H139905   1.516   1.311   4.771 -0.8934  1.5634  0.8636
 6138TIP3    H239906   1.524   1.347   4.918  1.9533 -3.2195  2.1488
 6139TIP3   OH239907   5.535   5.353   0.726  1.1017  0.3220 -0.3651
 6139TIP3    H139908   5.453   5.390   0.692 -0.0945 -1.1457  0.7768
 6139TIP3    H239909   5.563   5.415   0.794 -1.2101 -1.0001  1.9668
 6140TIP3   OH239910   0.940   6.185   3.399  0.3122  0.3755 -0.0831
 6140TIP3    H139911   0.948   6.118   3.331  0.6138 -0.2683  0.5716
 6140TIP3    H239912   0.873   6.244   3.367  0.5028  0.1225 -0.9776
 6141TIP3   OH239913   2.244   3.047   4.599 -0.4457  0.1265  0.7352
 6141TIP3    H139914   2.301   3.012   4.530  1.4227  0.0203  2.2392
 6141TIP3    H239915   2.213   2.970   4.646 -2.2113  0.1636 -0.3064
 6142TIP3   OH239916   0.950   5.390  12.906 -0.5207  0.3514 -0.1194
 6142TIP3    H139917   0.855   5.398  12.916 -0.4904 -0.5001  1.1116
 6142TIP3    H239918   0.976   5.473  12.866 -1.8341  0.3950 -0.9539
 6143TIP3   OH239919   0.231   3.401  16.354  0.2281  0.7201  0.0593
 6143TIP3    H139920   0.137   3.416  16.348  0.1957  1.4645  1.7120
 6143TIP3    H239921   0.242   3.307  16.339 -0.7960  0.5921  0.0686
 6144TIP3   OH239922   4.577   3.772   4.889 -0.4546  0.2906 -0.6000
 6144TIP3    H139923   4.527   3.835   4.942  0.5099  0.3195  0.3326
 6144TIP3    H239924   4.526   3.761   4.809 -1.6178  0.7813  0.0502
 6145TIP3   OH239925   2.985   4.427   2.804  0.2433 -0.3499  0.0407
 6145TIP3    H139926   2.923   4.355   2.813  0.2890 -0.4929 -0.7366
 6145TIP3    H239927   2.988   4.468   2.891 -0.6707 -0.5544  0.1700
 6146TIP3   OH239928   4.617   3.829  12.540 -0.3364 -0.3319 -0.0569
 6146TIP3    H139929   4.552   3.897  12.557 -0.4943 -0.6831  0.8076
 6146TIP3    H239930   4.615   3.817  12.445 -1.5203 -0.3114 -0.0499
 6147TIP3   OH239931   6.752   3.467   0.803 -0.0181 -0.0540 -0.0487
 6147TIP3    H139932   6.816   3.468   0.732  0.6932 -1.5669  0.5399
 6147TIP3    H239933   6.804   3.451   0.882 -0.9704  0.1063  0.6318
 6148TIP3   OH239934   0.541   1.611   5.535 -0.5226 -0.1252 -0.5107
 6148TIP3    H139935   0.620   1.665   5.547  0.3048 -1.7883  2.3111
 6148TIP3    H239936   0.567   1.544   5.473  0.1846 -0.4378  0.1145
 6149TIP3   OH239937   5.490   1.232   4.943  0.3681  0.3515 -0.3388
 6149TIP3    H139938   5.546   1.235   4.866  0.5159 -0.9596 -0.3092
 6149TIP3    H239939   5.471   1.324   4.963  2.1620  0.8275 -0.5975
 6150TIP3   OH239940   4.022   1.793  10.701 -0.4545 -0.3041  0.1517
 6150TIP3    H139941   4.117   1.798  10.712 -0.3231 -2.1732  0.2236
 6150TIP3    H239942   4.009   1.781  10.607 -0.5818 -0.7103  0.2225
 6151TIP3   OH239943   4.252   6.776  11.793 -0.1040  0.0282  0.4296
 6151TIP3    H139944   4.249   6.872  11.792 -1.1604 -0.0045 -1.1576
 6151TIP3    H239945   4.346   6.756  11.792  0.1587  1.0173  1.7753
 6152TIP3   OH239946   6.062   2.331  16.914 -0.6493 -0.4025  0.0567
 6152TIP3    H139947   6.018   2.340  16.998 -0.3301 -2.6416  0.5189
 6152TIP3    H239948   6.036   2.244  16.882 -0.1781  0.0915 -1.8096
 6153TIP3   OH239949   1.815   3.557   2.500  0.0154 -0.2401  0.1284
 6153TIP3    H139950   1.813   3.543   2.595  0.5674 -0.1839  0.1541
 6153TIP3    H239951   1.777   3.643   2.488 -0.2989 -0.3571  0.2757
 6154TIP3   OH239952   2.137   0.036   4.507 -0.1358 -0.8970 -0.1879
 6154TIP3    H139953   2.047   0.055   4.480 -0.0390  0.5303  0.4083
 6154TIP3    H239954   2.135  -0.055   4.537 -1.5768 -0.6102  0.6516
 6155TIP3   OH239955   6.272   3.316   3.872  0.4324  0.4952  0.2813
 6155TIP3    H139956   6.212   3.383   3.840  0.1342 -0.6249 -1.6711
 6155TIP3    H239957   6.237   3.291   3.957 -0.1432  1.9165  0.5013
 6156TIP3   OH239958   6.533   5.007  16.244  0.3546 -0.6852 -0.0557
 6156TIP3    H139959   6.546   4.976  16.155  0.0755  0.1945 -0.4065
 6156TIP3    H239960   6.596   5.077  16.255 -0.0418 -0.3673  0.2243
 6157TIP3   OH239961   1.348   6.145   2.997  0.4091 -0.4215 -0.0189
 6157TIP3    H139962   1.317   6.065   2.954 -0.7787  0.5400 -1.0528
 6157TIP3    H239963   1.353   6.122   3.089 -1.5663 -1.2378 -0.0651
 6158TIP3   OH239964   0.736   0.444   1.475 -0.2017 -0.1667 -1.3044
 6158TIP3    H139965   0.711   0.356   1.503 -1.1149  0.6493  0.6375
 6158TIP3    H239966   0.815   0.464   1.525 -0.6244  0.5242 -0.8977
 6159TIP3   OH239967   3.652   6.534   0.663  0.0148  0.1408  0.1084
 6159TIP3    H139968   3.570   6.582   0.677  0.1938  0.7264 -0.7613
 6159TIP3    H239969   3.671   6.547   0.570  3.1238  3.3236  0.9528
 6160TIP3   OH239970   2.013   1.327   0.297 -0.9366 -0.0533  0.2253
 6160TIP3    H139971   2.068   1.264   0.250 -1.1742  0.2833 -0.5082
 6160TIP3    H239972   2.064   1.349   0.376  1.5592  2.6605 -1.8991
 6161TIP3   OH239973   5.934   5.507   5.912 -0.5636 -0.0921 -0.4696
 6161TIP3    H139974   5.841   5.488   5.918 -0.8683  1.6324  1.4546
 6161TIP3    H239975   5.948   5.578   5.975  1.8448  0.4808 -1.5388
 6162TIP3   OH239976   3.170   0.886  16.185 -0.0031 -0.1182  0.0198
 6162TIP3    H139977   3.164   0.972  16.144 -0.2315 -0.4775 -0.7297
 6162TIP3    H239978   3.084   0.847  16.171 -0.1159 -0.2311  0.9247
 6163TIP3   OH239979   3.669   1.025   1.444  0.3840 -0.0981 -0.2578
 6163TIP3    H139980   3.598   0.981   1.489 -0.0257 -1.0177 -1.7413
 6163TIP3    H239981   3.639   1.033   1.354  1.4806  1.0223 -0.5572
 6164TIP3   OH239982   3.256   1.957  17.253  0.3075 -0.3916 -0.6914
 6164TIP3    H139983   3.262   1.875  17.303 -0.9957 -0.2095 -0.2091
 6164TIP3    H239984   3.347   1.981  17.236  0.7292 -1.4815 -0.0818
 6165TIP3   OH239985   6.177   4.542   1.460  0.2668 -0.2697 -0.0929
 6165TIP3    H139986   6.262   4.539   1.416 -0.6020 -0.0698 -1.8809
 6165TIP3    H239987   6.169   4.456   1.501  1.7853  0.0978  1.0699
 6166TIP3   OH239988   2.784   6.396  11.910 -0.7128  1.3827  0.2310
 6166TIP3    H139989   2.866   6.356  11.940 -0.5547  0.3653 -1.4513
 6166TIP3    H239990   2.801   6.421  11.820 -2.6298 -0.0708 -0.6072
 6167TIP3   OH239991   2.384   0.075  10.567  0.5807  0.3298  0.2439
 6167TIP3    H139992   2.433   0.126  10.632  1.0538  0.5262 -0.2581
 6167TIP3    H239993   2.355   0.140  10.503  0.6638  0.0573 -0.0751
 6168TIP3   OH239994   1.587   1.658  14.514 -0.4211 -0.8067 -0.1708
 6168TIP3    H139995   1.589   1.583  14.454 -1.5468 -1.7253  0.8620
 6168TIP3    H239996   1.556   1.731  14.461  2.6783 -0.4801 -1.7334
 6169TIP3   OH239997   2.820   0.163  12.883 -0.1325 -0.3216  0.2370
 6169TIP3    H139998   2.814   0.256  12.902  1.0378 -0.3041  0.5951
 6169TIP3    H239999   2.787   0.120  12.961 -0.7101 -0.2127  0.0566
 6170TIP3   OH240000   1.880   4.799  15.347  0.1885 -0.0033  0.1644
 6170TIP3    H140001   1.866   4.788  15.253 -0.8700  0.1300  0.2877
 6170TIP3    H240002   1.973   4.817  15.356  0.1947  0.5995 -0.9260
 6171TIP3   OH240003   6.387   0.078   1.060 -0.3275 -0.4027  0.2802
 6171TIP3    H140004   6.400   0.021   1.136  0.8520 -0.2995  0.1783
 6171TIP3    H240005   6.455   0.145   1.069 -1.7897  1.1165  0.4932
 6172TIP3   OH240006   4.576   1.197   2.032  0.1391 -0.1642  0.1795
 6172TIP3    H140007   4.564   1.193   1.937 -1.2321 -0.5246  0.3466
 6172TIP3    H240008   4.491   1.225   2.066  0.8213  0.7120  1.2658
 6173TIP3   OH240009   0.707   6.818  11.941  0.0272  0.2113  0.2430
 6173TIP3    H140010   0.740   6.842  11.855 -0.6856 -1.3617 -0.5130
 6173TIP3    H240011   0.617   6.852  11.943  0.3634  1.1170  0.7869
 6174TIP3   OH240012   0.151   4.733  16.892 -0.3460  0.4246 -0.3343
 6174TIP3    H140013   0.115   4.651  16.860  1.4358 -0.8061  0.6610
 6174TIP3    H240014   0.145   4.726  16.988  1.4489  0.6231 -0.1682
 6175TIP3   OH240015   3.223   1.892  15.293  1.3878  0.1664 -0.2632
 6175TIP3    H140016   3.212   1.972  15.240  0.0356 -0.6373 -1.2657
 6175TIP3    H240017   3.291   1.843  15.247 -0.3465 -0.9046 -1.8345
 6176TIP3   OH240018   6.315   2.816  13.703 -0.1557  0.2284  0.0976
 6176TIP3    H140019   6.381   2.759  13.665  0.9616  1.6867 -0.2307
 6176TIP3    H240020   6.238   2.805  13.647  0.2502 -0.4469 -0.3377
 6177TIP3   OH240021   2.804   4.255   0.257 -0.2034  0.1252 -0.0760
 6177TIP3    H140022   2.820   4.323   0.191  4.3062  0.1880  0.7954
 6177TIP3    H240023   2.790   4.303   0.338 -0.9476 -0.0054 -0.1192
 6178TIP3   OH240024   3.442   3.009   0.200  0.0669 -0.1608  0.1937
 6178TIP3    H140025   3.463   2.946   0.131 -0.2547 -0.0504 -0.0102
 6178TIP3    H240026   3.346   3.013   0.200  0.1023  1.8511 -1.2013
 6179TIP3   OH240027   1.376   0.289   2.145  0.1250  0.3391  0.0666
 6179TIP3    H140028   1.392   0.368   2.094 -1.2355 -0.0789 -1.0638
 6179TIP3    H240029   1.280   0.280   2.147  0.2474 -1.2266  0.2498
 6180TIP3   OH240030   0.730   4.149   1.641  0.5594  1.1119  0.0644
 6180TIP3    H140031   0.814   4.189   1.617  0.7972 -0.2508 -1.6461
 6180TIP3    H240032   0.666   4.192   1.584  0.8589 -0.9344 -2.0106
 6181TIP3   OH240033   0.443   0.365  16.241 -0.0308  0.3184 -0.0514
 6181TIP3    H140034   0.490   0.369  16.158  1.3502 -1.7547  0.5459
 6181TIP3    H240035   0.459   0.451  16.281  0.9644  0.6368 -1.0648
 6182TIP3   OH240036   5.627   3.612  13.226  0.1837  0.0660 -0.0679
 6182TIP3    H140037   5.586   3.580  13.307 -0.7411  0.1762 -0.4769
 6182TIP3    H240038   5.678   3.689  13.253 -1.2848  0.9807  0.2066
 6183TIP3   OH240039   3.105   3.972  11.634  0.9113 -0.4932  0.4844
 6183TIP3    H140040   3.062   4.041  11.584  0.7970 -2.4986 -2.4808
 6183TIP3    H240041   3.129   4.013  11.717 -0.7994  2.5174 -0.3616
 6184TIP3   OH240042   0.539   4.011   0.886  0.1938 -0.2422 -0.0002
 6184TIP3    H140043   0.491   3.986   0.807 -0.3004  0.5602  0.0317
 6184TIP3    H240044   0.577   4.096   0.865  1.5055 -0.8001  0.0309
 6185TIP3   OH240045   0.963   3.962  12.547  0.4579 -0.0194  0.0248
 6185TIP3    H140046   1.001   3.946  12.461  2.3455  2.5946  0.2236
 6185TIP3    H240047   0.933   4.053  12.543 -0.1044 -0.0708  1.9014
 6186TIP3   OH240048   5.538   3.588  17.153 -0.3093  0.5398  0.1127
 6186TIP3    H140049   5.589   3.529  17.097 -1.4906 -1.3514  0.9384
 6186TIP3    H240050   5.588   3.592  17.235  0.7053  2.2082 -0.5387
 6187TIP3   OH240051   0.924   1.847  14.557  0.0683 -0.1181  0.2506
 6187TIP3    H140052   0.897   1.793  14.632 -2.6502 -0.6359 -0.9936
 6187TIP3    H240053   0.913   1.937  14.588 -0.7440 -0.3261  0.5937
 6188TIP3   OH240054   0.208   0.050  12.924  0.1660  0.1865  0.3827
 6188TIP3    H140055   0.249   0.008  12.999 -0.9283 -1.5101  0.0796
 6188TIP3    H240056   0.265   0.029  12.850  0.1548  0.1208  0.3935
 6189TIP3   OH240057   3.848   0.041   0.943  0.1641  0.3140  0.2058
 6189TIP3    H140058   3.911   0.068   1.010  0.1805  0.2142  0.2306
 6189TIP3    H240059   3.903   0.016   0.868  0.1040  1.7241 -0.3282
 6190TIP3   OH240060   6.151   1.694   4.309 -0.5657 -0.0014 -0.0122
 6190TIP3    H140061   6.208   1.744   4.250  0.2182  0.5809  1.1890
 6190TIP3    H240062   6.201   1.615   4.330 -0.0815  0.5998  1.1938
 6191TIP3   OH240063   5.064   6.076   5.089 -0.5438 -0.1939  0.4113
 6191TIP3    H140064   5.035   6.150   5.036 -0.8446 -0.1218  0.6703
 6191TIP3    H240065   5.158   6.068   5.072 -0.5304  0.1849  0.3120
 6192TIP3   OH240066   6.822   3.553   3.006 -0.0807  0.2656 -0.0006
 6192TIP3    H140067   6.733   3.534   3.034  0.3168  0.4695  1.4697
 6192TIP3    H240068   6.826   3.649   3.002  0.9349  0.4432  3.0910
 6193TIP3   OH240069   2.970   5.437   1.595 -0.2217  0.1256  0.1441
 6193TIP3    H140070   2.901   5.502   1.578 -1.8307 -1.6347 -0.4957
 6193TIP3    H240071   2.977   5.433   1.690 -3.4944 -1.9606  0.4566
 6194TIP3   OH240072   4.450   4.315   0.370  0.3138  0.1960  0.1571
 6194TIP3    H140073   4.441   4.409   0.391 -1.1830 -0.1466  1.2437
 6194TIP3    H240074   4.443   4.312   0.275 -1.5914  1.0434  0.2245
 6195TIP3   OH240075   3.051   0.288  15.932 -0.5030 -0.2025 -0.1436
 6195TIP3    H140076   3.048   0.193  15.919 -1.0899 -0.0322 -1.4375
 6195TIP3    H240077   3.006   0.302  16.016  1.2724 -1.1855  1.0373
 6196TIP3   OH240078   5.657   1.176  16.172 -0.0846 -0.4714 -0.2136
 6196TIP3    H140079   5.581   1.231  16.157  0.3816  0.3001  0.1883
 6196TIP3    H240080   5.699   1.212  16.250  0.5480 -1.0419 -0.2747
 6197TIP3   OH240081   0.417   2.290  12.648 -0.2617 -0.4951  0.0719
 6197TIP3    H140082   0.352   2.360  12.649  1.4823  1.2383  1.2367
 6197TIP3    H240083   0.410   2.250  12.735  0.9127  0.4583  0.6414
 6198TIP3   OH240084   3.555   0.157   0.518  0.2159 -0.3849  0.4172
 6198TIP3    H140085   3.574   0.154   0.612 -1.8746  0.7219  0.9226
 6198TIP3    H240086   3.509   0.075   0.501 -1.6687  0.4973  0.9631
 6199TIP3   OH240087   2.739   0.660   2.507  0.2087  0.3292 -0.6841
 6199TIP3    H140088   2.667   0.602   2.531  1.6245 -0.8282  0.9858
 6199TIP3    H240089   2.815   0.602   2.495  0.7366  1.4046 -3.3033
 6200TIP3   OH240090   4.882   3.180  16.622  0.8714  0.4045  0.1805
 6200TIP3    H140091   4.970   3.193  16.585  1.1710 -1.3554  0.1951
 6200TIP3    H240092   4.853   3.098  16.584  0.1567 -0.1823  1.9462
 6201TIP3   OH240093   1.141   4.118   1.105  0.3481 -0.1009 -0.0003
 6201TIP3    H140094   1.225   4.105   1.061 -0.0330  0.1776 -0.8247
 6201TIP3    H240095   1.144   4.058   1.179  0.5932 -1.3616 -0.9863
 6202TIP3   OH240096   1.109   1.052  15.228 -0.1671 -0.1292 -0.5346
 6202TIP3    H140097   1.165   1.089  15.296 -0.3526 -0.1718 -0.3579
 6202TIP3    H240098   1.148   0.967  15.209  0.5121  0.3306 -1.2470
 6203TIP3   OH240099   3.766   3.407   6.024  0.0337 -0.0245  0.2004
 6203TIP3    H140100   3.705   3.336   6.004 -0.0451  0.3614 -1.0036
 6203TIP3    H240101   3.791   3.442   5.938  2.3347 -0.4831  0.6288
 6204TIP3   OH240102   6.191   1.071  13.492 -0.4785  0.2524 -0.4525
 6204TIP3    H140103   6.196   1.036  13.581  1.8406  1.7832  0.1268
 6204TIP3    H240104   6.128   1.015  13.447 -0.9914 -1.1678  1.8723
 6205TIP3   OH240105   6.783   5.297   4.370 -0.4810 -0.1369 -0.1124
 6205TIP3    H140106   6.778   5.304   4.465  0.0823  1.2959 -0.1611
 6205TIP3    H240107   6.724   5.365   4.338  0.5921  0.5230 -0.7581
 6206TIP3   OH240108   3.725   4.274  15.470 -0.1922  0.2363  0.1616
 6206TIP3    H140109   3.773   4.350  15.437 -0.5084  1.1139  1.6182
 6206TIP3    H240110   3.670   4.247  15.396  1.6626 -0.1139 -1.1795
 6207TIP3   OH240111   4.558   4.682  16.232 -0.0195 -0.3324 -0.3854
 6207TIP3    H140112   4.577   4.763  16.185  0.4649 -0.1454  0.1325
 6207TIP3    H240113   4.473   4.654  16.197 -0.6825  0.9330  0.1650
 6208TIP3   OH240114   2.891   0.823   5.609 -0.2882 -0.6109 -0.5547
 6208TIP3    H140115   2.836   0.771   5.550 -0.1582 -1.4910  0.0791
 6208TIP3    H240116   2.979   0.817   5.571 -0.2490 -0.9705 -0.4109
 6209TIP3   OH240117   5.363   0.929  15.165 -0.2753 -0.5636  0.4897
 6209TIP3    H140118   5.458   0.920  15.164 -0.3025 -0.7650 -0.7056
 6209TIP3    H240119   5.342   0.977  15.085 -1.3685 -2.7329 -0.6148
 6210TIP3   OH240120   0.574   5.481   3.444 -0.0311  0.1211  0.0578
 6210TIP3    H140121   0.590   5.431   3.364 -1.1856  0.6880 -0.5393
 6210TIP3    H240122   0.641   5.450   3.505  1.2463  0.1166 -1.3065
 6211TIP3   OH240123   4.733   5.976   3.619  0.3191 -0.1007 -0.3656
 6211TIP3    H140124   4.736   5.975   3.715  1.0450  1.3318 -0.3510
 6211TIP3    H240125   4.804   5.918   3.592  0.1206 -0.5006 -0.0529
 6212TIP3   OH240126   4.000   2.483  16.562 -0.1685 -0.0334  0.3441
 6212TIP3    H140127   4.076   2.465  16.617 -0.5310 -0.7548  0.6201
 6212TIP3    H240128   4.037   2.507  16.477  0.3891  0.8202  0.8118
 6213TIP3   OH240129   2.505   3.465   3.358 -0.4933  0.0819 -0.2242
 6213TIP3    H140130   2.567   3.439   3.290 -1.1061 -3.5053  0.3832
 6213TIP3    H240131   2.559   3.474   3.437 -0.2186  1.2337 -0.5187
 6214TIP3   OH240132   1.520   3.573   2.529 -0.2671  0.1061  0.6079
 6214TIP3    H140133   1.452   3.639   2.544 -0.2176  0.3780 -0.3475
 6214TIP3    H240134   1.571   3.573   2.610 -0.2216  1.2885  0.5918
 6215TIP3   OH240135   2.417   4.286   5.538  0.1030 -0.0938  0.5897
 6215TIP3    H140136   2.367   4.345   5.482 -0.6123 -0.3634  0.9280
 6215TIP3    H240137   2.503   4.327   5.546 -0.1910  0.5803  0.3184
 6216TIP3   OH240138   1.348   2.088  11.726  0.2902 -0.3422  0.0040
 6216TIP3    H140139   1.296   2.009  11.736  0.3317 -0.2132  1.4804
 6216TIP3    H240140   1.437   2.061  11.751  0.7488 -0.3172 -1.5100
 6217TIP3   OH240141   4.631   3.257   1.763  0.0780  0.3801 -0.3903
 6217TIP3    H140142   4.686   3.313   1.708 -1.2074 -0.0057 -2.1958
 6217TIP3    H240143   4.635   3.171   1.720 -0.4174 -0.1222  0.5459
 6218TIP3   OH240144   3.244   1.141  16.105 -0.3608 -0.2219  0.3774
 6218TIP3    H140145   3.255   1.227  16.063  0.3093 -0.9196 -0.9432
 6218TIP3    H240146   3.333   1.110  16.119 -0.6003 -0.7424  0.7657
 6219TIP3   OH240147   1.514   3.775  11.090  0.2736  0.3876  0.5077
 6219TIP3    H140148   1.566   3.801  11.166  1.7484 -4.5013  1.5542
 6219TIP3    H240149   1.425   3.803  11.110  1.2120  2.3605  2.2668
 6220TIP3   OH240150   3.022   1.443   3.790 -0.2697 -0.5866  0.2811
 6220TIP3    H140151   2.957   1.392   3.838 -0.7860 -0.3287 -0.1399
 6220TIP3    H240152   3.030   1.398   3.706 -0.2938 -0.3149  0.1319
 6221TIP3   OH240153   5.195   1.690  13.046  0.1049 -0.2247  0.1427
 6221TIP3    H140154   5.246   1.620  13.087 -1.1242 -2.2577 -1.5914
 6221TIP3    H240155   5.105   1.673  13.073 -0.2097  0.7566 -0.2494
 6222TIP3   OH240156   5.272   2.561  16.528  0.2548 -0.0766  0.5949
 6222TIP3    H140157   5.258   2.475  16.568 -1.4273  0.0546  0.3957
 6222TIP3    H240158   5.184   2.598  16.521  0.5918  0.4345 -2.0741
 6223TIP3   OH240159   1.340   4.784  11.706 -0.8105 -0.2765 -0.2580
 6223TIP3    H140160   1.361   4.760  11.796 -0.7579  0.5106 -0.0567
 6223TIP3    H240161   1.259   4.835  11.713 -2.8677 -3.1452 -1.0022
 6224TIP3   OH240162   1.639   6.467   2.644  0.6668 -0.1974 -0.1590
 6224TIP3    H140163   1.564   6.524   2.629  1.3670  0.3883 -1.5655
 6224TIP3    H240164   1.644   6.460   2.740  0.0911  1.4628  0.0348
 6225TIP3   OH240165   5.325   6.813   1.155  0.8699 -0.5525 -0.2739
 6225TIP3    H140166   5.317   6.813   1.250  2.4967 -1.3901 -0.0958
 6225TIP3    H240167   5.308   6.722   1.130 -0.0650 -0.2339 -0.8584
 6226TIP3   OH240168   5.727   5.456   0.495  0.6320  0.1392  0.4513
 6226TIP3    H140169   5.680   5.499   0.423 -0.6591  0.2458  1.3285
 6226TIP3    H240170   5.663   5.453   0.567  1.1688 -1.9198  0.8984
 6227TIP3   OH240171   4.261   5.259   4.007  0.0054  0.0421  0.0048
 6227TIP3    H140172   4.262   5.164   3.996 -0.4354 -0.0991  1.0348
 6227TIP3    H240173   4.220   5.292   3.928 -4.2243 -0.9920  1.5045
 6228TIP3   OH240174   1.163   4.858   1.187 -0.1431 -0.5146  0.0863
 6228TIP3    H140175   1.076   4.828   1.211 -1.2722  0.8045 -2.0699
 6228TIP3    H240176   1.161   4.953   1.196  0.8806 -0.4100 -0.5099
 6229TIP3   OH240177   0.796   3.820  15.344 -0.6958 -0.2730 -0.0844
 6229TIP3    H140178   0.727   3.820  15.411 -0.0960 -0.6598  0.5452
 6229TIP3    H240179   0.791   3.907  15.305  0.2554  0.7074  1.8436
 6230TIP3   OH240180   2.523   3.710   4.189  0.2390 -0.0481  0.1853
 6230TIP3    H140181   2.585   3.644   4.158 -0.2166 -0.8197  0.9039
 6230TIP3    H240182   2.561   3.743   4.270  0.8231  1.1087 -0.5287
 6231TIP3   OH240183   1.356   6.822   3.289  0.0298  0.1129 -0.1590
 6231TIP3    H140184   1.444   6.806   3.257  0.8391  0.9218  1.5620
 6231TIP3    H240185   1.363   6.814   3.384 -1.9954 -0.8910 -0.0342
 6232TIP3   OH240186   1.736   6.640  11.949 -1.0389 -0.0255  0.1921
 6232TIP3    H140187   1.774   6.587  11.879 -2.2415  2.4992 -2.5985
 6232TIP3    H240188   1.718   6.577  12.019  0.9038 -2.6161 -1.4289
 6233TIP3   OH240189   4.798   0.284   3.489  0.2202 -0.0903  0.1599
 6233TIP3    H140190   4.730   0.219   3.474  0.4828 -0.3688  0.1611
 6233TIP3    H240191   4.854   0.279   3.411  0.3208  0.0366  0.2228
 6234TIP3   OH240192   4.473   0.972  14.713 -0.2464 -1.3479  0.2869
 6234TIP3    H140193   4.428   0.921  14.646 -0.4516  1.3695 -1.8477
 6234TIP3    H240194   4.508   1.048  14.666 -0.2882  0.6873  3.2422
 6235TIP3   OH240195   3.927   6.380  15.959  0.2160  0.0412 -0.2776
 6235TIP3    H140196   3.849   6.327  15.977  0.1759 -0.2801 -1.3401
 6235TIP3    H240197   3.956   6.352  15.872  1.4015  0.3086  0.0128
 6236TIP3   OH240198   1.548   3.535  14.632  0.1662 -0.2820  0.6340
 6236TIP3    H140199   1.471   3.544  14.689 -0.1948  1.5301 -0.0678
 6236TIP3    H240200   1.584   3.624  14.626 -0.3076 -0.1694 -2.6035
 6237TIP3   OH240201   3.724   0.536  12.475  0.0650  0.0495  0.4217
 6237TIP3    H140202   3.760   0.500  12.557  0.2265 -1.1977 -0.1752
 6237TIP3    H240203   3.697   0.459  12.425  1.1976  0.7038 -1.2818
 6238TIP3   OH240204   2.599   0.075  14.877  0.6040 -0.4676  0.2108
 6238TIP3    H140205   2.688   0.065  14.910  0.4502 -0.8984  0.5096
 6238TIP3    H240206   2.603   0.042  14.787  0.7828 -0.3256  0.1661
 6239TIP3   OH240207   2.279   2.675  15.592 -0.0706  0.1992  0.7723
 6239TIP3    H140208   2.275   2.734  15.517  0.2700 -2.2563 -1.2842
 6239TIP3    H240209   2.188   2.646  15.604  0.2931 -1.9367 -0.9409
 6240TIP3   OH240210   3.574   5.859   3.837  0.1395 -0.1592 -0.2694
 6240TIP3    H140211   3.600   5.868   3.745 -0.8999 -1.5991 -0.7447
 6240TIP3    H240212   3.650   5.819   3.880  0.7010  0.6976 -0.4463
 6241TIP3   OH240213   1.225   2.135   4.981  0.1833 -0.4249 -0.0236
 6241TIP3    H140214   1.266   2.180   5.055 -1.7589 -2.2919  2.4001
 6241TIP3    H240215   1.250   2.043   4.993 -3.0128 -1.3418  0.5150
 6242TIP3   OH240216   4.701   0.534  13.251  0.0107 -0.7212  0.2518
 6242TIP3    H140217   4.695   0.614  13.302  1.1754  0.8613 -1.9142
 6242TIP3    H240218   4.791   0.533  13.218 -0.0481 -2.8094  0.0283
 6243TIP3   OH240219   2.565   4.566  16.264  0.4273 -0.3083  0.2656
 6243TIP3    H140220   2.660   4.579  16.256  0.1701  0.5579 -3.0411
 6243TIP3    H240221   2.529   4.655  16.257 -0.6541 -0.7608  0.0205
 6244TIP3   OH240222   6.318   2.764  11.656  0.5664 -0.0223  0.0680
 6244TIP3    H140223   6.385   2.731  11.716  0.4935 -0.6189 -0.1714
 6244TIP3    H240224   6.251   2.801  11.713  1.2299  0.8343  0.2990
 6245TIP3   OH240225   2.658   6.181  16.586  0.0002  0.0277 -0.1188
 6245TIP3    H140226   2.694   6.197  16.499  0.9735  3.1581  0.6899
 6245TIP3    H240227   2.730   6.205  16.646 -1.1292 -0.5278  1.5281
 6246TIP3   OH240228   3.025   0.434  15.134  0.8301 -0.5598  0.5863
 6246TIP3    H140229   3.082   0.510  15.151 -0.4985  0.3793  1.0154
 6246TIP3    H240230   2.994   0.408  15.221 -1.7894  0.9032  0.1754
 6247TIP3   OH240231   4.788   5.541   5.626 -0.1817 -0.4135 -0.5045
 6247TIP3    H140232   4.825   5.616   5.672 -1.2926 -1.5194  2.3798
 6247TIP3    H240233   4.862   5.482   5.613  0.6692  0.9614 -2.6498
 6248TIP3   OH240234   3.560   2.441   2.641  0.2320 -0.3051  0.2342
 6248TIP3    H140235   3.573   2.532   2.613  1.4790  0.2825  2.4995
 6248TIP3    H240236   3.647   2.402   2.636 -0.3586 -1.5648 -1.1277
 6249TIP3   OH240237   1.876   3.243  11.334 -0.3972  1.0103 -0.3284
 6249TIP3    H140238   1.880   3.163  11.385 -1.2193 -0.0760 -1.8801
 6249TIP3    H240239   1.963   3.251  11.295 -0.0636  1.3332  0.4670
 6250TIP3   OH240240   1.866   3.494   5.615 -0.2777  0.5577 -0.1058
 6250TIP3    H140241   1.846   3.550   5.539  0.4005  0.4133 -0.3994
 6250TIP3    H240242   1.893   3.411   5.576  1.9764  1.0817  0.2074
 6251TIP3   OH240243   2.786   1.886   5.179  0.2827  0.1840  1.0665
 6251TIP3    H140244   2.851   1.952   5.153  1.1010 -0.7910  0.5284
 6251TIP3    H240245   2.839   1.809   5.201 -0.7112 -1.0516 -0.5833
 6252TIP3   OH240246   3.205   4.729   2.908  0.2855  0.0071 -0.3994
 6252TIP3    H140247   3.112   4.736   2.885 -0.0201 -0.4839  0.6177
 6252TIP3    H240248   3.210   4.767   2.996  0.8889 -0.7562 -0.0909
 6253TIP3   OH240249   4.046   5.291  14.663 -0.4802 -0.8145 -0.1107
 6253TIP3    H140250   4.042   5.279  14.758  0.1002 -0.4525 -0.0320
 6253TIP3    H240251   4.132   5.331  14.648  0.4946 -3.0902 -1.0239
 6254TIP3   OH240252   3.627   1.181  16.046  0.4929  0.1989  0.2964
 6254TIP3    H140253   3.715   1.217  16.054  1.5316 -2.1043  0.2201
 6254TIP3    H240254   3.640   1.086  16.045 -1.8171 -0.2167 -1.6910
 6255TIP3   OH240255   1.875   1.223   2.725  0.2266  0.8687  0.0023
 6255TIP3    H140256   1.833   1.142   2.754  2.0249  0.5651  2.0078
 6255TIP3    H240257   1.890   1.210   2.631 -2.0268  0.0987 -0.3143
 6256TIP3   OH240258   3.533   1.936  14.232 -0.0831 -0.3362  0.2722
 6256TIP3    H140259   3.590   2.008  14.262 -0.6287 -0.5579  1.9599
 6256TIP3    H240260   3.444   1.969  14.245 -0.3525 -1.4976  1.6497
 6257TIP3   OH240261   5.748   3.726  10.245 -0.1052 -0.2096 -0.6437
 6257TIP3    H140262   5.704   3.642  10.228 -0.5097 -0.3399  0.9348
 6257TIP3    H240263   5.835   3.701  10.276 -0.6674 -0.1147  1.0919
 6258TIP3   OH240264   2.674   0.611   4.841 -0.1832  0.1363 -0.3308
 6258TIP3    H140265   2.679   0.625   4.936  1.6408 -0.4807 -0.3043
 6258TIP3    H240266   2.604   0.547   4.830  0.7710 -1.1509  0.7817
 6259TIP3   OH240267   5.124   3.952   1.386 -0.0559 -0.1584 -0.1117
 6259TIP3    H140268   5.067   3.945   1.463 -1.0068  0.1339 -0.7796
 6259TIP3    H240269   5.170   3.868   1.382  0.6799  0.1456  1.2901
 6260TIP3   OH240270   4.515   4.980  14.681 -0.8157  0.6083  0.4042
 6260TIP3    H140271   4.448   4.919  14.651 -0.8448  0.5442  0.5988
 6260TIP3    H240272   4.486   5.065  14.649  0.9293  0.1148 -2.8505
 6261TIP3   OH240273   6.365   4.196   5.540 -0.1193 -0.4558 -0.3969
 6261TIP3    H140274   6.377   4.253   5.617 -2.1185  1.3247 -1.3249
 6261TIP3    H240275   6.409   4.243   5.469  2.1076 -2.3052 -0.3572
 6262TIP3   OH240276   5.699   2.267   0.404  0.7004 -0.2774 -0.4209
 6262TIP3    H140277   5.769   2.280   0.340  1.5634  0.0077  0.5519
 6262TIP3    H240278   5.670   2.177   0.389  0.7805 -0.1677 -1.3112
 6263TIP3   OH240279   5.260   0.142   0.089 -0.4394 -0.2071  0.4499
 6263TIP3    H140280   5.293   0.128  -0.000 -1.3237 -0.2551  0.1211
 6263TIP3    H240281   5.189   0.205   0.079  0.0220  0.4554  1.2439
 6264TIP3   OH240282   4.318   0.783  14.855  0.2828  0.5862 -0.2943
 6264TIP3    H140283   4.337   0.871  14.887 -1.5443  1.2673 -0.9636
 6264TIP3    H240284   4.300   0.795  14.761 -1.8266 -0.1445 -0.0395
 6265TIP3   OH240285   0.816   2.089  12.267 -0.3250  0.3801 -0.5640
 6265TIP3    H140286   0.813   2.091  12.363 -1.5861 -3.2059 -0.3800
 6265TIP3    H240287   0.906   2.114  12.246  0.2206  0.4651  1.5951
 6266TIP3   OH240288   4.501   6.516  14.341  0.5575 -0.0683  0.4769
 6266TIP3    H140289   4.460   6.468  14.413 -2.5381  2.0330  0.3310
 6266TIP3    H240290   4.491   6.609  14.365 -1.2604  0.7525 -2.8698
 6267TIP3   OH240291   4.409   5.441  16.493  0.1986  0.0654 -0.0442
 6267TIP3    H140292   4.317   5.418  16.501  0.4408 -0.9985 -0.1342
 6267TIP3    H240293   4.443   5.437  16.582  0.0669  0.8942  0.0499
 6268TIP3   OH240294   4.527   3.278  15.430  0.5826  0.0599 -0.1913
 6268TIP3    H140295   4.597   3.303  15.490  0.0715 -0.5547  0.6833
 6268TIP3    H240296   4.446   3.298  15.478  0.0904  2.1115 -1.7182
 6269TIP3   OH240297   5.587   3.458   1.282  0.4620  0.1109 -0.0443
 6269TIP3    H140298   5.512   3.406   1.252 -1.9863  2.7285  1.0187
 6269TIP3    H240299   5.573   3.544   1.241  1.9696  1.1478  1.5108
 6270TIP3   OH240300   6.279   2.589   0.022 -0.3031  0.0823  0.1519
 6270TIP3    H140301   6.315   2.677   0.033  1.0303 -0.4568  0.2553
 6270TIP3    H240302   6.340   2.532   0.069 -1.3927 -0.8604  0.4774
 6271TIP3   OH240303   6.569   6.429  14.669  0.1196 -0.4341 -0.1435
 6271TIP3    H140304   6.598   6.350  14.716  1.0894 -1.0090 -1.6125
 6271TIP3    H240305   6.649   6.462  14.627 -0.7076 -0.0465 -1.4838
 6272TIP3   OH240306   4.156   1.938   3.244 -0.1933 -0.0142 -0.0567
 6272TIP3    H140307   4.081   1.880   3.253  1.1717 -2.0083 -0.7509
 6272TIP3    H240308   4.205   1.927   3.326 -0.2639  0.6791  0.0828
 6273TIP3   OH240309   1.369   1.278  15.298 -0.2170  0.0834 -0.1447
 6273TIP3    H140310   1.299   1.262  15.361 -1.0831  1.0201 -0.8292
 6273TIP3    H240311   1.416   1.353  15.332 -0.4746  0.3793 -0.4351
 6274TIP3   OH240312   0.373   3.050   3.824  0.1034 -0.6056 -0.2351
 6274TIP3    H140313   0.281   3.046   3.799 -0.0183 -0.4298  0.1804
 6274TIP3    H240314   0.420   3.022   3.746 -0.2008  1.2204 -1.1384
 6275TIP3   OH240315   4.348   4.991   6.323  0.0156 -0.5703 -0.0423
 6275TIP3    H140316   4.325   5.076   6.288 -1.5188  0.1509  2.4233
 6275TIP3    H240317   4.289   4.929   6.279 -0.6504  0.0324 -0.0074
 6276TIP3   OH240318   2.964   2.139  14.178 -0.4447  0.2107  0.3698
 6276TIP3    H140319   2.980   2.064  14.121  0.7808  1.0701 -0.4495
 6276TIP3    H240320   3.030   2.203  14.153  0.4508  0.4647  3.0564
 6277TIP3   OH240321   5.754   2.335   0.948  0.1026 -0.7411 -0.6142
 6277TIP3    H140322   5.823   2.394   0.978 -1.7032  1.0052  0.4515
 6277TIP3    H240323   5.789   2.247   0.961  1.5112  0.0504  1.5064
 6278TIP3   OH240324   6.750   2.406  13.831  0.0159  0.0506 -0.3595
 6278TIP3    H140325   6.806   2.484  13.829 -1.3363  1.0607 -0.6714
 6278TIP3    H240326   6.725   2.396  13.923  0.7469 -0.4426 -0.2096
 6279TIP3   OH240327   0.103   4.058   4.467  0.0552 -0.0367 -0.3821
 6279TIP3    H140328   0.076   4.050   4.558 -0.7969 -0.4725 -0.6587
 6279TIP3    H240329   0.199   4.059   4.470  0.0858 -1.7243  0.3893
 6280TIP3   OH240330   0.602   5.443  15.924 -0.3321  0.1143 -0.6240
 6280TIP3    H140331   0.682   5.480  15.960 -0.1986  0.3848 -1.1902
 6280TIP3    H240332   0.629   5.359  15.886 -0.9976 -1.6761  2.5136
 6281TIP3   OH240333   3.876   2.164   0.380 -0.4713  0.1084  0.0171
 6281TIP3    H140334   3.909   2.209   0.302 -0.0405  0.3853  0.3490
 6281TIP3    H240335   3.861   2.234   0.444  0.4103 -0.2219  0.6104
 6282TIP3   OH240336   4.522   2.623  15.375  0.2647  0.0592  0.1873
 6282TIP3    H140337   4.482   2.657  15.295  0.4289  0.7174  0.3804
 6282TIP3    H240338   4.498   2.687  15.443 -1.9818 -1.7240  1.2268
 6283TIP3   OH240339   0.266   6.523  10.337 -0.7756  0.0152  0.0914
 6283TIP3    H140340   0.359   6.504  10.324 -0.4966  0.4279  1.3691
 6283TIP3    H240341   0.255   6.611  10.301 -0.4918  0.2787  0.6357
 6284TIP3   OH240342   5.843   4.564  15.114  0.0474 -0.1256 -0.2363
 6284TIP3    H140343   5.871   4.603  15.196 -0.0768 -0.3658 -0.0785
 6284TIP3    H240344   5.748   4.554  15.123  0.1453 -1.0015 -0.0325
 6285TIP3   OH240345   4.878   5.493  14.395 -0.3115 -0.1818 -0.0373
 6285TIP3    H140346   4.949   5.556  14.410 -0.8430  0.6935 -1.1292
 6285TIP3    H240347   4.823   5.534  14.329 -0.3745 -2.0252 -1.1979
 6286TIP3   OH240348   6.055   2.519  11.654  0.2164 -0.1294  0.2569
 6286TIP3    H140349   6.064   2.602  11.701  0.1834  0.0936 -0.1343
 6286TIP3    H240350   6.025   2.543  11.567  3.6740 -0.2140 -1.1323
 6287TIP3   OH240351   6.168   4.893  14.668  0.4019  0.0095 -0.0477
 6287TIP3    H140352   6.250   4.882  14.717 -0.2673  0.1875  1.1620
 6287TIP3    H240353   6.106   4.836  14.714 -0.3246  0.4170 -0.5165
 6288TIP3   OH240354   2.270   1.715  14.750 -0.0102  0.0631  0.4441
 6288TIP3    H140355   2.189   1.747  14.712  0.3182  1.1562  0.6452
 6288TIP3    H240356   2.288   1.775  14.823  1.7104  0.7096 -0.4645
 6289TIP3   OH240357   5.169   3.735   2.753  0.2822  0.6080 -0.3030
 6289TIP3    H140358   5.227   3.690   2.692  1.2229  0.1523  0.9006
 6289TIP3    H240359   5.175   3.827   2.728  1.9285  0.6397  0.0910
 6290TIP3   OH240360   3.884   1.298  16.072  0.0440  0.1556  0.3855
 6290TIP3    H140361   3.975   1.291  16.043 -0.3409 -0.6561 -0.6851
 6290TIP3    H240362   3.862   1.390  16.061 -0.2093 -0.1611 -2.3893
 6291TIP3   OH240363   0.029   6.219  10.459 -0.1228 -0.5140 -0.1030
 6291TIP3    H140364  -0.060   6.195  10.484  0.2091 -1.4768  0.2231
 6291TIP3    H240365   0.074   6.135  10.447 -0.0736 -0.1523 -3.3967
 6292TIP3   OH240366   6.092   6.737   4.352 -0.8508 -0.0951  0.8435
 6292TIP3    H140367   6.003   6.705   4.364 -1.9149  2.0840 -0.5864
 6292TIP3    H240368   6.122   6.694   4.272 -0.8653 -0.3162  0.9552
 6293TIP3   OH240369   2.535   2.039   3.088  0.7382  0.0422 -0.6938
 6293TIP3    H140370   2.540   2.087   3.005 -1.6749  1.5510 -0.0626
 6293TIP3    H240371   2.625   2.010   3.105  1.5982  1.1774 -2.9476
 6294TIP3   OH240372   2.259   5.496   3.744 -0.0634  0.3721  0.0971
 6294TIP3    H140373   2.320   5.472   3.814  1.5141  2.1198 -0.6032
 6294TIP3    H240374   2.204   5.419   3.733  1.2037 -0.8183  1.6218
 6295TIP3   OH240375   3.658   1.178   3.502 -0.7473  0.5852 -0.5648
 6295TIP3    H140376   3.750   1.169   3.527 -0.6633 -0.8254 -1.2548
 6295TIP3    H240377   3.611   1.184   3.585 -0.1378  0.0998 -0.1763
 6296TIP3   OH240378   5.545   0.490   4.025 -0.3584 -0.5918 -0.2596
 6296TIP3    H140379   5.578   0.428   3.960  2.0861 -0.0282  0.3639
 6296TIP3    H240380   5.600   0.567   4.016 -0.8183  0.0152  1.5982
 6297TIP3   OH240381   6.614   5.028   0.949 -0.1855 -0.7712  0.5620
 6297TIP3    H140382   6.552   5.058   0.883 -0.7513 -1.4462  0.7743
 6297TIP3    H240383   6.573   4.950   0.987  0.6603 -1.0550  0.9112
 6298TIP3   OH240384   6.699   4.659  13.062 -0.1960  0.0173 -0.1427
 6298TIP3    H140385   6.604   4.670  13.056 -0.5493 -0.1598  3.3405
 6298TIP3    H240386   6.732   4.747  13.080 -0.3037 -0.4962  3.1149
 6299TIP3   OH240387   4.282   4.830   5.633 -0.3936  0.3311 -0.2084
 6299TIP3    H140388   4.249   4.772   5.565  0.6504 -0.6688  0.0885
 6299TIP3    H240389   4.371   4.852   5.605 -0.5496  1.2819  0.0058
 6300TIP3   OH240390   5.524   5.430   4.197  0.5196  0.0117  0.6963
 6300TIP3    H140391   5.450   5.429   4.259  0.0906  0.8919  0.2184
 6300TIP3    H240392   5.496   5.490   4.128  1.6753  0.3152  0.4815
 6301TIP3   OH240393   6.129   5.722   4.018  0.8653  0.2391 -0.4316
 6301TIP3    H140394   6.224   5.718   4.009  1.2327  0.3591  2.5139
 6301TIP3    H240395   6.109   5.815   4.027  0.5366  0.1809 -0.5401
 6302TIP3   OH240396   1.130   6.728  14.449 -0.1245  0.3663  0.5223
 6302TIP3    H140397   1.113   6.733  14.355  1.1446 -1.2696  0.1446
 6302TIP3    H240398   1.063   6.668  14.482 -0.7106  1.1189  0.7110
 6303TIP3   OH240399   6.430   5.489  14.107 -0.5079  0.1351  0.2655
 6303TIP3    H140400   6.479   5.415  14.143  0.6593  1.2441  1.0231
 6303TIP3    H240401   6.345   5.452  14.084 -0.7055 -1.0138  2.5506
 6304TIP3   OH240402   2.881   0.684  13.052  0.0914  0.6112 -0.4943
 6304TIP3    H140403   2.903   0.777  13.058 -2.1670  1.1226  1.9362
 6304TIP3    H240404   2.882   0.653  13.142  1.9778 -2.1398 -1.3240
 6305TIP3   OH240405   6.599   0.273  16.020 -0.4945  0.2701  0.0095
 6305TIP3    H140406   6.686   0.243  16.047 -1.5253 -0.6227  2.6822
 6305TIP3    H240407   6.606   0.287  15.926  2.5806  0.4104  0.1587
 6306TIP3   OH240408   5.600   4.994  10.691 -0.2285  0.6487  0.0750
 6306TIP3    H140409   5.527   5.049  10.663  1.6175  1.7235 -3.2127
 6306TIP3    H240410   5.602   4.922  10.628 -0.0759 -0.9524  1.8178
 6307TIP3   OH240411   6.424   2.780  12.870  0.4277 -0.1943  0.5900
 6307TIP3    H140412   6.416   2.840  12.944  0.4269 -0.2784  0.6586
 6307TIP3    H240413   6.404   2.694  12.907  2.1313 -0.4938  0.8839
 6308TIP3   OH240414   2.497   4.415   2.550 -0.4438  0.3699  0.2279
 6308TIP3    H140415   2.430   4.351   2.526  0.2142 -0.4520  0.5305
 6308TIP3    H240416   2.450   4.480   2.602 -1.2209  0.4027 -0.4988
 6309TIP3   OH240417   1.236   6.243  16.652 -0.4202  0.4846 -0.6016
 6309TIP3    H140418   1.233   6.229  16.558 -1.7175  0.9469 -0.6454
 6309TIP3    H240419   1.178   6.177  16.689 -1.0934  1.2464 -0.2603
 6310TIP3   OH240420   1.218   0.476  11.599  0.0168 -0.1365 -0.0314
 6310TIP3    H140421   1.287   0.459  11.663 -0.1816  0.1880  0.2732
 6310TIP3    H240422   1.250   0.435  11.518  0.0985 -0.8736  0.3636
 6311TIP3   OH240423   1.784   0.898  16.018 -0.0161  0.3674 -0.1048
 6311TIP3    H140424   1.729   0.822  16.038 -0.6889  0.0782 -2.7012
 6311TIP3    H240425   1.814   0.929  16.104 -2.4688 -0.7623  1.2590
 6312TIP3   OH240426   3.737   5.949   3.474  0.3386  0.2876  0.2113
 6312TIP3    H140427   3.682   6.005   3.529  0.4643  2.0331 -1.3229
 6312TIP3    H240428   3.710   5.860   3.495 -1.6038  1.0114  1.0223
 6313TIP3   OH240429   3.508   0.929  13.771  0.2626  0.2090  0.2252
 6313TIP3    H140430   3.520   0.845  13.727  1.3008  1.0505 -1.2044
 6313TIP3    H240431   3.512   0.908  13.864 -0.9419 -1.4955 -0.0602
 6314TIP3   OH240432   2.553   2.319  15.927 -0.1290  0.2731  0.4618
 6314TIP3    H140433   2.630   2.264  15.934  1.0590  1.7081 -0.5030
 6314TIP3    H240434   2.560   2.358  15.839 -2.1050  0.2354  0.2392
 6315TIP3   OH240435   0.685   6.003   3.722 -0.0271  0.1505  0.1735
 6315TIP3    H140436   0.597   5.997   3.685  0.4205 -1.6919 -0.7249
 6315TIP3    H240437   0.675   6.058   3.800 -1.4906  1.9914 -1.2393
 6316TIP3   OH240438   0.415   3.982   0.063 -0.6696  0.1440 -0.1839
 6316TIP3    H140439   0.467   3.916   0.109  1.0329  2.0168  0.7183
 6316TIP3    H240440   0.402   3.945  -0.024  0.1173 -1.4269  0.3264
 6317TIP3   OH240441   3.182   3.304  12.017 -0.6311 -0.7782 -0.2242
 6317TIP3    H140442   3.144   3.223  11.985 -0.2161 -0.3648 -1.8639
 6317TIP3    H240443   3.112   3.345  12.068 -1.1386 -1.7422 -0.1283
 6318TIP3   OH240444   5.494   4.962   1.683  0.1633 -0.5860  0.5172
 6318TIP3    H140445   5.465   5.019   1.612  0.1109  1.6884  2.2754
 6318TIP3    H240446   5.540   5.020   1.744 -3.7946 -1.2843  4.7304
 6319TIP3   OH240447   5.382   1.176  16.182  0.4259 -0.1318 -0.6674
 6319TIP3    H140448   5.457   1.123  16.210 -0.3648 -0.2942  1.2969
 6319TIP3    H240449   5.320   1.113  16.146 -0.0476 -0.4294  0.6274
 6320TIP3   OH240450   2.987   2.761  14.568 -0.2284 -0.2713 -0.1609
 6320TIP3    H140451   2.917   2.809  14.525 -0.0346  0.0061 -0.1672
 6320TIP3    H240452   2.989   2.797  14.657  0.4621  0.3143 -0.4066
 6321TIP3   OH240453   3.752   4.396   0.621 -0.4251  0.2295  0.4775
 6321TIP3    H140454   3.668   4.440   0.610 -0.1716  1.3603  2.6918
 6321TIP3    H240455   3.738   4.333   0.691  0.5758  0.4571  0.8999
 6322TIP3   OH240456   2.727   3.536   4.059 -0.2151  0.2302  0.3375
 6322TIP3    H140457   2.743   3.475   3.987 -1.6110 -2.0271  1.8167
 6322TIP3    H240458   2.799   3.518   4.121 -0.4810  0.2722  0.6586
 6323TIP3   OH240459   1.222   2.385  11.486  0.1239 -0.3762  0.4283
 6323TIP3    H140460   1.158   2.362  11.418 -0.1790  0.0703  0.5585
 6323TIP3    H240461   1.305   2.350  11.453  0.1443  0.5677 -0.5907
 6324TIP3   OH240462   3.066   6.143  13.811  0.3385  0.2675  0.5265
 6324TIP3    H140463   3.145   6.182  13.847 -0.1281  1.1305  0.6372
 6324TIP3    H240464   3.069   6.052  13.839  1.2552  0.3085  0.5813
 6325TIP3   OH240465   1.889   6.109   2.196 -0.4767 -0.9638  0.0145
 6325TIP3    H140466   1.815   6.095   2.138  0.2260 -1.5028 -0.7747
 6325TIP3    H240467   1.898   6.204   2.202 -1.3117 -0.8985  0.2277
 6326TIP3   OH240468   0.341   6.088  15.830 -0.1689 -0.1933  0.0310
 6326TIP3    H140469   0.267   6.139  15.866 -0.1366 -0.3734  0.3609
 6326TIP3    H240470   0.323   5.998  15.858 -0.2458 -0.3690 -0.5863
 6327TIP3   OH240471   3.110   0.845   4.253 -0.1751  0.0389 -0.1448
 6327TIP3    H140472   3.038   0.873   4.310 -0.9948 -1.6672 -0.2740
 6327TIP3    H240473   3.067   0.802   4.179  0.9611 -0.3540 -0.6020
 6328TIP3   OH240474   5.406   5.293  16.885 -0.0813 -0.0054  0.0051
 6328TIP3    H140475   5.496   5.277  16.856  0.3317  0.9636  0.6824
 6328TIP3    H240476   5.390   5.385  16.864 -1.3060 -0.4209 -1.0623
 6329TIP3   OH240477   5.019   4.910   5.088  0.5058  0.6182 -0.5673
 6329TIP3    H140478   5.102   4.958   5.089  0.9227  0.0048  2.0626
 6329TIP3    H240479   5.036   4.833   5.143 -1.5974  0.0968 -0.5650
 6330TIP3   OH240480   6.383   3.420   1.053  0.3172  0.5078 -0.0356
 6330TIP3    H140481   6.404   3.350   0.991 -2.9548 -0.6217 -0.0300
 6330TIP3    H240482   6.444   3.406   1.126 -1.0059 -3.3129  0.5998
 6331TIP3   OH240483   6.257   2.555   4.128  0.1657  0.1674  0.1454
 6331TIP3    H140484   6.166   2.583   4.119  0.6840  1.8990 -0.0384
 6331TIP3    H240485   6.257   2.498   4.205 -1.4455 -1.7475 -1.1673
 6332TIP3   OH240486   0.738   6.087  12.875  0.0352 -0.0987  0.1002
 6332TIP3    H140487   0.828   6.053  12.874  0.2631  0.4648 -1.0037
 6332TIP3    H240488   0.726   6.124  12.787 -0.9445  0.6973  0.5472
 6333TIP3   OH240489   0.485   6.526  15.573  0.0444 -0.5049 -0.0802
 6333TIP3    H140490   0.555   6.495  15.516 -0.9762 -0.9147 -1.1287
 6333TIP3    H240491   0.513   6.500  15.661  1.1162 -0.8269 -0.5004
 6334TIP3   OH240492   2.218   6.311  13.981  0.0456  0.1215  0.0740
 6334TIP3    H140493   2.254   6.290  13.894 -0.5131 -1.2131  0.1389
 6334TIP3    H240494   2.252   6.242  14.038 -0.7092  0.1951  0.6291
 6335TIP3   OH240495   2.917   6.471   2.940 -0.1865 -0.0536  0.0881
 6335TIP3    H140496   2.909   6.566   2.929  2.2344  0.0714 -0.9958
 6335TIP3    H240497   2.831   6.437   2.913 -1.3975  1.8257  1.2874
 6336TIP3   OH240498   2.165   0.537   3.665 -0.5343  0.1607 -0.2656
 6336TIP3    H140499   2.184   0.526   3.571 -0.5040 -0.0698 -0.2336
 6336TIP3    H240500   2.078   0.499   3.676 -0.1851 -0.6007 -0.0439
 6337TIP3   OH240501   5.540   4.910   2.857 -0.0744 -0.8917 -0.4857
 6337TIP3    H140502   5.458   4.936   2.814  0.1728  1.6745  0.4277
 6337TIP3    H240503   5.512   4.882   2.945 -0.1221 -1.6396 -0.7350
 6338TIP3   OH240504   2.658   1.769   2.840  0.4225  0.6273  0.2123
 6338TIP3    H140505   2.614   1.690   2.871  0.1967  0.6468 -0.0512
 6338TIP3    H240506   2.748   1.760   2.870  0.3222  0.4199  0.4578
 6339TIP3   OH240507   4.635   6.175   2.664  0.1272  0.2189 -0.1238
 6339TIP3    H140508   4.690   6.179   2.743 -0.4762 -0.8345  0.3638
 6339TIP3    H240509   4.583   6.255   2.667  0.9809  0.7881 -0.1140
 6340TIP3   OH240510   6.797   0.507   0.649 -0.3245  0.0518 -0.1598
 6340TIP3    H140511   6.740   0.555   0.709 -2.5635 -1.0638 -1.2735
 6340TIP3    H240512   6.885   0.531   0.676 -1.2014 -0.0768  3.3211
 6341TIP3   OH240513   5.533   6.597   1.779  0.7473  0.6032  0.0830
 6341TIP3    H140514   5.558   6.529   1.716 -3.2264 -1.9337  0.8920
 6341TIP3    H240515   5.612   6.611   1.831  2.4089 -1.6673 -1.6117
 6342TIP3   OH240516   1.430   3.415  15.859 -0.1217 -0.5421  0.2356
 6342TIP3    H140517   1.427   3.371  15.773  0.5331 -0.2253  0.0492
 6342TIP3    H240518   1.425   3.508  15.838  2.2232 -0.3334  0.3908
 6343TIP3   OH240519   6.082   6.224  10.945 -0.7561 -0.0513  0.5551
 6343TIP3    H140520   5.998   6.184  10.923 -0.7339  0.2119 -0.0425
 6343TIP3    H240521   6.093   6.209  11.039 -0.9083 -1.1546  0.4173
 6344TIP3   OH240522   6.632   6.396  13.412 -0.5761  0.0811  0.0925
 6344TIP3    H140523   6.697   6.343  13.458 -0.8844 -0.1203  0.2957
 6344TIP3    H240524   6.547   6.364  13.443 -0.8651 -1.2312 -1.8381
 6345TIP3   OH240525   0.337   2.708  13.366 -0.2683 -0.1643  0.3808
 6345TIP3    H140526   0.257   2.696  13.315 -0.9533 -0.6273  1.5333
 6345TIP3    H240527   0.407   2.680  13.307 -0.9598 -0.0028 -0.5484
 6346TIP3   OH240528   1.276   4.000  15.091 -0.2724 -0.2732 -0.3068
 6346TIP3    H140529   1.323   3.919  15.072 -2.0333 -1.8920  1.6942
 6346TIP3    H240530   1.299   4.020  15.182 -0.0534  1.3671 -0.6977
 6347TIP3   OH240531   1.267   6.735   3.573 -0.2179 -0.0946  0.1022
 6347TIP3    H140532   1.249   6.756   3.665 -0.2055  0.5434 -0.0326
 6347TIP3    H240533   1.194   6.775   3.525  0.8424  1.3900 -0.3393
 6348TIP3   OH240534   6.249   1.139   5.424 -0.3978 -0.4259  0.2595
 6348TIP3    H140535   6.278   1.048   5.416  0.1062 -0.5046  2.5162
 6348TIP3    H240536   6.298   1.186   5.356 -1.7376 -2.0103 -1.9284
 6349TIP3   OH240537   3.108   1.944   4.304  0.3435  0.1821 -0.3325
 6349TIP3    H140538   3.044   1.902   4.247  0.4543 -1.6655  0.8438
 6349TIP3    H240539   3.127   1.879   4.371  3.5868  0.5949 -0.7019
 6350TIP3   OH240540   0.242   5.270   0.044  0.1527 -0.0552  0.6797
 6350TIP3    H140541   0.329   5.238   0.022 -0.5870 -0.1816 -2.5961
 6350TIP3    H240542   0.204   5.202   0.099  0.7308 -2.0135 -1.2192
 6351TIP3   OH240543   1.873   2.404  11.746 -0.0275  0.0200  0.5222
 6351TIP3    H140544   1.880   2.442  11.833  0.0998  0.1901  0.4387
 6351TIP3    H240545   1.794   2.443  11.709  0.8409  1.2755 -0.0804
 6352TIP3   OH240546   4.835   0.130   2.828 -0.2454  0.5003  0.3373
 6352TIP3    H140547   4.879   0.080   2.897  1.0219  1.1791  0.0543
 6352TIP3    H240548   4.887   0.210   2.819 -1.4811  1.2820 -0.1182
 6353TIP3   OH240549   6.027   2.770   1.141 -0.5094  0.3440  0.0914
 6353TIP3    H140550   6.050   2.741   1.053 -0.8200  0.0579  0.1017
 6353TIP3    H240551   5.933   2.788   1.136 -0.9147 -1.4144  0.8198
 6354TIP3   OH240552   3.828   5.991   2.329  0.3182  0.3913  0.5393
 6354TIP3    H140553   3.852   5.924   2.264  0.5192 -0.4744  1.4862
 6354TIP3    H240554   3.856   6.074   2.289 -2.4005  0.3179 -1.9155
 6355TIP3   OH240555   4.007   6.357   5.505  0.0432 -0.1196 -0.0805
 6355TIP3    H140556   3.935   6.409   5.538  0.9564  0.2380  1.4440
 6355TIP3    H240557   3.980   6.330   5.417 -0.9900  1.8366 -0.4031
 6356TIP3   OH240558   5.901   6.395  14.801  0.3578 -0.3108 -0.3116
 6356TIP3    H140559   5.947   6.411  14.719 -1.6206  0.4673 -1.3440
 6356TIP3    H240560   5.824   6.452  14.797 -0.3665 -1.0647  1.6022
 6357TIP3   OH240561   6.718   5.714   5.168  0.6625  0.3826 -0.0361
 6357TIP3    H140562   6.751   5.644   5.224  2.2051  1.0033 -0.1170
 6357TIP3    H240563   6.790   5.733   5.108  0.0764  1.6770 -0.3700
 6358TIP3   OH240564   2.049   4.624   4.027 -0.4491 -0.2240  0.3059
 6358TIP3    H140565   2.014   4.535   4.037 -0.2401 -0.2040  1.2954
 6358TIP3    H240566   2.122   4.628   4.088  0.4457  0.1799 -0.7600
 6359TIP3   OH240567   2.393   0.994  12.279 -0.3396 -0.1922 -0.2305
 6359TIP3    H140568   2.383   1.035  12.365 -1.4614  1.0341 -0.9067
 6359TIP3    H240569   2.361   0.905  12.291 -1.1326  0.1725  0.4593
 6360TIP3   OH240570   0.876   2.612   5.183  0.3853 -0.0413  0.2969
 6360TIP3    H140571   0.826   2.573   5.111  1.1587  2.4375 -1.7514
 6360TIP3    H240572   0.922   2.539   5.224 -1.2255 -1.7238 -0.8037
 6361TIP3   OH240573   0.419   1.375   2.443 -0.2081  0.2063  0.3400
 6361TIP3    H140574   0.327   1.349   2.454 -0.1042 -0.9068 -1.1543
 6361TIP3    H240575   0.457   1.305   2.391  0.4062  2.7247 -2.8943
 6362TIP3   OH240576   1.878   0.325  17.057  0.0829  0.4847  0.0907
 6362TIP3    H140577   1.924   0.253  17.013 -2.0191 -2.2781  2.0465
 6362TIP3    H240578   1.813   0.354  16.993  1.3023  1.1054 -0.9193
 6363TIP3   OH240579   4.543   4.797   5.505  0.0412 -0.2943  0.0462
 6363TIP3    H140580   4.619   4.807   5.562 -0.4104 -0.9505  0.7918
 6363TIP3    H240581   4.578   4.761   5.424  0.3840 -1.9832  0.8813
 6364TIP3   OH240582   5.427   1.227  15.744 -0.2599 -0.2355  0.3803
 6364TIP3    H140583   5.415   1.132  15.740  0.3362 -0.3304  0.7849
 6364TIP3    H240584   5.451   1.252  15.654 -1.2649 -0.3422  0.0744
 6365TIP3   OH240585   0.206   1.247  13.296  0.1946 -0.1764  0.1086
 6365TIP3    H140586   0.144   1.312  13.331  1.3298  1.7622 -1.2244
 6365TIP3    H240587   0.230   1.193  13.370  0.1727  1.7937  1.6356
 6366TIP3   OH240588   2.670   6.468   4.617  0.2801  0.2617 -0.2008
 6366TIP3    H140589   2.739   6.487   4.553  0.6780  0.4458  0.2714
 6366TIP3    H240590   2.646   6.377   4.600  1.8031 -0.3436  0.6924
 6367TIP3   OH240591   5.587   1.070  10.453  0.2488 -0.4214  0.3787
 6367TIP3    H140592   5.509   1.085  10.506  0.4597  1.0577  0.2988
 6367TIP3    H240593   5.645   1.143  10.473  1.0058 -0.7095 -0.6656
 6368TIP3   OH240594   3.297   3.491  15.427  0.1536  0.8367 -0.1677
 6368TIP3    H140595   3.305   3.491  15.332 -0.3107 -2.2017 -0.2985
 6368TIP3    H240596   3.230   3.557  15.446  1.0324  2.2666 -1.8083
 6369TIP3   OH240597   5.768   1.421   5.072  0.4656 -0.0581 -0.8199
 6369TIP3    H140598   5.783   1.328   5.052 -0.4948 -0.4311  0.1073
 6369TIP3    H240599   5.781   1.428   5.167  0.1202  0.6781 -0.8205
 6370TIP3   OH240600   4.945   2.180  14.667  0.2501 -0.5889 -0.4354
 6370TIP3    H140601   4.968   2.214  14.754  1.0694 -0.1877 -0.7963
 6370TIP3    H240602   5.002   2.228  14.607 -1.1489  0.0033 -1.3299
 6371TIP3   OH240603   2.303   2.821  14.725 -0.0087 -0.2482  0.1984
 6371TIP3    H140604   2.280   2.774  14.805 -0.8621  0.5362  0.4292
 6371TIP3    H240605   2.268   2.766  14.654  0.8482 -1.0016  0.3326
 6372TIP3   OH240606   6.391   3.484  13.988 -0.5068 -0.2614 -0.6628
 6372TIP3    H140607   6.312   3.435  14.011  0.0874 -0.3927  1.2416
 6372TIP3    H240608   6.431   3.433  13.917 -0.4967 -1.9434  0.4878
 6373TIP3   OH240609   2.845   3.205   3.923 -0.0990 -0.1259 -0.1161
 6373TIP3    H140610   2.818   3.284   3.877 -0.2298 -0.7869 -1.2014
 6373TIP3    H240611   2.898   3.237   3.996  0.9082  0.9092 -1.2537
 6374TIP3   OH240612   3.901   1.398   3.424 -0.1353 -0.6457 -0.4051
 6374TIP3    H140613   3.855   1.440   3.351 -2.3126 -0.8664  0.7738
 6374TIP3    H240614   3.857   1.431   3.502  1.1308 -1.6122  0.7512
 6375TIP3   OH240615   5.489   3.916  12.914  0.3085 -0.7516 -0.2279
 6375TIP3    H140616   5.446   3.981  12.969  0.0997 -1.1570  0.0942
 6375TIP3    H240617   5.567   3.960  12.880  0.9509 -0.7907  1.1446
 6376TIP3   OH240618   3.028   3.055  11.250  0.2228  0.1615  0.0645
 6376TIP3    H140619   3.123   3.064  11.257  0.0514  1.1940  1.4009
 6376TIP3    H240620   3.009   2.970  11.291  0.4472  0.5999  1.0998
 6377TIP3   OH240621   4.395   2.959   5.337  0.1772 -0.1954 -0.2718
 6377TIP3    H140622   4.368   2.977   5.427 -0.6679 -1.0652 -0.3374
 6377TIP3    H240623   4.488   2.982   5.335  0.1071  0.2364  0.7053
 6378TIP3   OH240624   0.677   2.735  11.891  0.1404 -0.1692  0.0617
 6378TIP3    H140625   0.583   2.714  11.895  0.2978 -0.7362  2.0153
 6378TIP3    H240626   0.683   2.825  11.921  0.1497  0.1995 -1.0184
 6379TIP3   OH240627   0.499   5.875   1.255  0.4549  0.4446 -0.1612
 6379TIP3    H140628   0.443   5.896   1.329  1.1661 -0.7095  0.7369
 6379TIP3    H240629   0.578   5.927   1.268  1.2583 -0.9480  0.8183
 6380TIP3   OH240630   5.195   0.206  13.792  0.0396 -0.1103  0.8362
 6380TIP3    H140631   5.154   0.267  13.853  0.3882 -0.3080  1.2714
 6380TIP3    H240632   5.285   0.195  13.825  0.9531  1.4789 -0.9169
 6381TIP3   OH240633   0.913   6.570  14.504  0.5091  0.2815  0.0891
 6381TIP3    H140634   0.942   6.541  14.417 -1.2981  0.9105 -0.7781
 6381TIP3    H240635   0.855   6.500  14.533  0.0185  0.7119  0.1590
 6382TIP3   OH240636   3.051   5.109   0.967  0.3447 -0.0417  0.4526
 6382TIP3    H140637   3.073   5.018   0.948  1.2097  0.2939 -0.1717
 6382TIP3    H240638   3.135   5.152   0.982  0.0774  1.0069 -0.8761
 6383TIP3   OH240639   5.171   3.366  17.107  0.1381  0.2476 -0.2327
 6383TIP3    H140640   5.079   3.339  17.096  0.1287  0.9779 -2.4439
 6383TIP3    H240641   5.221   3.291  17.075  0.3725 -0.3362  1.4074
 6384TIP3   OH240642   0.740   4.787  14.659  0.4724 -0.2151 -0.7174
 6384TIP3    H140643   0.790   4.731  14.718  1.6303  0.4883 -0.9904
 6384TIP3    H240644   0.705   4.728  14.592  0.4121 -0.8070 -0.1694
 6385TIP3   OH240645   3.173   4.259  12.461  0.5199  0.3907  0.0541
 6385TIP3    H140646   3.238   4.193  12.483  1.0369  0.2968 -1.6358
 6385TIP3    H240647   3.143   4.293  12.546  1.6446 -0.6346  0.8870
 6386TIP3   OH240648   6.262   1.570  14.446 -0.1055  0.5627 -0.2118
 6386TIP3    H140649   6.277   1.597  14.537 -2.9292  2.8655 -0.2943
 6386TIP3    H240650   6.183   1.517  14.449  1.3742 -1.8797 -1.0767
 6387TIP3   OH240651   3.821   4.456   2.873  0.3939 -0.2839 -0.9655
 6387TIP3    H140652   3.853   4.399   2.944  0.3352  0.9695  0.1005
 6387TIP3    H240653   3.727   4.436   2.868  0.2578  0.0965 -0.2015
 6388TIP3   OH240654   0.956   0.674   3.057 -0.4582  0.4415  0.2445
 6388TIP3    H140655   0.874   0.639   3.023  0.3113 -0.0703 -1.1766
 6388TIP3    H240656   0.992   0.603   3.111 -0.5419  0.3471  0.1762
 6389TIP3   OH240657   0.392   4.010  16.532 -0.1441 -0.0125 -0.2850
 6389TIP3    H140658   0.404   4.101  16.503 -0.4005 -0.0018 -0.3586
 6389TIP3    H240659   0.414   4.013  16.626  1.9428 -0.3069 -0.7226
 6390TIP3   OH240660   5.887   3.973  15.421 -0.9758 -0.2493  0.1761
 6390TIP3    H140661   5.817   3.924  15.376 -1.0348  0.2234 -0.2633
 6390TIP3    H240662   5.941   3.906  15.462 -0.9835 -0.6958 -0.5197
 6391TIP3   OH240663   0.747   3.575  14.593  0.1327  0.2505 -0.2200
 6391TIP3    H140664   0.761   3.549  14.684  1.4211 -0.6061 -0.6294
 6391TIP3    H240665   0.799   3.513  14.542 -1.0815  0.3048 -1.5983
 6392TIP3   OH240666   4.663   5.720   4.947 -0.0882  0.0775 -0.8427
 6392TIP3    H140667   4.666   5.642   4.891 -0.5758 -0.1577 -0.5539
 6392TIP3    H240668   4.750   5.758   4.941 -0.0326 -0.1395 -1.4869
 6393TIP3   OH240669   4.034   3.521  15.572 -0.3964  0.0453  0.0600
 6393TIP3    H140670   3.958   3.579  15.581  0.0429  0.5638  0.5601
 6393TIP3    H240671   4.006   3.438  15.609 -1.0301 -0.0673 -0.6449
 6394TIP3   OH240672   4.414   6.378   4.461  0.3805  0.2081  0.5503
 6394TIP3    H140673   4.368   6.304   4.500 -2.0064  0.0314 -2.2531
 6394TIP3    H240674   4.474   6.339   4.398 -1.4110  0.5397 -1.4754
 6395TIP3   OH240675   4.910   5.075  15.062 -0.2171  0.2215  0.1502
 6395TIP3    H140676   4.953   5.140  15.006  1.1723  0.4493  1.3904
 6395TIP3    H240677   4.860   5.127  15.125 -1.7581 -0.0284 -0.8395
 6396TIP3   OH240678   5.996   4.150  13.185  0.0266  0.1086 -0.5830
 6396TIP3    H140679   6.082   4.183  13.158 -0.0575  0.2822 -0.6372
 6396TIP3    H240680   5.997   4.058  13.158  0.0156  0.2328 -1.0135
 6397TIP3   OH240681   6.731   1.590  16.355 -0.5176 -0.5905 -0.5260
 6397TIP3    H140682   6.779   1.665  16.389 -0.7999 -0.6397 -0.0147
 6397TIP3    H240683   6.640   1.617  16.354 -0.7893 -1.3445  0.8710
 6398TIP3   OH240684   6.803   1.832   2.611 -0.0215 -0.0044 -0.7177
 6398TIP3    H140685   6.881   1.782   2.587  1.3931  0.3975  2.6007
 6398TIP3    H240686   6.834   1.923   2.617 -1.2542  0.4713 -1.2275
 6399TIP3   OH240687   5.316   5.810  14.696  0.0967  0.1245 -0.4982
 6399TIP3    H140688   5.319   5.794  14.602 -0.7473 -0.2181 -0.4729
 6399TIP3    H240689   5.373   5.886  14.709  1.2297 -0.5963 -1.1072
 6400TIP3   OH240690   5.957   5.244   2.782 -0.2218 -0.1503 -0.3079
 6400TIP3    H140691   5.889   5.180   2.764  0.3378 -0.7070 -0.4669
 6400TIP3    H240692   5.948   5.263   2.876  0.8333 -1.9280  0.2034
 6401TIP3   OH240693   0.455   1.575   3.815 -0.3638  0.2571  0.1253
 6401TIP3    H140694   0.377   1.619   3.781  0.0659 -0.3551 -1.7846
 6401TIP3    H240695   0.528   1.624   3.777  0.1599 -0.1116  0.6532
 6402TIP3   OH240696   0.587   1.462  11.789  0.1783 -0.2428  0.4699
 6402TIP3    H140697   0.647   1.425  11.854  0.6843 -0.3569 -0.0484
 6402TIP3    H240698   0.636   1.458  11.707 -1.2977 -2.3083 -0.3989
 6403TIP3   OH240699   0.826   5.322  15.292  0.5431 -0.1815  0.7515
 6403TIP3    H140700   0.740   5.284  15.275  1.8788 -3.3411  0.2626
 6403TIP3    H240701   0.814   5.416  15.282 -3.0800 -0.3750  1.8754
 6404TIP3   OH240702   0.824   1.430  12.923 -0.0785 -0.1779  0.0107
 6404TIP3    H140703   0.865   1.363  12.977 -1.9286 -1.0913  0.3651
 6404TIP3    H240704   0.747   1.457  12.973 -0.0076  1.4071 -0.6620
 6405TIP3   OH240705   4.396   4.061  13.693 -0.4022 -0.2938  0.1254
 6405TIP3    H140706   4.480   4.015  13.690 -0.0173  0.4426 -1.0506
 6405TIP3    H240707   4.413   4.145  13.649 -1.8154 -0.2548 -0.3979
 6406TIP3   OH240708   6.060   2.843   2.257  0.8112 -0.5418 -0.0775
 6406TIP3    H140709   6.071   2.919   2.199  1.0478  0.0173  0.6752
 6406TIP3    H240710   6.068   2.767   2.200  0.4469  0.0077 -0.8687
 6407TIP3   OH240711   2.634   3.737  17.015  0.1528  0.2201  0.0995
 6407TIP3    H140712   2.643   3.823  16.975  0.6812  0.1350  0.0278
 6407TIP3    H240713   2.670   3.677  16.949  0.6880  0.0446  0.5459
 6408TIP3   OH240714   1.479   0.417  16.692 -0.3306 -0.5721 -0.4421
 6408TIP3    H140715   1.470   0.499  16.739 -0.9858 -1.5075  1.1543
 6408TIP3    H240716   1.392   0.401  16.655 -0.1922 -0.5189 -0.7894
 6409TIP3   OH240717   3.986   5.344   2.960 -0.7585  0.1221 -0.3368
 6409TIP3    H140718   3.990   5.298   2.877 -0.7130 -0.5124  0.0149
 6409TIP3    H240719   3.937   5.286   3.018  0.3164 -0.0235  0.4568
 6410TIP3   OH240720   1.179   6.731   4.341  0.3173 -0.0783 -0.0742
 6410TIP3    H140721   1.136   6.648   4.319  0.8282 -0.3127 -0.2205
 6410TIP3    H240722   1.114   6.780   4.390 -0.4603 -0.0178 -1.1215
 6411TIP3   OH240723   4.669   1.856   0.621  0.1845  0.3408 -0.1124
 6411TIP3    H140724   4.743   1.834   0.564 -0.6821  2.5061 -2.2842
 6411TIP3    H240725   4.692   1.820   0.706  2.8082 -0.7694 -1.1902
 6412TIP3   OH240726   5.004   2.350   0.385  0.1507  0.2726  0.1376
 6412TIP3    H140727   5.083   2.403   0.400  1.4158 -1.1967 -1.0001
 6412TIP3    H240728   5.021   2.268   0.430  0.1306 -0.7653 -1.6420
 6413TIP3   OH240729   0.167   2.636   3.030  0.4255 -0.2125  0.1565
 6413TIP3    H140730   0.119   2.718   3.021  0.7239 -0.0722 -0.1755
 6413TIP3    H240731   0.106   2.577   3.075  1.4808  1.2952  3.9922
 6414TIP3   OH240732   2.055   1.083  10.639 -0.2352 -0.0950  0.2486
 6414TIP3    H140733   2.121   1.086  10.709 -0.2164 -1.6634  0.3232
 6414TIP3    H240734   1.973   1.067  10.684 -0.2729 -0.7605 -0.0435
 6415TIP3   OH240735   3.261   2.657   4.010  0.2284  0.1200  0.4891
 6415TIP3    H140736   3.332   2.594   3.994  0.6140  0.4361  0.9351
 6415TIP3    H240737   3.225   2.675   3.923  2.1784  1.6863 -0.0578
 6416TIP3   OH240738   3.538   0.167   4.866 -0.2090 -0.3192 -0.0774
 6416TIP3    H140739   3.528   0.084   4.912  0.6659 -0.0743  0.5721
 6416TIP3    H240740   3.525   0.145   4.773  1.3029 -1.4369 -0.0628
 6417TIP3   OH240741   1.192   4.999   3.474  0.4288 -0.2024 -0.0384
 6417TIP3    H140742   1.131   4.975   3.544 -0.1930  0.7214 -0.2345
 6417TIP3    H240743   1.254   5.059   3.515 -0.3935  0.9517 -0.4197
 6418TIP3   OH240744   3.154   4.949  13.326 -0.3007 -0.8920 -0.0123
 6418TIP3    H140745   3.239   4.907  13.312  1.1330  1.6550  0.4406
 6418TIP3    H240746   3.169   5.041  13.306 -2.6392 -0.1285  1.3240
 6419TIP3   OH240747   6.466   2.517  17.049  0.1259  0.4192 -0.3973
 6419TIP3    H140748   6.480   2.575  17.124 -2.0972 -0.9395  1.1932
 6419TIP3    H240749   6.504   2.434  17.075 -0.1076  0.1003 -1.0548
 6420TIP3   OH240750   5.409   0.133  11.782  0.1324  0.1120  1.2889
 6420TIP3    H140751   5.480   0.166  11.836  0.2320 -0.5858  1.5904
 6420TIP3    H240752   5.364   0.069  11.837 -1.9330  1.8932  1.8324
 6421TIP3   OH240753   6.544   3.556  10.979 -0.6477  0.5759  0.2773
 6421TIP3    H140754   6.579   3.574  11.066  2.7602  3.1439 -1.4286
 6421TIP3    H240755   6.501   3.637  10.952  1.2258  1.0295 -1.5975
 6422TIP3   OH240756   6.116   3.569  13.329  0.7762 -0.4342  0.0573
 6422TIP3    H140757   6.068   3.649  13.307  0.8616 -0.3730  0.0882
 6422TIP3    H240758   6.049   3.503  13.343  0.5736  0.0970  1.9794
 6423TIP3   OH240759   2.695   1.575   5.041 -0.3654 -0.4952  0.9788
 6423TIP3    H140760   2.632   1.647   5.039  0.3251  0.1067  0.3001
 6423TIP3    H240761   2.642   1.496   5.025 -1.2459 -0.2616  2.5084
 6424TIP3   OH240762   2.774   2.449  11.781 -0.1388  0.3646 -0.1667
 6424TIP3    H140763   2.710   2.513  11.811 -0.1698 -0.3134  1.3040
 6424TIP3    H240764   2.819   2.420  11.861  1.4630  0.2356 -1.0589
 6425TIP3   OH240765   4.140   3.492   0.469  0.0363  0.3037 -0.1735
 6425TIP3    H140766   4.101   3.580   0.468  0.6526  0.5875 -0.0689
 6425TIP3    H240767   4.225   3.504   0.427  0.0906 -0.2661 -0.2338
 6426TIP3   OH240768   1.441   1.549  16.825  0.2624 -0.2454 -0.0830
 6426TIP3    H140769   1.397   1.519  16.745  0.1059 -2.8738  0.8960
 6426TIP3    H240770   1.370   1.556  16.889  0.6133  0.3591  0.2492
 6427TIP3   OH240771   0.264   4.878   1.803  0.2405  0.1401 -0.0121
 6427TIP3    H140772   0.233   4.788   1.816  1.7206 -0.4225 -0.1824
 6427TIP3    H240773   0.277   4.885   1.708 -0.4186  0.7502 -0.0698
 6428TIP3   OH240774   2.164   1.224   4.966  0.4209 -0.3570 -0.5771
 6428TIP3    H140775   2.106   1.230   5.042 -0.8503 -0.5066 -1.5026
 6428TIP3    H240776   2.172   1.314   4.934 -0.9475 -0.5742 -1.6151
 6429TIP3   OH240777   2.294   3.184  14.017  0.2023  0.7647  0.0816
 6429TIP3    H140778   2.254   3.127  14.082  2.1218  0.4863  1.0757
 6429TIP3    H240779   2.220   3.227  13.973 -1.2936 -2.1508 -0.4520
 6430TIP3   OH240780   1.706   1.285   0.497 -0.6930  0.0368  0.0698
 6430TIP3    H140781   1.682   1.223   0.428  0.0779  1.0055 -1.1268
 6430TIP3    H240782   1.736   1.363   0.449 -0.2061  0.7712  1.5108
 6431TIP3   OH240783   1.525   2.021   2.677  0.0817 -0.2320 -0.3690
 6431TIP3    H140784   1.457   1.957   2.656 -0.4450 -0.1342  0.9647
 6431TIP3    H240785   1.591   1.972   2.725  0.4395 -0.0888 -0.7034
 6432TIP3   OH240786   6.768   5.670   2.690 -0.6053  0.1213 -0.0540
 6432TIP3    H140787   6.766   5.758   2.727  1.4940 -0.5573  1.8191
 6432TIP3    H240788   6.846   5.668   2.635  0.1023 -0.9514  0.9601
 6433TIP3   OH240789   4.269   4.493  10.903  0.0285 -0.5785 -0.3624
 6433TIP3    H140790   4.268   4.580  10.945  0.9747 -0.8518  0.2558
 6433TIP3    H240791   4.183   4.456  10.922 -1.2659  1.0648 -2.5039
 6434TIP3   OH240792   6.133   5.445  15.235 -0.7942 -0.2033  0.0623
 6434TIP3    H140793   6.112   5.534  15.208 -0.4425  0.4048  1.6895
 6434TIP3    H240794   6.068   5.425  15.302  0.0720 -0.5728  0.8139
 6435TIP3   OH240795   5.632   6.105   5.790  0.0005  0.2448 -0.0313
 6435TIP3    H140796   5.662   6.194   5.773 -0.2245  0.4144  0.4360
 6435TIP3    H240797   5.663   6.054   5.715  0.5067  0.6296 -0.0853
 6436TIP3   OH240798   1.104   3.227   0.487 -0.0619 -0.1778  0.3012
 6436TIP3    H140799   1.042   3.155   0.477 -0.9539  0.6114 -0.0328
 6436TIP3    H240800   1.162   3.199   0.557 -0.1970 -1.3502 -0.0294
 6437TIP3   OH240801   1.611   6.183   6.330  0.5395  0.3069  0.0779
 6437TIP3    H140802   1.600   6.215   6.419  3.3661  2.8559 -0.2863
 6437TIP3    H240803   1.622   6.088   6.339  0.3953  0.4625  2.3823
 6438TIP3   OH240804   4.815   6.664   6.315 -0.2121  0.4854 -0.8056
 6438TIP3    H140805   4.757   6.630   6.384 -0.5555  1.9858 -0.3193
 6438TIP3    H240806   4.782   6.624   6.234 -0.6460 -0.2587 -0.2671
 6439TIP3   OH240807   6.535   1.381  15.274  0.0339 -0.1378 -0.4199
 6439TIP3    H140808   6.606   1.338  15.323 -1.1977 -0.9766  0.6790
 6439TIP3    H240809   6.506   1.452  15.332  0.0195  0.2538 -0.9007
 6440TIP3   OH240810   2.343   0.061  13.351  0.4582  0.0381 -0.3264
 6440TIP3    H140811   2.283   0.121  13.396  0.0513 -1.0717  0.6537
 6440TIP3    H240812   2.337  -0.020  13.400  2.0169 -0.4155 -0.8274
 6441TIP3   OH240813   3.469   4.955   5.333 -0.4941  0.1873  0.6291
 6441TIP3    H140814   3.435   4.945   5.422  0.2166 -1.0207  0.7887
 6441TIP3    H240815   3.558   4.921   5.337 -1.5140 -3.3221 -1.2372
 6442TIP3   OH240816   3.444   4.960  10.876 -0.3883 -0.8874 -0.6280
 6442TIP3    H140817   3.417   5.021  10.944 -0.8544 -2.4368  0.6558
 6442TIP3    H240818   3.537   4.977  10.864 -0.5169  0.0816 -0.3258
 6443TIP3   OH240819   4.717   0.289   4.237  0.3432 -0.8459  0.2714
 6443TIP3    H140820   4.699   0.316   4.147  0.5335 -1.0301  0.1756
 6443TIP3    H240821   4.711   0.193   4.234  0.1717 -0.8424  0.4949
 6444TIP3   OH240822   3.085   4.198   1.780 -0.1233  0.9703  0.1019
 6444TIP3    H140823   3.012   4.137   1.766 -0.1927  0.6884  1.5861
 6444TIP3    H240824   3.157   4.161   1.728 -0.9731  1.1728 -1.2510
 6445TIP3   OH240825   4.940   4.193  16.232 -0.4373  0.1288  0.1906
 6445TIP3    H140826   5.015   4.156  16.279 -0.2660 -1.2447 -1.0767
 6445TIP3    H240827   4.865   4.174  16.288 -0.1319 -0.7286  0.3341
 6446TIP3   OH240828   1.226   4.847   4.920  0.0463 -0.1493 -0.4376
 6446TIP3    H140829   1.301   4.866   4.864  0.5443  1.1810  0.6247
 6446TIP3    H240830   1.157   4.905   4.888  0.0921  0.0574 -0.1623
 6447TIP3   OH240831   0.171   1.057   5.771  0.3698  0.2553  0.1061
 6447TIP3    H140832   0.098   0.998   5.786  0.0863  0.5715 -0.0001
 6447TIP3    H240833   0.168   1.118   5.845  0.7336  0.0620  0.2805
 6448TIP3   OH240834   4.171   1.180  16.111 -0.0467 -0.3159  0.5749
 6448TIP3    H140835   4.105   1.136  16.164 -1.7258  0.9765 -0.3377
 6448TIP3    H240836   4.201   1.114  16.049 -0.8094 -0.7948  0.7097
 6449TIP3   OH240837   0.917   2.896   1.716  0.2061 -0.0358  0.8104
 6449TIP3    H140838   0.916   2.939   1.802  2.4732 -0.8076  1.2939
 6449TIP3    H240839   0.960   2.958   1.658 -0.0163 -0.1027  0.5732
 6450TIP3   OH240840   1.892   2.871  15.411  1.0154 -0.0761  0.3983
 6450TIP3    H140841   1.891   2.966  15.421 -1.3720  0.0471 -0.3485
 6450TIP3    H240842   1.934   2.856  15.327  1.5542  0.3094  0.5982
 6451TIP3   OH240843   0.665   2.637   0.613 -0.2937  0.0483  0.3811
 6451TIP3    H140844   0.709   2.718   0.640 -1.1688  1.4390 -2.0599
 6451TIP3    H240845   0.736   2.580   0.584  0.6955 -1.5027  4.9990
 6452TIP3   OH240846   6.101   4.644   5.839 -0.2240 -0.6615 -0.6140
 6452TIP3    H140847   6.083   4.658   5.932 -1.5727  1.8178 -1.1688
 6452TIP3    H240848   6.051   4.565   5.817 -0.7859 -0.6490  0.5373
 6453TIP3   OH240849   4.522   4.816  12.917 -0.2126  0.3048  0.2111
 6453TIP3    H140850   4.529   4.876  12.992  0.9810  0.1601  0.2394
 6453TIP3    H240851   4.434   4.778  12.924 -1.0676  2.1536  0.1038
 6454TIP3   OH240852   6.746   0.541  11.992 -0.1766 -0.2908 -0.5163
 6454TIP3    H140853   6.665   0.587  12.017  0.1173  0.4381 -0.8767
 6454TIP3    H240854   6.808   0.564  12.061 -0.3925 -1.1977 -0.0114
 6455TIP3   OH240855   6.017   4.982   5.375 -0.3894 -0.0718 -0.3526
 6455TIP3    H140856   6.014   5.068   5.333 -1.0655 -0.2836 -0.7521
 6455TIP3    H240857   5.988   4.998   5.465  1.1207  0.3935  0.0945
 6456TIP3   OH240858   0.057   3.685  10.878  0.0061  0.2900 -0.5581
 6456TIP3    H140859   0.035   3.777  10.890 -0.8001  0.5729 -3.5219
 6456TIP3    H240860   0.088   3.679  10.788  0.5912 -2.2757 -0.2657
 6457TIP3   OH240861   2.381   2.002   4.647 -0.2844 -0.0116  0.1064
 6457TIP3    H140862   2.331   2.078   4.677  1.4303  1.2386 -0.0711
 6457TIP3    H240863   2.415   1.963   4.728 -0.8823 -0.4157  0.1725
 6458TIP3   OH240864   5.840   3.305  16.873  0.0537  0.2275 -0.0988
 6458TIP3    H140865   5.914   3.246  16.869 -0.7473 -1.0321  1.9843
 6458TIP3    H240866   5.826   3.334  16.783  2.5200 -0.1340 -0.6410
 6459TIP3   OH240867   5.586   5.970  13.145 -0.3470 -0.7850  0.6098
 6459TIP3    H140868   5.562   5.948  13.055  0.1891  0.0729  0.2475
 6459TIP3    H240869   5.510   6.018  13.178  0.5552  1.4184 -0.3465
 6460TIP3   OH240870   1.615   5.088  13.512  0.2655 -0.3617 -0.3465
 6460TIP3    H140871   1.571   5.169  13.485  0.3096 -0.5737 -1.0727
 6460TIP3    H240872   1.615   5.033  13.433  0.6912 -0.8687  0.0003
 6461TIP3   OH240873   5.644   2.795   3.037 -0.3181  0.3443 -0.0875
 6461TIP3    H140874   5.719   2.740   3.059 -0.0322  0.1509 -1.4470
 6461TIP3    H240875   5.661   2.824   2.947 -1.3986  1.0949 -0.0689
 6462TIP3   OH240876   0.201   6.391   0.490  0.0969  0.3163 -0.4079
 6462TIP3    H140877   0.120   6.442   0.493  1.1126  2.2331 -2.7443
 6462TIP3    H240878   0.173   6.300   0.505 -2.0901  1.1995  1.4509
 6463TIP3   OH240879   1.976   1.116  14.907  0.5601  0.3388 -0.1102
 6463TIP3    H140880   1.932   1.112  14.822 -0.0762  0.4809  0.1977
 6463TIP3    H240881   1.907   1.091  14.970  0.9547  0.4659  0.3780
 6464TIP3   OH240882   2.847   3.336  13.488  0.3294 -0.0482  0.2566
 6464TIP3    H140883   2.806   3.250  13.498 -2.0511  0.3111 -4.1135
 6464TIP3    H240884   2.784   3.397  13.527 -0.3027 -0.0068 -0.7799
 6465TIP3   OH240885   3.780   3.269  14.887  0.3008  0.3675 -0.9033
 6465TIP3    H140886   3.741   3.183  14.871  1.1884  0.1559 -2.0376
 6465TIP3    H240887   3.817   3.263  14.975  0.0402 -0.2830 -0.8340
 6466TIP3   OH240888   0.735   3.447   4.615 -0.3860 -0.1741 -0.0512
 6466TIP3    H140889   0.773   3.362   4.592 -0.8998 -0.0979 -1.2794
 6466TIP3    H240890   0.758   3.460   4.707  1.2346 -0.8147 -0.3409
 6467TIP3   OH240891   0.862   6.195  13.846 -0.6727  0.1974  0.0686
 6467TIP3    H140892   0.852   6.103  13.822 -2.1199  0.6902 -1.4513
 6467TIP3    H240893   0.828   6.200  13.935 -0.8497 -0.6899  0.0607
 6468TIP3   OH240894   1.973   6.802   1.519  0.4552  0.2655 -0.0085
 6468TIP3    H140895   1.944   6.717   1.552  1.0504 -0.2907 -0.8735
 6468TIP3    H240896   1.899   6.834   1.466 -0.2283  0.8437  1.2561
 6469TIP3   OH240897   1.134   6.347   4.794 -0.1306  0.9661 -0.2318
 6469TIP3    H140898   1.176   6.341   4.880 -0.1404  0.5393 -0.2591
 6469TIP3    H240899   1.097   6.436   4.792  0.4003  1.1998 -0.0410
 6470TIP3   OH240900   0.900   2.130   0.236 -0.1737  0.2061  0.0310
 6470TIP3    H140901   0.927   2.197   0.299  1.2789 -1.4639  1.2850
 6470TIP3    H240902   0.850   2.067   0.288 -1.1890  0.0873 -1.0499
 6471TIP3   OH240903   3.340   6.693   0.060 -0.1136 -0.1151  0.1856
 6471TIP3    H140904   3.351   6.766  -0.002 -0.8616 -0.2413 -0.0965
 6471TIP3    H240905   3.407   6.630   0.034  1.2630  0.9025  1.0886
 6472TIP3   OH240906   1.823   6.509   3.598 -0.0060 -0.3296 -0.0183
 6472TIP3    H140907   1.875   6.577   3.556 -1.3974  0.9176  0.1920
 6472TIP3    H240908   1.752   6.492   3.536 -0.7116 -0.2427  0.7617
 6473TIP3   OH240909   0.861   1.841   1.537  0.2058 -0.4699 -0.5237
 6473TIP3    H140910   0.930   1.780   1.563  0.5027 -0.2499 -0.7866
 6473TIP3    H240911   0.825   1.873   1.619  2.6358  1.9464 -0.2402
 6474TIP3   OH240912   2.192   0.192   3.569  0.5415  0.9709  0.5179
 6474TIP3    H140913   2.197   0.231   3.481  0.4733 -1.7252 -0.7659
 6474TIP3    H240914   2.274   0.143   3.578 -0.7635 -1.3116  0.6155
 6475TIP3   OH240915   1.746   0.325  15.926  0.0746 -0.1073  0.2221
 6475TIP3    H140916   1.785   0.406  15.890  2.3853 -1.5859 -0.9099
 6475TIP3    H240917   1.765   0.329  16.019  1.3075  0.1315 -0.0135
 6476TIP3   OH240918   2.321   3.233  16.723 -0.6339 -0.2567 -0.0583
 6476TIP3    H140919   2.242   3.277  16.755 -1.2731 -2.2501  1.2555
 6476TIP3    H240920   2.369   3.209  16.802  1.5782  1.2860 -0.8247
 6477TIP3   OH240921   4.546   3.467  16.036  0.2039  0.1774 -0.2048
 6477TIP3    H140922   4.584   3.515  16.110  0.6671  1.9033 -1.5009
 6477TIP3    H240923   4.464   3.513  16.017 -0.7331 -1.2520  0.2176
 6478TIP3   OH240924   6.208   0.751   4.844  0.8933 -0.0465 -0.9105
 6478TIP3    H140925   6.271   0.817   4.872 -1.2513  1.4824  0.6692
 6478TIP3    H240926   6.198   0.694   4.920 -0.6432  0.6102 -0.5763
 6479TIP3   OH240927   3.538   3.713   2.777 -0.0375  0.0873 -0.0473
 6479TIP3    H140928   3.612   3.749   2.827 -0.7931  0.4955  0.8014
 6479TIP3    H240929   3.553   3.619   2.776  0.2213  0.1171  0.5775
 6480TIP3   OH240930   6.630   3.274   1.545 -0.2250 -0.5631 -0.2818
 6480TIP3    H140931   6.624   3.250   1.452  0.3277  0.0088 -0.4671
 6480TIP3    H240932   6.722   3.294   1.559 -0.2950 -0.6989  0.4125
 6481TIP3   OH240933   6.385   0.179  11.546 -0.3789 -0.0490  0.1339
 6481TIP3    H140934   6.355   0.167  11.636 -3.6886 -3.7000 -1.1682
 6481TIP3    H240935   6.460   0.121  11.537 -0.6555 -0.4415  0.3247
 6482TIP3   OH240936   1.985   0.340  13.045 -0.7205 -0.5317  0.0534
 6482TIP3    H140937   2.031   0.270  13.090 -0.8517  0.9832  2.7307
 6482TIP3    H240938   1.929   0.295  12.982  0.8972 -2.6581 -0.0001
 6483TIP3   OH240939   2.383   1.634   0.310 -0.1162  0.4745  0.4757
 6483TIP3    H140940   2.351   1.589   0.232 -0.5821  0.4900  0.6523
 6483TIP3    H240941   2.313   1.621   0.375 -0.2550  1.4362  0.5316
 6484TIP3   OH240942   0.218   1.942   2.393 -0.6669  0.3704  0.1589
 6484TIP3    H140943   0.238   1.869   2.452  1.4949  0.3167 -0.5398
 6484TIP3    H240944   0.231   2.020   2.446 -0.1722  0.2831  0.1791
 6485TIP3   OH240945   0.458   3.616  14.204 -0.1143 -0.6826  0.7524
 6485TIP3    H140946   0.380   3.671  14.203  0.4640  0.1483  0.3549
 6485TIP3    H240947   0.465   3.586  14.295 -1.0227 -0.9816  0.7394
 6486TIP3   OH240948   5.477   2.259  16.159 -0.4802  0.5822 -0.2729
 6486TIP3    H140949   5.518   2.325  16.103  0.3037 -0.1758 -0.6082
 6486TIP3    H240950   5.416   2.214  16.101  0.4402 -0.3022 -0.5764
 6487TIP3   OH240951   5.965   6.135  14.892 -0.3698 -0.3259 -0.7033
 6487TIP3    H140952   6.016   6.178  14.961 -0.7488 -0.0662 -0.5794
 6487TIP3    H240953   5.900   6.201  14.866  0.8237  0.2177 -2.5030
 6488TIP3   OH240954   4.457   4.042  15.640 -0.3936 -0.0180  0.1073
 6488TIP3    H140955   4.497   3.958  15.663 -2.3895 -0.5338  2.0881
 6488TIP3    H240956   4.496   4.105  15.701  1.2428  0.6203 -1.4982
 6489TIP3   OH240957   5.653   1.006   2.763 -0.3098  0.1505 -0.3523
 6489TIP3    H140958   5.705   0.980   2.688  0.4078  0.0181  0.1824
 6489TIP3    H240959   5.571   1.038   2.726  0.4794  1.1941 -1.2513
 6490TIP3   OH240960   5.915   1.870   4.371 -0.1644 -0.2836  0.0223
 6490TIP3    H140961   5.872   1.888   4.455 -2.5718  1.1755 -1.4233
 6490TIP3    H240962   5.997   1.827   4.395 -1.5390 -1.4898  3.0460
 6491TIP3   OH240963   4.453   3.879  14.417  0.3055 -0.5681  0.1240
 6491TIP3    H140964   4.359   3.868  14.404  0.3185 -1.8855  0.9832
 6491TIP3    H240965   4.491   3.796  14.387  1.3033  0.2802 -1.0881
 6492TIP3   OH240966   0.784   5.244  11.252  0.3224 -0.6086 -0.0817
 6492TIP3    H140967   0.756   5.288  11.171 -0.3695 -0.8482  0.0179
 6492TIP3    H240968   0.878   5.259  11.256  0.4852 -1.1641 -1.2872
 6493TIP3   OH240969   0.368   4.500   0.012  0.5748  0.3576 -0.8742
 6493TIP3    H140970   0.455   4.540   0.016  1.2171 -1.0749  1.8925
 6493TIP3    H240971   0.309   4.572   0.036  1.4607  0.4410  1.3517
 6494TIP3   OH240972   4.932   3.482   5.984 -0.6786 -0.7628  0.2149
 6494TIP3    H140973   4.919   3.475   5.889  1.9243 -0.8665 -0.2096
 6494TIP3    H240974   4.984   3.405   6.007  0.0311  0.0336  1.4230
 6495TIP3   OH240975   5.031   0.787   3.316 -0.6845 -0.0369 -0.3733
 6495TIP3    H140976   4.950   0.822   3.352 -2.3707 -1.9821 -2.0109
 6495TIP3    H240977   5.076   0.749   3.392 -0.5360  2.2730  0.7855
 6496TIP3   OH240978   0.521   3.940  15.152 -0.7928  0.0679 -0.1118
 6496TIP3    H140979   0.602   3.990  15.137 -0.6779  0.1268  0.6728
 6496TIP3    H240980   0.451   4.002  15.131 -0.7236  1.4213  3.0445
 6497TIP3   OH240981   4.153   3.400   2.655 -0.3248  0.4491  0.5018
 6497TIP3    H140982   4.207   3.346   2.712 -0.5267 -0.0529  0.2176
 6497TIP3    H240983   4.209   3.475   2.634  0.7818 -0.7072 -0.8597
 6498TIP3   OH240984   5.379   0.755   4.666  0.5368 -0.0495 -0.1819
 6498TIP3    H140985   5.417   0.710   4.590 -1.2909  0.4481 -1.4629
 6498TIP3    H240986   5.436   0.830   4.680  1.2354 -0.4678 -0.6955
 6499TIP3   OH240987   2.455   1.360  13.195  0.3526  0.2489 -0.2945
 6499TIP3    H140988   2.404   1.430  13.155 -1.7724 -0.2981  1.3112
 6499TIP3    H240989   2.486   1.398  13.277  0.6146 -0.1612 -0.2017
 6500TIP3   OH240990   6.751   4.683  12.014  0.1896 -0.1982 -0.1911
 6500TIP3    H140991   6.798   4.725  11.942  0.7045  1.0042  0.8211
 6500TIP3    H240992   6.730   4.595  11.981  1.7486 -0.2055 -1.2350
 6501TIP3   OH240993   1.201   2.388  13.001 -0.3760  0.1068  0.0503
 6501TIP3    H140994   1.241   2.458  13.052  0.0655 -1.0530  1.3637
 6501TIP3    H240995   1.171   2.325  13.067 -2.5554 -0.0359 -0.9759
 6502TIP3   OH240996   0.443   3.918   0.628 -0.3367 -0.0206 -0.2645
 6502TIP3    H140997   0.482   3.986   0.573 -1.5783 -0.3673 -1.6384
 6502TIP3    H240998   0.364   3.892   0.582 -2.3573  0.7780  2.4883
 6503TIP3   OH240999   5.472   1.338   6.260  0.4906  0.0049 -0.5336
 6503TIP3    H141000   5.412   1.370   6.328 -0.3266 -0.9843 -0.7560
 6503TIP3    H241001   5.557   1.331   6.304 -0.0477 -0.7061  0.4330
 6504TIP3   OH241002   5.140   6.150  10.857  0.2186  0.4760  0.6500
 6504TIP3    H141003   5.116   6.108  10.774 -1.1220  1.5699  0.4473
 6504TIP3    H241004   5.233   6.171  10.849  0.3795 -0.4828 -0.0949
 6505TIP3   OH241005   3.173   3.850  12.433 -0.0835  0.4872  0.2875
 6505TIP3    H141006   3.115   3.845  12.509 -0.9061  1.0836 -0.2775
 6505TIP3    H241007   3.139   3.786  12.372  0.3877  0.2276  0.2956
 6506TIP3   OH241008   1.880   2.146  16.134 -0.0819 -0.7280 -0.0581
 6506TIP3    H141009   1.898   2.098  16.053 -0.6949  0.4561 -0.9345
 6506TIP3    H241010   1.955   2.205  16.143 -0.2301 -0.5524  0.0063
 6507TIP3   OH241011   5.716   1.569  16.581 -0.7075  0.5956  0.2243
 6507TIP3    H141012   5.785   1.623  16.543 -0.2041  1.6461  2.4829
 6507TIP3    H241013   5.642   1.629  16.592 -0.9787  0.2091  0.5163
 6508TIP3   OH241014   3.176   4.497  15.683 -0.0233 -0.0812 -0.2117
 6508TIP3    H141015   3.221   4.578  15.707  1.6639 -1.3236  1.1337
 6508TIP3    H241016   3.157   4.506  15.590  1.2371  1.3430 -0.3659
 6509TIP3   OH241017   3.788   2.168  10.362 -0.1058 -0.0832 -0.4912
 6509TIP3    H141018   3.697   2.189  10.381 -0.2606 -0.7145 -0.5270
 6509TIP3    H241019   3.810   2.096  10.421  0.1341 -0.4432 -1.0019
 6510TIP3   OH241020   0.910   0.775  13.077 -0.1332 -0.0539  0.1533
 6510TIP3    H141021   0.864   0.797  13.157  0.2527  1.7603 -0.0837
 6510TIP3    H241022   0.954   0.856  13.051 -0.9533 -0.3063 -2.3533
 6511TIP3   OH241023   5.838   1.159  14.006 -0.3652  0.3423  0.0499
 6511TIP3    H141024   5.900   1.142  13.935 -1.4861  0.4745 -1.0012
 6511TIP3    H241025   5.795   1.241  13.981 -0.8277  0.3538  0.8559
 6512TIP3   OH241026   4.316   3.907  17.171 -0.4986  0.2099 -0.0943
 6512TIP3    H141027   4.246   3.866  17.120 -1.5518 -0.0021  1.4459
 6512TIP3    H241028   4.286   3.902  17.262  2.0490 -0.9687  0.7903
 6513TIP3   OH241029   2.351   2.691   3.346  0.0572 -0.6429  0.0044
 6513TIP3    H141030   2.262   2.716   3.321  0.8007  1.7157 -0.5830
 6513TIP3    H241031   2.401   2.693   3.265  0.5769 -2.5466  0.2270
 6514TIP3   OH241032   2.956   1.344  13.517 -0.0267 -0.5311  0.0562
 6514TIP3    H141033   3.045   1.311  13.507 -0.1995 -1.0928  0.3818
 6514TIP3    H241034   2.920   1.344  13.428  0.0695 -0.9549  0.0169
 6515TIP3   OH241035   6.182   4.821  11.625 -0.0479  0.1512 -0.6777
 6515TIP3    H141036   6.231   4.815  11.707 -1.6692  1.1667  0.3997
 6515TIP3    H241037   6.167   4.729  11.599  0.5490 -0.1751  0.0958
 6516TIP3   OH241038   1.670   4.275  13.961  0.1943  0.4785 -0.0508
 6516TIP3    H141039   1.661   4.296  13.868  2.9515  0.7505 -0.3236
 6516TIP3    H241040   1.610   4.336  14.005 -0.1269  1.2984 -1.5387
 6517TIP3   OH241041   4.456   4.622  10.561  0.6308  0.2284  0.6285
 6517TIP3    H141042   4.498   4.603  10.645  1.1349 -1.3769  0.0439
 6517TIP3    H241043   4.372   4.577  10.566  1.3864 -1.3739 -0.3624
 6518TIP3   OH241044   5.767   4.330   4.143  0.5394 -0.4277  0.2169
 6518TIP3    H141045   5.796   4.238   4.141 -0.1150 -0.6645  1.2797
 6518TIP3    H241046   5.696   4.332   4.207  1.6621  1.1369  1.4950
 6519TIP3   OH241047   3.609   3.410  13.929  0.1145 -0.2146  0.1602
 6519TIP3    H141048   3.596   3.487  13.875  0.1568 -0.6453 -0.4698
 6519TIP3    H241049   3.686   3.430  13.982 -0.3516  0.4913  0.5822
 6520TIP3   OH241050   5.825   1.325  12.998 -0.2986 -0.4421  0.3618
 6520TIP3    H141051   5.901   1.381  13.015 -0.3436 -0.1472 -0.3970
 6520TIP3    H241052   5.815   1.274  13.078  1.3835 -1.2942  0.0703
 6521TIP3   OH241053   4.113   1.580   5.386  0.6370  0.1525 -0.0215
 6521TIP3    H141054   4.142   1.521   5.317 -1.8411  0.1854 -1.1823
 6521TIP3    H241055   4.111   1.525   5.465 -2.1716 -1.5989 -1.1754
 6522TIP3   OH241056   1.540   6.711   3.522  0.1446  0.9692  0.2288
 6522TIP3    H141057   1.458   6.710   3.571  1.8161  0.3030  3.2816
 6522TIP3    H241058   1.552   6.802   3.497 -1.3435  1.1322  0.0259
 6523TIP3   OH241059   5.350   0.081  17.089 -0.4404  0.5549 -0.1634
 6523TIP3    H141060   5.398   0.071  17.007  0.8715  1.7647  0.4112
 6523TIP3    H241061   5.312  -0.006  17.105  1.7741 -0.5607 -0.5463
 6524TIP3   OH241062   3.089   4.835   0.888 -0.3072 -0.2622 -0.6256
 6524TIP3    H141063   3.064   4.778   0.961 -2.5117  0.6872 -0.5557
 6524TIP3    H241064   3.033   4.808   0.816  1.4543 -0.7996 -1.8504
 6525TIP3   OH241065   2.484   3.501  12.886 -0.2115  0.1690  0.8914
 6525TIP3    H141066   2.530   3.425  12.920 -0.6188 -0.3052  0.3917
 6525TIP3    H241067   2.553   3.555  12.848  0.1631  0.3872  1.8481
 6526TIP3   OH241068   6.495   2.963  13.076  0.0788 -0.1734 -0.0544
 6526TIP3    H141069   6.485   3.056  13.056  0.2441  0.1143  1.1552
 6526TIP3    H241070   6.454   2.952  13.162 -2.2109 -1.7272 -1.2321
 6527TIP3   OH241071   6.577   4.530  16.327  0.4959 -0.2505 -0.1973
 6527TIP3    H141072   6.594   4.436  16.338 -0.2448 -0.4992 -1.0372
 6527TIP3    H241073   6.654   4.562  16.279 -0.0021 -0.7930 -1.4215
 6528TIP3   OH241074   2.876   1.832  12.735  0.3371 -0.0649  0.0135
 6528TIP3    H141075   2.958   1.798  12.699  0.1485 -0.6178  0.0891
 6528TIP3    H241076   2.895   1.849  12.827  0.2585 -0.5982  0.1356
 6529TIP3   OH241077   5.596   4.639  11.880  0.5638  0.1797 -0.2783
 6529TIP3    H141078   5.501   4.646  11.870  0.6274 -0.3169 -1.3738
 6529TIP3    H241079   5.631   4.700  11.814  1.0028 -1.0489 -1.2188
 6530TIP3   OH241080   0.904   2.097   5.955  0.0934 -0.4929 -0.5542
 6530TIP3    H141081   0.834   2.063   6.010  1.7461 -0.9597  1.3903
 6530TIP3    H241082   0.885   2.190   5.946 -2.1485 -1.0384 -2.3142
 6531TIP3   OH241083   4.937   6.091   2.215  0.2169  0.2262 -0.5550
 6531TIP3    H141084   5.028   6.071   2.236  0.1485  0.1969 -0.2764
 6531TIP3    H241085   4.896   6.108   2.300 -0.1770 -0.3583 -0.6153
 6532TIP3   OH241086   1.218   6.263   3.917 -0.1306 -0.6439  0.2080
 6532TIP3    H141087   1.170   6.343   3.900  1.4964  0.5807  1.0928
 6532TIP3    H241088   1.152   6.200   3.946 -1.8724 -0.5575 -3.1049
 6533TIP3   OH241089   2.904   2.687   6.334 -0.1325 -0.0853 -0.2276
 6533TIP3    H141090   2.952   2.758   6.376  1.0025 -0.8894 -0.1500
 6533TIP3    H241091   2.864   2.639   6.406  0.4303 -0.4760 -0.1761
 6534TIP3   OH241092   6.532   2.747  15.491 -0.5123  0.5829 -0.1396
 6534TIP3    H141093   6.625   2.726  15.503 -0.6905 -0.3866 -0.3653
 6534TIP3    H241094   6.532   2.837  15.461  0.4961 -0.0048 -2.1088
 6535TIP3   OH241095   6.069   0.672   6.373 -0.5595 -0.3419 -0.3905
 6535TIP3    H141096   6.034   0.594   6.417  0.8848  0.2446  1.9626
 6535TIP3    H241097   5.993   0.728   6.360 -0.9897 -0.1784  2.2633
 6536TIP3   OH241098   0.079   1.413  13.500 -0.2995 -0.0156 -0.2646
 6536TIP3    H141099   0.072   1.442  13.591  0.8460  1.3822 -0.5972
 6536TIP3    H241100   0.064   1.492  13.449 -0.6390 -0.7324 -1.3052
 6537TIP3   OH241101   2.060   0.720   4.632 -0.1277  0.4307 -0.2149
 6537TIP3    H141102   1.979   0.704   4.680 -0.0224 -1.7498 -0.7014
 6537TIP3    H241103   2.040   0.697   4.541  0.9111  0.2763 -0.4158
 6538TIP3   OH241104   1.393   2.157   1.712  0.6257 -0.0705 -0.0208
 6538TIP3    H141105   1.487   2.167   1.698  0.5615  1.2902  0.3986
 6538TIP3    H241106   1.370   2.227   1.772 -0.4152 -1.2736  1.0441
 6539TIP3   OH241107   5.280   4.735  15.065 -0.7216 -0.5557  0.2093
 6539TIP3    H141108   5.343   4.667  15.044 -0.4021 -0.8361  1.8865
 6539TIP3    H241109   5.194   4.694  15.050 -0.5225 -0.8767 -0.0617
 6540TIP3   OH241110   4.459   5.505  13.882  0.1803  0.3210  0.0788
 6540TIP3    H141111   4.512   5.426  13.882  0.0841  0.1813 -2.1248
 6540TIP3    H241112   4.487   5.553  13.960 -0.5731 -2.3420  2.1351
 6541TIP3   OH241113   3.212   2.179  13.755  1.2673 -0.2297 -0.6085
 6541TIP3    H141114   3.234   2.253  13.698  0.3397 -1.4170 -2.6189
 6541TIP3    H241115   3.233   2.101  13.703 -1.6939 -1.3857 -0.2578
 6542TIP3   OH241116   5.437   6.828  10.821 -0.5797  0.2087  0.0267
 6542TIP3    H141117   5.451   6.920  10.843 -0.6587  0.2449 -0.0750
 6542TIP3    H241118   5.405   6.788  10.902  0.0629  0.1359  0.2485
 6543TIP3   OH241119   0.466   1.558  16.127  0.2126  0.3589 -0.2116
 6543TIP3    H141120   0.493   1.476  16.168  0.2141  0.3350 -0.2620
 6543TIP3    H241121   0.397   1.592  16.184  1.5738  1.3353  0.9328
 6544TIP3   OH241122   5.316   3.903  14.016 -0.7711  0.0515 -0.1140
 6544TIP3    H141123   5.403   3.931  13.988 -0.4241  0.8038  1.5433
 6544TIP3    H241124   5.259   3.977  13.995 -0.5444  0.5402  0.9157
 6545TIP3   OH241125   6.135   1.493   3.285 -0.1727 -0.4141 -0.7135
 6545TIP3    H141126   6.042   1.515   3.290 -0.0372 -0.0304  0.4003
 6545TIP3    H241127   6.139   1.399   3.300 -0.2082 -0.0506  2.1470
 6546TIP3   OH241128   2.984   6.039   3.414 -0.3948 -0.0422  0.3855
 6546TIP3    H141129   2.956   5.950   3.436  0.2290 -0.1597  0.7222
 6546TIP3    H241130   3.014   6.034   3.324  1.3033 -0.5915  0.9410
 6547TIP3   OH241131   2.807   0.484   3.696 -0.0207 -0.5107  0.2023
 6547TIP3    H141132   2.748   0.450   3.628  0.3970  0.3504 -0.6170
 6547TIP3    H241133   2.889   0.501   3.650  0.3423 -0.1084  0.9760
 6548TIP3   OH241134   2.648   2.521   0.307 -0.3971 -0.1409  0.0266
 6548TIP3    H141135   2.569   2.541   0.256  0.3998  1.0829 -0.7690
 6548TIP3    H241136   2.616   2.465   0.378 -1.8296 -0.4247 -0.7842
 6549TIP3   OH241137   3.777   1.669  15.247  0.4172  0.3251 -0.1749
 6549TIP3    H141138   3.700   1.676  15.304 -0.1428  0.4082 -0.9214
 6549TIP3    H241139   3.851   1.659  15.307  0.0581  2.1131  0.6241
 6550TIP3   OH241140   5.945   4.621  14.203  0.0139 -0.5502 -0.2575
 6550TIP3    H141141   5.856   4.608  14.235 -0.3652 -1.9840 -1.7378
 6550TIP3    H241142   5.972   4.535  14.171  2.2112 -0.3066  0.7740
 6551TIP3   OH241143   1.003   2.843   0.534 -0.2287 -0.4447 -0.1498
 6551TIP3    H141144   0.950   2.897   0.476  0.0667  0.1418  0.1101
 6551TIP3    H241145   1.092   2.878   0.524 -0.7001  2.4299  3.6179
 6552TIP3   OH241146   2.531   4.694   0.100 -0.6238  0.6052 -0.5632
 6552TIP3    H141147   2.461   4.758   0.096 -0.6171  0.7208  0.9128
 6552TIP3    H241148   2.488   4.611   0.122 -0.2885  0.7475  0.7222
 6553TIP3   OH241149   1.724   3.320   1.214 -0.3263 -0.0430  0.4800
 6553TIP3    H141150   1.693   3.339   1.125  0.5232 -0.7238  0.0187
 6553TIP3    H241151   1.800   3.264   1.201 -0.3432 -0.3663  1.6539
 6554TIP3   OH241152   4.890   6.477   4.735 -0.3058 -0.7317 -0.1933
 6554TIP3    H141153   4.819   6.454   4.794  0.0524  0.8054  0.9076
 6554TIP3    H241154   4.944   6.539   4.785  0.0402  0.6079 -2.1021
 6555TIP3   OH241155   1.842   4.198   4.909 -0.1736  0.1734  0.1870
 6555TIP3    H141156   1.847   4.119   4.963 -0.8205  0.3036  0.4482
 6555TIP3    H241157   1.926   4.242   4.924  0.0800 -0.3278  0.2530
 6556TIP3   OH241158   1.515   1.683   3.296 -0.4440 -0.1901  0.4007
 6556TIP3    H141159   1.582   1.618   3.277  0.1539  0.3971  0.4476
 6556TIP3    H241160   1.483   1.660   3.383 -2.3400 -2.1657 -0.7478
 6557TIP3   OH241161   6.009   5.975   4.053  0.0768 -0.0274  0.5397
 6557TIP3    H141162   5.962   6.052   4.021  0.8933  0.5608  0.7169
 6557TIP3    H241163   5.979   5.964   4.143 -1.5850 -1.1757 -0.0977
 6558TIP3   OH241164   3.298   5.942   4.236  0.2138  0.0977  0.1034
 6558TIP3    H141165   3.370   5.984   4.283  0.6900 -0.2768 -0.2862
 6558TIP3    H241166   3.222   5.998   4.253  0.8665  1.2062 -0.5303
 6559TIP3   OH241167   1.531   2.536  12.418  0.1434  0.1707 -0.3626
 6559TIP3    H141168   1.439   2.513  12.436  0.4083 -0.7637 -0.1723
 6559TIP3    H241169   1.539   2.626  12.452 -0.6749  0.2398 -0.3110
 6560TIP3   OH241170   4.490   2.184  14.089 -0.5959  0.4205 -0.5738
 6560TIP3    H141171   4.516   2.274  14.068 -0.4304  0.2401 -1.1576
 6560TIP3    H241172   4.504   2.177  14.183  2.3606  0.0672 -0.9333
 6561TIP3   OH241173   4.335   1.626  12.864 -0.2114  0.3753  0.0871
 6561TIP3    H141174   4.415   1.647  12.912 -0.6617  0.5977  0.7498
 6561TIP3    H241175   4.364   1.616  12.773  1.0167 -1.9792  0.6505
 6562TIP3   OH241176   3.885   5.400  12.017  0.1891 -0.4715  0.2308
 6562TIP3    H141177   3.875   5.435  12.105 -2.0769 -0.9529  0.2070
 6562TIP3    H241178   3.927   5.471  11.968  0.8145  0.0664  1.4903
 6563TIP3   OH241179   0.860   0.851   2.302 -0.2838 -0.1146  0.2673
 6563TIP3    H141180   0.871   0.790   2.375  0.0793 -0.6215 -0.2090
 6563TIP3    H241181   0.841   0.935   2.344  0.9032 -0.1798  0.9933
 6564TIP3   OH241182   0.559   4.448  11.576 -0.3678 -0.1094 -1.1261
 6564TIP3    H141183   0.634   4.398  11.608 -0.6924  0.2800  0.3425
 6564TIP3    H241184   0.506   4.464  11.654 -0.3776  2.3681 -1.5389
 6565TIP3   OH241185   6.038   5.830   1.902 -0.6670  0.2968  0.0169
 6565TIP3    H141186   6.123   5.843   1.945 -1.6283  0.7556  1.9286
 6565TIP3    H241187   6.016   5.917   1.867  0.3060 -0.1727 -1.8470
 6566TIP3   OH241188   6.093   0.283  12.941 -0.2653 -0.0399  1.0204
 6566TIP3    H141189   6.089   0.321  13.028 -0.9553  2.8606 -0.1467
 6566TIP3    H241190   6.080   0.357  12.882  1.4174 -1.6396 -1.6070
 6567TIP3   OH241191   0.867   2.984   0.334 -0.4244  0.2303 -0.0454
 6567TIP3    H141192   0.918   3.040   0.275  0.1939 -0.7727 -0.4981
 6567TIP3    H241193   0.822   2.923   0.276  0.9851 -1.4317  0.5195
 6568TIP3   OH241194   4.241   4.555  16.919 -0.3595 -0.4242  0.3906
 6568TIP3    H141195   4.323   4.583  16.960 -1.4338  1.0506  1.6933
 6568TIP3    H241196   4.267   4.491  16.853  1.6133 -1.9446  2.4781
 6569TIP3   OH241197   0.802   1.783  13.583 -0.6818 -0.1016 -1.0505
 6569TIP3    H141198   0.735   1.742  13.637 -1.9701  0.5953 -2.0604
 6569TIP3    H241199   0.823   1.864  13.628  1.0285 -1.2416  0.3414
 6570TIP3   OH241200   0.411   6.239  14.834 -0.1838 -0.6526 -0.5183
 6570TIP3    H141201   0.470   6.314  14.834 -0.6244 -0.2958 -0.0774
 6570TIP3    H241202   0.336   6.267  14.887 -1.7232 -0.3255 -2.7140
 6571TIP3   OH241203   1.722   4.280  14.878 -0.4277  0.2211 -0.0489
 6571TIP3    H141204   1.748   4.229  14.802  1.2606 -0.9483  1.2433
 6571TIP3    H241205   1.717   4.371  14.846 -0.5917 -0.3376 -1.7086
 6572TIP3   OH241206   0.268   1.458   0.320 -0.4439  0.4628 -0.4480
 6572TIP3    H141207   0.297   1.389   0.259  0.0765  0.6980 -0.4673
 6572TIP3    H241208   0.255   1.535   0.264  0.3796  0.7773 -0.2089
 6573TIP3   OH241209   6.475   2.429   0.102 -0.5850 -0.2455  0.4077
 6573TIP3    H141210   6.484   2.349   0.050  0.0640  0.3701 -0.4654
 6573TIP3    H241211   6.551   2.428   0.160 -1.6594 -1.2705  1.8795
 6574TIP3   OH241212   5.993   6.226  12.243  0.3605  0.1069  0.2297
 6574TIP3    H141213   6.034   6.301  12.286  0.6057 -0.0449  0.2587
 6574TIP3    H241214   5.917   6.206  12.298 -0.8412  1.5509 -0.8142
 6575TIP3   OH241215   2.345   5.784  11.107  0.5670 -0.5096  0.6122
 6575TIP3    H141216   2.348   5.688  11.106  3.4333 -0.5832 -2.2111
 6575TIP3    H241217   2.436   5.810  11.119  0.1695  1.7863 -0.7848
 6576TIP3   OH241218   6.684   1.053  11.387  0.4161 -0.2822  0.6790
 6576TIP3    H141219   6.757   1.005  11.426  1.5321  0.3606 -0.5133
 6576TIP3    H241220   6.719   1.142  11.374 -0.8503  0.2563  0.7828
 6577TIP3   OH241221   3.088   6.611   3.740 -0.1127  0.5609 -0.4519
 6577TIP3    H141222   3.142   6.675   3.786 -0.3180  0.2458  0.2385
 6577TIP3    H241223   3.151   6.558   3.691  0.2011  0.2776  0.2441
 6578TIP3   OH241224   1.079   3.858   4.616 -0.4751 -0.3662 -0.1685
 6578TIP3    H141225   1.091   3.911   4.696  1.2257 -1.5338  0.4201
 6578TIP3    H241226   1.132   3.902   4.550  0.1040 -0.7394  0.0388
 6579TIP3   OH241227   4.816   1.081  11.613 -0.3333  0.3224 -0.1546
 6579TIP3    H141228   4.734   1.103  11.569 -1.5333 -1.5823  0.9783
 6579TIP3    H241229   4.793   1.075  11.706  1.3834  0.9213  0.3557
 6580TIP3   OH241230   4.914   4.854  16.957  0.3434  0.1658 -0.1539
 6580TIP3    H141231   4.871   4.846  16.871  1.3346 -0.5104 -0.6126
 6580TIP3    H241232   4.848   4.824  17.020 -0.4765  0.8801 -0.6452
 6581TIP3   OH241233   0.569   3.002  14.102 -0.2773  0.1584  0.0024
 6581TIP3    H141234   0.662   3.009  14.124 -0.9010 -0.3653  3.3329
 6581TIP3    H241235   0.524   3.013  14.186 -3.2940  1.0898 -1.5920
 6582TIP3   OH241236   4.229   4.970   3.957  0.3503  0.5741  0.0605
 6582TIP3    H141237   4.218   4.985   3.863  1.4503 -2.2974 -0.6252
 6582TIP3    H241238   4.323   4.964   3.970  0.1749 -0.4394  1.0682
 6583TIP3   OH241239   0.234   4.370   3.891  0.2088 -0.1391 -0.2166
 6583TIP3    H141240   0.192   4.310   3.829 -0.3037 -0.0847  0.0746
 6583TIP3    H241241   0.303   4.318   3.931 -0.6193 -0.7400  0.4770
 6584TIP3   OH241242   3.307   6.518  11.446  0.0101 -0.7480  0.0652
 6584TIP3    H141243   3.271   6.504  11.358  0.3508  0.5487 -0.2957
 6584TIP3    H241244   3.366   6.444  11.459  1.3462 -0.0360 -1.5518
 6585TIP3   OH241245   1.768   2.683  13.842 -0.2736  0.2996  0.0092
 6585TIP3    H141246   1.711   2.612  13.814  0.7910 -0.7823  0.4641
 6585TIP3    H241247   1.745   2.698  13.933 -0.8513  0.9148 -0.2286
 6586TIP3   OH241248   0.927   2.948  14.897 -0.3785 -0.4376  0.0976
 6586TIP3    H141249   0.935   2.867  14.947 -1.9248 -1.0566 -0.6047
 6586TIP3    H241250   0.863   2.928  14.829 -0.1932  1.1438 -0.5817
 6587TIP3   OH241251   5.134   3.985   3.202  0.8687 -0.6620 -0.2235
 6587TIP3    H141252   5.109   3.962   3.113 -0.8094 -1.4452  0.3985
 6587TIP3    H241253   5.094   4.071   3.216  1.6083 -0.2854 -0.4063
 6588TIP3   OH241254   1.107   3.575   3.732  0.2514 -0.2187  0.4123
 6588TIP3    H141255   1.052   3.611   3.801  2.6265  1.3084  1.6656
 6588TIP3    H241256   1.096   3.636   3.658  1.6700  1.2985  1.3607
 6589TIP3   OH241257   0.435   5.926   2.585  0.3871  0.2047 -0.3524
 6589TIP3    H141258   0.355   5.948   2.538 -0.9720 -1.6079  0.9984
 6589TIP3    H241259   0.504   5.930   2.519 -0.5371  3.0396 -1.2963
 6590TIP3   OH241260   3.119   2.562  14.978 -0.2067  0.2248 -0.0212
 6590TIP3    H141261   3.190   2.622  15.001 -0.1288 -0.1449  0.7303
 6590TIP3    H241262   3.039   2.614  14.992 -0.1597  0.0383  1.0446
 6591TIP3   OH241263   3.736   1.508   1.499  0.2712  0.1240 -0.5556
 6591TIP3    H141264   3.812   1.530   1.445  1.4430 -0.1999  0.9134
 6591TIP3    H241265   3.748   1.416   1.523 -0.2479  0.2381  0.2003
 6592TIP3   OH241266   5.139   1.788  12.356 -0.4764 -0.2021  0.2059
 6592TIP3    H141267   5.055   1.760  12.321 -0.1707  1.5470 -2.2367
 6592TIP3    H241268   5.203   1.756  12.293  0.5739 -0.3648  1.3171
 6593TIP3   OH241269   6.714   3.412  14.775  0.0506 -0.6867  0.4530
 6593TIP3    H141270   6.772   3.486  14.788  0.0033 -0.8659  1.8337
 6593TIP3    H241271   6.666   3.432  14.694  0.8267  0.2435  0.2174
 6594TIP3   OH241272   5.624   2.856   1.695  0.4246  0.5182  0.4981
 6594TIP3    H141273   5.634   2.805   1.614  1.0011  1.5733 -0.1078
 6594TIP3    H241274   5.708   2.899   1.707  0.5314 -0.0471  1.9821
 6595TIP3   OH241275   2.595   5.723   3.864 -0.0949  0.0160  0.1372
 6595TIP3    H141276   2.677   5.740   3.911  0.5198  0.0795 -0.9357
 6595TIP3    H241277   2.538   5.682   3.929  0.2790  1.2567  1.2955
 6596TIP3   OH241278   2.989   0.324  13.636 -0.0804  0.1138  0.1431
 6596TIP3    H141279   3.012   0.238  13.600  0.5282 -0.3924  1.6734
 6596TIP3    H241280   3.068   0.377  13.625 -0.1923  0.2355 -0.0783
 6597TIP3   OH241281   2.036   4.486   4.386  0.5224  0.0916 -0.1783
 6597TIP3    H141282   2.106   4.421   4.390 -0.4698 -0.9597  1.4300
 6597TIP3    H241283   1.962   4.440   4.347  0.0653  0.5204  0.1616
 6598TIP3   OH241284   5.572   1.673   2.202 -0.2846 -0.1230 -0.3518
 6598TIP3    H141285   5.632   1.640   2.269 -0.9302 -1.4925 -0.4089
 6598TIP3    H241286   5.575   1.606   2.133 -1.6082 -0.0395 -0.5069
 6599TIP3   OH241287   1.493   2.254   2.021 -0.3885  0.0106 -0.2428
 6599TIP3    H141288   1.410   2.238   2.066 -0.5816  0.5639 -0.3972
 6599TIP3    H241289   1.473   2.321   1.956  0.7150  1.9608  1.3332
 6600TIP3   OH241290   6.670   5.330  12.093 -0.2317 -0.6230  0.2448
 6600TIP3    H141291   6.680   5.345  12.187  0.4145 -0.3928  0.1406
 6600TIP3    H241292   6.685   5.237  12.081  0.9643 -0.4429  0.2108
 6601TIP3   OH241293   2.035   0.550   5.891  0.0914  0.5832 -0.7401
 6601TIP3    H141294   2.094   0.521   5.960 -0.5980 -1.7467 -1.0461
 6601TIP3    H241295   1.948   0.549   5.932 -0.0926  1.0888 -1.1057
 6602TIP3   OH241296   0.847   4.184   0.463 -0.1727  0.0632 -0.4760
 6602TIP3    H141297   0.752   4.187   0.472 -0.1039  0.2030  0.2051
 6602TIP3    H241298   0.879   4.167   0.551  0.3609 -1.6526 -0.9492
 6603TIP3   OH241299   4.295   5.515  12.379  0.3573  0.1717  0.1191
 6603TIP3    H141300   4.337   5.430  12.382 -0.1836 -0.1210 -0.3358
 6603TIP3    H241301   4.347   5.566  12.317 -0.2530 -0.3683 -0.8682
 6604TIP3   OH241302   5.317   4.358  14.506 -0.2618 -0.5937  0.0159
 6604TIP3    H141303   5.234   4.354  14.554 -1.0170 -0.1368 -1.1979
 6604TIP3    H241304   5.294   4.333  14.417  0.3922  1.8816 -0.9352
 6605TIP3   OH241305   2.044   4.129   3.167  0.4684 -0.2158  0.3425
 6605TIP3    H141306   2.063   4.187   3.093 -1.3778 -0.7252 -0.5954
 6605TIP3    H241307   2.093   4.050   3.148 -2.8391 -1.8818 -2.5391
 6606TIP3   OH241308   0.525   3.432  15.816  0.0431  0.0039 -0.0568
 6606TIP3    H141309   0.517   3.502  15.880 -1.8606 -0.5987  0.4083
 6606TIP3    H241310   0.614   3.399  15.829  0.7825  1.8942  0.1145
 6607TIP3   OH241311   6.079   1.104  11.869  0.3993 -0.1074 -0.0515
 6607TIP3    H141312   6.141   1.176  11.858  0.9384 -0.8632 -2.7028
 6607TIP3    H241313   6.101   1.043  11.799 -2.3208 -1.1841 -0.0772
 6608TIP3   OH241314   1.071   2.950  15.255 -0.4186 -0.3035 -0.0644
 6608TIP3    H141315   1.092   2.859  15.273 -1.7586 -0.3086  1.7200
 6608TIP3    H241316   0.976   2.950  15.240 -0.5451  0.8697  0.6049
 6609TIP3   OH241317   2.360   4.891   0.171  0.0283 -0.1006 -0.8018
 6609TIP3    H141318   2.315   4.859   0.249  0.0053 -1.9790 -1.5591
 6609TIP3    H241319   2.306   4.965   0.141 -2.4537 -2.0871 -1.5246
 6610TIP3   OH241320   3.757   3.774   1.744  0.2395  0.2270 -0.1260
 6610TIP3    H141321   3.679   3.789   1.797 -0.3639  1.6264 -1.3401
 6610TIP3    H241322   3.765   3.679   1.739 -1.9619  0.0192 -0.7567
 6611TIP3   OH241323   1.692   6.476   2.293  0.6836 -0.2078 -0.8611
 6611TIP3    H141324   1.658   6.439   2.375  0.9216 -3.2077 -1.9923
 6611TIP3    H241325   1.627   6.452   2.227  1.8363 -0.3352 -1.9839
 6612TIP3   OH241326   3.063   2.444  16.646  0.3595 -0.2755 -0.3449
 6612TIP3    H141327   3.128   2.494  16.695 -1.4882 -0.0154  2.0331
 6612TIP3    H241328   3.018   2.509  16.592  1.2225 -0.2562 -1.0607
 6613TIP3   OH241329   5.040   6.475   5.309 -0.2100  0.0398  0.0415
 6613TIP3    H141330   5.095   6.399   5.290 -0.2623 -0.0485  0.2438
 6613TIP3    H241331   4.952   6.447   5.283 -0.0413  0.4578 -1.0351
 6614TIP3   OH241332   6.683   2.719  14.882 -0.4346 -0.1156 -0.1750
 6614TIP3    H141333   6.719   2.739  14.969 -2.0633 -0.0604  0.5210
 6614TIP3    H241334   6.759   2.693  14.830  0.7136  0.7752  0.9875
 6615TIP3   OH241335   4.874   5.457  17.194  0.2864  0.1169 -0.7892
 6615TIP3    H141336   4.822   5.391  17.149 -0.1956 -0.8200  1.0436
 6615TIP3    H241337   4.958   5.414  17.210 -0.1953 -0.2611  0.8395
 6616TIP3   OH241338   4.043   1.592  14.726  0.1441 -0.6144 -0.3177
 6616TIP3    H141339   4.114   1.546  14.771  0.2427  0.3858  0.6053
 6616TIP3    H241340   4.073   1.683  14.722 -0.1768 -0.5540 -1.8198
 6617TIP3   OH241341   2.487   4.266  11.609  0.0103 -0.0222 -0.4763
 6617TIP3    H141342   2.425   4.278  11.681  0.4742 -0.6640  0.0424
 6617TIP3    H241343   2.510   4.355  11.582  0.6458  0.2568  0.8991
 6618TIP3   OH241344   3.337   3.940  11.985 -0.1357  0.0029  0.2374
 6618TIP3    H141345   3.289   3.973  12.061 -1.1163 -2.1301  0.6094
 6618TIP3    H241346   3.333   4.011  11.921  0.8224  1.9071  2.1632
 6619TIP3   OH241347   4.958   5.285   1.310  0.2018  0.1122  0.0392
 6619TIP3    H141348   4.930   5.351   1.373 -1.7077 -1.0638  0.5135
 6619TIP3    H241349   4.914   5.309   1.229 -0.1361 -0.3124  0.0930
 6620TIP3   OH241350   1.948   2.869  17.158 -0.3190  0.3965 -0.1551
 6620TIP3    H141351   1.904   2.954  17.161  2.6736  2.0375  1.0110
 6620TIP3    H241352   1.889   2.811  17.208 -1.4742  2.2831  0.8121
 6621TIP3   OH241353   5.942   4.310   5.421 -0.1213  0.3974 -0.0528
 6621TIP3    H141354   5.884   4.234   5.425 -0.5162  0.7047  0.0923
 6621TIP3    H241355   6.025   4.278   5.457 -0.8040  0.5191  1.7103
 6622TIP3   OH241356   6.203   5.740  15.351  0.1596  0.2753  0.1478
 6622TIP3    H141357   6.296   5.723  15.341  0.1772  0.0185  0.7142
 6622TIP3    H241358   6.176   5.780  15.268  0.5225 -0.7492 -0.4765
 6623TIP3   OH241359   6.216   6.205   4.226  0.3269 -0.6124  0.0656
 6623TIP3    H141360   6.149   6.151   4.268  0.1385  0.6853  1.5268
 6623TIP3    H241361   6.169   6.249   4.154 -0.0782 -0.6629  0.2954
 6624TIP3   OH241362   3.114   5.584  10.968 -0.0146  0.4115  0.1005
 6624TIP3    H141363   3.190   5.584  10.910 -0.4858 -1.4608 -0.5887
 6624TIP3    H241364   3.042   5.617  10.914 -1.1120 -3.9824 -1.4918
 6625TIP3   OH241365   0.668   2.514   3.486  0.7447 -0.0065  0.0176
 6625TIP3    H141366   0.686   2.594   3.436 -1.5799  1.2740  1.0622
 6625TIP3    H241367   0.665   2.543   3.577 -1.0575 -1.0523  0.3416
 6626TIP3   OH241368   5.049   6.334  12.530  0.1400 -0.1586  0.1124
 6626TIP3    H141369   5.104   6.260  12.555  0.9321  0.7741  1.2274
 6626TIP3    H241370   4.974   6.294  12.485  0.8743 -1.5753  0.0980
 6627TIP3   OH241371   2.155   5.206  15.294 -0.5055  0.0077  0.6158
 6627TIP3    H141372   2.128   5.280  15.240  2.3958 -0.1512 -1.2615
 6627TIP3    H241373   2.199   5.245  15.369  0.0078  0.2208  0.2077
 6628TIP3   OH241374   2.665   2.713  11.355  0.0568  0.6245 -0.2420
 6628TIP3    H141375   2.601   2.648  11.385 -0.3113  0.2733 -1.6896
 6628TIP3    H241376   2.639   2.795  11.397  0.8716 -0.2328  2.0818
 6629TIP3   OH241377   6.030   4.582  13.317  0.4187 -0.0037 -0.3688
 6629TIP3    H141378   5.972   4.638  13.369  1.9473  1.1711  0.1596
 6629TIP3    H241379   6.068   4.521  13.380 -1.0453 -1.5562 -0.9041
 6630TIP3   OH241380   0.475   4.006  11.315 -0.4024 -0.2556  0.0108
 6630TIP3    H141381   0.563   4.010  11.279 -0.0506 -0.0331  0.8600
 6630TIP3    H241382   0.452   3.913  11.312  0.6415 -0.6023  1.5358
 6631TIP3   OH241383   0.513   1.004   3.952  0.2492  0.3205  0.0636
 6631TIP3    H141384   0.561   0.998   4.035  1.3815  2.0779 -0.4111
 6631TIP3    H241385   0.481   1.094   3.949 -0.4776  0.0472 -1.0575
 6632TIP3   OH241386   3.972   6.646  15.987  0.8922  0.2102  0.1926
 6632TIP3    H141387   3.960   6.552  15.977 -0.4541  0.4794 -1.0332
 6632TIP3    H241388   3.902   6.673  16.046  0.4525  0.6111 -0.4935
 6633TIP3   OH241389   3.791   1.882   0.332 -0.2245 -0.2614 -0.1417
 6633TIP3    H141390   3.799   1.962   0.385  0.6959  0.4994 -1.3623
 6633TIP3    H241391   3.806   1.912   0.243  0.3425 -1.8418 -0.5981
 6634TIP3   OH241392   1.826   2.098   3.343 -0.1060 -0.2977 -0.4497
 6634TIP3    H141393   1.756   2.124   3.403  1.0943 -1.6966  1.6835
 6634TIP3    H241394   1.852   2.011   3.373  2.7164  0.2694 -1.0134
 6635TIP3   OH241395   1.441   6.499   0.331 -0.1470  0.1202 -0.0382
 6635TIP3    H141396   1.411   6.422   0.379 -2.5829  1.2618  0.4741
 6635TIP3    H241397   1.457   6.468   0.243 -3.0369 -0.7322 -0.3855
 6636TIP3   OH241398   0.209   1.170  16.523 -0.5784  0.3176  0.2833
 6636TIP3    H141399   0.243   1.194  16.610  0.0053  0.4519  0.0238
 6636TIP3    H241400   0.204   1.253  16.476 -0.9340  0.2488  0.2014
 6637TIP3   OH241401   2.672   1.842  13.152 -0.2156  0.3274  0.1923
 6637TIP3    H141402   2.727   1.860  13.076 -0.0786 -1.7506 -0.2566
 6637TIP3    H241403   2.703   1.757  13.184 -1.6479  0.2011  1.3286
 6638TIP3   OH241404   4.623   4.513   5.034 -0.1039  1.1095 -0.4839
 6638TIP3    H141405   4.694   4.489   4.973 -0.4050 -1.2633 -0.0026
 6638TIP3    H241406   4.543   4.499   4.984 -0.3090  1.2030 -0.1833
 6639TIP3   OH241407   6.661   1.878  15.920  0.2750 -0.5928  0.5052
 6639TIP3    H141408   6.697   1.920  15.842 -1.1769  1.4486  0.8574
 6639TIP3    H241409   6.642   1.951  15.979  0.4741 -2.0132  2.4109
 6640TIP3   OH241410   1.907   4.968  14.836 -0.7036  0.1798  0.4989
 6640TIP3    H141411   1.890   4.891  14.782  0.3445  0.8026 -0.7681
 6640TIP3    H241412   1.903   5.042  14.775 -0.3484  1.0069  1.4396
 6641TIP3   OH241413   3.464   1.472   4.062  0.4276 -0.3913 -0.2839
 6641TIP3    H141414   3.404   1.520   4.005 -0.7461 -0.9841  0.4074
 6641TIP3    H241415   3.462   1.519   4.145  0.1486 -0.9746  0.0464
 6642TIP3   OH241416   3.176   2.485   0.600  0.7002  0.5091 -0.0229
 6642TIP3    H141417   3.212   2.547   0.664 -0.6011  1.1919  0.0937
 6642TIP3    H241418   3.104   2.442   0.647  0.8629 -0.2551 -0.4712
 6643TIP3   OH241419   0.035   4.199  15.074  0.1402 -0.0256 -0.0024
 6643TIP3    H141420   0.007   4.112  15.048  2.0174 -0.4940 -0.6362
 6643TIP3    H241421   0.011   4.206  15.167 -2.8239  0.0393 -0.6729
 6644TIP3   OH241422   6.622   5.772   0.256 -0.4111  0.0442 -0.2141
 6644TIP3    H141423   6.649   5.852   0.211 -1.1271  0.5443  0.2176
 6644TIP3    H241424   6.542   5.746   0.210 -0.0246 -0.5919 -0.5381
 6645TIP3   OH241425   4.227   2.460  16.046 -0.1827 -0.4391 -0.7096
 6645TIP3    H141426   4.190   2.378  16.014 -0.7372 -0.2768 -0.5118
 6645TIP3    H241427   4.242   2.512  15.966  0.5861 -0.8941 -0.8666
 6646TIP3   OH241428   4.377   5.041  14.441  0.6183 -0.5480  0.2466
 6646TIP3    H141429   4.420   5.104  14.499  0.3350 -1.5135  1.5433
 6646TIP3    H241430   4.441   5.027  14.370  1.2837  0.0839  0.7008
 6647TIP3   OH241431   0.669   5.303   3.664  0.1158 -0.0001  0.2315
 6647TIP3    H141432   0.727   5.379   3.666  0.3905 -0.1890 -0.2022
 6647TIP3    H241433   0.727   5.229   3.646 -0.3122 -0.1247 -0.7184
 6648TIP3   OH241434   4.193   4.709  12.472 -0.0092  0.1591  0.8130
 6648TIP3    H141435   4.178   4.659  12.553 -3.7989  0.3549  0.3938
 6648TIP3    H241436   4.273   4.671  12.435 -0.3297 -2.6096  2.6776
 6649TIP3   OH241437   3.527   3.944   1.506  0.4800  0.3126 -0.3809
 6649TIP3    H141438   3.561   3.860   1.536  1.2241  0.7917  0.1453
 6649TIP3    H241439   3.470   3.922   1.432  0.4833 -0.6683 -0.1020
 6650TIP3   OH241440   3.160   3.006   5.093 -0.5483 -0.6262  0.1331
 6650TIP3    H141441   3.231   3.065   5.117 -0.0296 -0.5479 -1.4810
 6650TIP3    H241442   3.149   2.949   5.169  3.0901 -2.4016 -0.4518
 6651TIP3   OH241443   6.721   3.169  16.049  0.2994 -0.0317 -0.0484
 6651TIP3    H141444   6.789   3.208  15.993  0.1823  0.4228  0.1202
 6651TIP3    H241445   6.742   3.076  16.051  1.6785  0.2636  1.0058
 6652TIP3   OH241446   0.539   2.979   1.564  0.7010  0.4629  0.5948
 6652TIP3    H141447   0.505   3.030   1.490 -0.8621  0.8356  1.5244
 6652TIP3    H241448   0.552   3.044   1.633  0.6082 -0.1150  1.1558
 6653TIP3   OH241449   2.494   4.228   3.182  0.3439  0.3440 -0.0031
 6653TIP3    H141450   2.415   4.210   3.232 -0.3139 -0.3902 -1.2628
 6653TIP3    H241451   2.540   4.295   3.234 -1.3556  1.2017  0.4846
 6654TIP3   OH241452   2.372   5.914  16.399  0.1948  0.5838 -0.3082
 6654TIP3    H141453   2.299   5.854  16.418 -0.2666  0.6333 -1.7797
 6654TIP3    H241454   2.449   5.870  16.435 -0.2679 -0.4745 -0.5469
 6655TIP3   OH241455   1.447   4.832  13.516 -0.2856  0.5434  0.1994
 6655TIP3    H141456   1.381   4.776  13.557  1.3598 -1.1918  0.5935
 6655TIP3    H241457   1.521   4.774  13.499  1.3446  2.5203  0.2116
 6656TIP3   OH241458   5.063   1.547   6.357 -0.0473 -0.1558 -0.0461
 6656TIP3    H141459   5.074   1.624   6.413 -1.3612  0.3460 -0.4400
 6656TIP3    H241460   5.122   1.481   6.395 -1.4226 -0.0974  2.4444
 6657TIP3   OH241461   2.973   2.555   3.077 -0.0804 -0.3712 -0.5512
 6657TIP3    H141462   2.931   2.640   3.061 -0.7175 -0.6450 -0.3800
 6657TIP3    H241463   3.065   2.576   3.091  0.2633  0.0458 -2.9485
 6658TIP3   OH241464   5.711   0.657  12.716  0.5333  0.0874  0.3349
 6658TIP3    H141465   5.788   0.711  12.730  2.0684 -2.2418  1.5506
 6658TIP3    H241466   5.692   0.619  12.802 -0.1728 -1.6348 -0.5200
 6659TIP3   OH241467   5.370   1.112   1.791  0.2808 -0.2564 -0.4836
 6659TIP3    H141468   5.385   1.128   1.884 -1.5789  0.5787 -0.2838
 6659TIP3    H241469   5.457   1.094   1.755  1.1828  0.5678  1.1850
 6660TIP3   OH241470   3.264   4.071  11.272 -0.4920  0.0047  0.0730
 6660TIP3    H141471   3.283   4.158  11.309 -0.5387  0.1135 -0.1591
 6660TIP3    H241472   3.190   4.086  11.214 -0.0629 -0.0674 -0.4956
 6661TIP3   OH241473   3.146   2.963   0.772 -0.3592  0.2690 -0.6076
 6661TIP3    H141474   3.241   2.952   0.781 -0.5013  0.2249  1.1314
 6661TIP3    H241475   3.109   2.879   0.799 -1.0552  1.8023  4.0076
 6662TIP3   OH241476   3.850   5.523   4.998  0.0339  0.0622  0.4994
 6662TIP3    H141477   3.918   5.462   5.025 -1.4482 -1.6672  0.5035
 6662TIP3    H241478   3.784   5.469   4.955 -0.9119  1.8011 -0.3871
 6663TIP3   OH241479   1.772   1.223   4.655  0.3700  0.5400  0.0917
 6663TIP3    H141480   1.722   1.267   4.724 -1.6658 -0.1824 -0.8570
 6663TIP3    H241481   1.713   1.156   4.621  2.4043 -1.1609 -0.3333
 6664TIP3   OH241482   0.320   4.757  14.828 -0.3477 -0.4384  0.1480
 6664TIP3    H141483   0.363   4.806  14.899  2.3778 -1.8927 -0.3778
 6664TIP3    H241484   0.309   4.669  14.863 -1.1225 -0.5977 -0.4627
 6665TIP3   OH241485   4.609   5.946  15.462 -0.0875  0.5112  0.0793
 6665TIP3    H141486   4.660   6.005  15.517  0.6493 -0.1365  0.0989
 6665TIP3    H241487   4.550   6.004  15.414  1.1390  1.3400 -0.4646
 6666TIP3   OH241488   5.172   1.770   3.909  0.2129 -0.4624  0.0699
 6666TIP3    H141489   5.241   1.787   3.973 -0.3587  0.6862  0.4103
 6666TIP3    H241490   5.104   1.833   3.930 -0.0722 -0.1721 -1.5620
 6667TIP3   OH241491   2.727   2.187   4.658  0.4286 -0.0140  0.3896
 6667TIP3    H141492   2.686   2.163   4.575  0.8225 -1.6240  0.6258
 6667TIP3    H241493   2.693   2.123   4.721  1.8715 -0.2479  0.9770
 6668TIP3   OH241494   3.216   5.428  16.737  0.8107  0.6027  0.1739
 6668TIP3    H141495   3.209   5.367  16.663  0.5150  1.0940 -0.2156
 6668TIP3    H241496   3.264   5.503  16.701  2.5693 -0.0577  1.0837
 6669TIP3   OH241497   5.018   2.076  17.038 -0.0280  0.1139  0.1905
 6669TIP3    H141498   4.968   2.158  17.040  0.8033  0.6571 -0.7211
 6669TIP3    H241499   5.103   2.100  17.001  0.3689 -1.0912  0.2724
 6670TIP3   OH241500   3.605   6.477  14.406 -0.0905 -0.0836  0.2840
 6670TIP3    H141501   3.631   6.398  14.359 -1.0109 -0.9770  1.1942
 6670TIP3    H241502   3.686   6.512  14.442  0.2251 -1.1887  0.6909
 6671TIP3   OH241503   3.462   3.740   5.461  0.2382 -0.2496 -0.4522
 6671TIP3    H141504   3.420   3.656   5.479  2.3445 -0.8361  2.4526
 6671TIP3    H241505   3.451   3.790   5.542  4.2596 -0.1767  0.2413
 6672TIP3   OH241506   1.912   1.804  16.107  0.3335  0.4018 -0.2695
 6672TIP3    H141507   2.001   1.839  16.102 -0.5141  2.7873  0.0807
 6672TIP3    H241508   1.924   1.709  16.107  2.8581  0.6451 -0.3940
 6673TIP3   OH241509   1.858   1.648   6.470 -0.2586 -0.8551  0.0290
 6673TIP3    H141510   1.806   1.697   6.533  0.2325 -0.0819 -0.1429
 6673TIP3    H241511   1.829   1.680   6.384  1.5419  0.7846 -0.0540
 6674TIP3   OH241512   6.037   4.560   5.328 -0.1200  0.7980 -0.1290
 6674TIP3    H141513   5.973   4.615   5.283 -0.4182 -0.0971 -0.8189
 6674TIP3    H241514   5.986   4.486   5.361  0.1881  1.1676  1.2332
 6675TIP3   OH241515   1.740   5.828   5.992  0.5441  0.1932 -0.2443
 6675TIP3    H141516   1.723   5.920   6.013 -0.3431  0.1432 -0.6846
 6675TIP3    H241517   1.726   5.781   6.074 -1.0825  0.2152 -0.4710
 6676TIP3   OH241518   3.712   4.072  11.811  0.0507 -0.1465 -0.3708
 6676TIP3    H141519   3.701   3.982  11.843  2.5242 -0.4622 -0.1986
 6676TIP3    H241520   3.795   4.071  11.765 -0.5371  1.7629 -1.6020
 6677TIP3   OH241521   3.803   2.009   2.251  0.5113 -0.1342 -0.4202
 6677TIP3    H141522   3.870   2.072   2.279  0.7787 -1.5696  2.5391
 6677TIP3    H241523   3.849   1.925   2.246 -0.7494 -0.9149  0.3859
 6678TIP3   OH241524   2.288   0.523  11.622 -0.8775 -0.2131  0.6083
 6678TIP3    H141525   2.367   0.548  11.670 -0.9831  1.6798 -0.1225
 6678TIP3    H241526   2.301   0.561  11.535 -2.7689  0.4657  0.5930
 6679TIP3   OH241527   5.140   5.199   2.074 -0.4491 -1.0571  0.1227
 6679TIP3    H141528   5.233   5.221   2.078 -0.2714 -1.8252  3.2364
 6679TIP3    H241529   5.124   5.176   1.983  2.0968  0.3025 -0.7632
 6680TIP3   OH241530   0.029   5.638  16.931 -0.3071 -0.0344  0.4772
 6680TIP3    H141531   0.000   5.563  16.983 -1.3427 -0.1234 -0.1946
 6680TIP3    H241532  -0.024   5.711  16.964 -1.9005 -0.3321 -1.2270
 6681TIP3   OH241533   5.464   2.039   3.367 -0.1229 -0.7935  0.4512
 6681TIP3    H141534   5.417   2.033   3.450  0.8721 -0.4862  1.0565
 6681TIP3    H241535   5.422   2.112   3.321 -1.5920 -1.8535  0.0610
 6682TIP3   OH241536   1.084   6.009  16.644  0.1945 -0.8115 -0.5741
 6682TIP3    H141537   0.991   6.006  16.620 -0.1536 -2.0630  0.7651
 6682TIP3    H241538   1.096   5.931  16.699  2.0465 -0.6691 -0.7447
 6683TIP3   OH241539   6.203   3.930   4.546  0.5821  0.1617 -0.1299
 6683TIP3    H141540   6.215   3.977   4.463  0.4262 -0.0190 -0.2573
 6683TIP3    H241541   6.113   3.946   4.571  0.8684  0.9060  0.4429
 6684TIP3   OH241542   4.780   1.591  10.869 -0.1453  0.0654 -0.4960
 6684TIP3    H141543   4.866   1.555  10.846 -0.7748 -1.8024 -0.1240
 6684TIP3    H241544   4.795   1.684  10.880  1.2619  0.2587 -3.2320
 6685TIP3   OH241545   0.248   4.377  16.034 -0.1140  0.4416 -0.7352
 6685TIP3    H141546   0.156   4.362  16.057  0.4348 -0.0381  1.3747
 6685TIP3    H241547   0.247   4.459  15.984 -1.6516  0.6069 -0.4867
 6686TIP3   OH241548   6.726   2.239  10.957 -0.0831 -0.0876 -0.1644
 6686TIP3    H141549   6.788   2.306  10.929 -1.0518 -0.2378 -3.0032
 6686TIP3    H241550   6.645   2.259  10.909 -1.2065 -1.7900  0.8923
 6687TIP3   OH241551   4.603   3.868   0.338 -0.1016 -0.4613 -0.1425
 6687TIP3    H141552   4.662   3.941   0.321  0.1780 -0.1483  1.9579
 6687TIP3    H241553   4.554   3.857   0.256  1.3039  0.7063 -1.1857
 6688TIP3   OH241554   2.363   4.479   2.774 -0.4872 -0.1830 -0.8606
 6688TIP3    H141555   2.437   4.501   2.831 -1.3369  0.4885  0.0143
 6688TIP3    H241556   2.340   4.389   2.799  0.1619 -0.4858 -1.3044
 6689TIP3   OH241557   2.348   4.791  12.538 -0.3668  0.2433  0.1369
 6689TIP3    H141558   2.357   4.727  12.609 -0.5465  0.7368  0.6122
 6689TIP3    H241559   2.435   4.794  12.497 -0.5829 -0.9529 -0.4693
 6690TIP3   OH241560   4.942   3.762  15.036 -0.1158  0.1262 -0.2923
 6690TIP3    H141561   4.933   3.779  14.942 -0.1901  1.0141 -0.1349
 6690TIP3    H241562   5.031   3.727  15.046 -0.6483 -1.4642 -0.8804
 6691TIP3   OH241563   3.830   3.150  13.835  0.2234 -0.6710  0.1136
 6691TIP3    H141564   3.790   3.145  13.922 -2.6784  2.8324 -0.7889
 6691TIP3    H241565   3.761   3.184  13.778  2.4342 -1.4183 -3.3140
 6692TIP3   OH241566   0.392   6.069   1.438  0.7975  0.0642 -0.0479
 6692TIP3    H141567   0.300   6.086   1.459  1.0437  0.0880  1.0904
 6692TIP3    H241568   0.435   6.061   1.523  1.5852 -1.4215 -0.5420
 6693TIP3   OH241569   6.492   5.994   5.872  0.1218  0.0583 -0.1221
 6693TIP3    H141570   6.398   5.973   5.878 -0.0381  0.5809 -0.6652
 6693TIP3    H241571   6.532   5.944   5.942 -0.3099 -1.6491 -1.0342
 6694TIP3   OH241572   4.362   0.575   2.285 -0.3806 -0.3748  0.4827
 6694TIP3    H141573   4.269   0.570   2.264 -0.6626  1.1553  1.1882
 6694TIP3    H241574   4.402   0.616   2.209 -0.1374 -1.6815 -0.1207
 6695TIP3   OH241575   0.358   5.091   4.744 -0.6333  0.2509 -0.7389
 6695TIP3    H141576   0.432   5.098   4.806 -0.7805  0.0702 -0.5406
 6695TIP3    H241577   0.376   5.011   4.695 -1.5897 -0.7735  0.5081
 6696TIP3   OH241578   2.867   4.018  15.788 -0.3588 -1.0626  0.3026
 6696TIP3    H141579   2.794   4.009  15.727  0.6919  2.3109 -1.7069
 6696TIP3    H241580   2.941   3.977  15.743 -0.2697 -1.5498  0.8748
 6697TIP3   OH241581   5.756   6.815   3.850 -0.0700  0.0640  0.0138
 6697TIP3    H141582   5.721   6.843   3.935 -1.1129 -1.4015  0.0951
 6697TIP3    H241583   5.834   6.765   3.872 -0.4878 -0.5418  0.1405
 6698TIP3   OH241584   5.225   3.686   0.551 -0.2450  0.5373  0.2384
 6698TIP3    H141585   5.245   3.628   0.625 -0.0649  1.0229  0.5785
 6698TIP3    H241586   5.311   3.714   0.519 -0.3374  1.1129  0.4788
 6699TIP3   OH241587   6.480   1.503   5.333  0.2768  0.4721  0.0041
 6699TIP3    H141588   6.543   1.447   5.378 -0.7615 -0.4228  0.3757
 6699TIP3    H241589   6.478   1.583   5.385  1.3839  0.6762 -0.2349
 6700TIP3   OH241590   0.746   5.846   6.411  0.1330  0.1197 -0.1379
 6700TIP3    H141591   0.753   5.939   6.435 -0.5452  0.2322 -0.3632
 6700TIP3    H241592   0.760   5.845   6.317  0.3699 -0.0372 -0.1014
 6701TIP3   OH241593   2.277   5.579  14.715 -0.0911  0.6651  0.1853
 6701TIP3    H141594   2.222   5.604  14.790  0.8326 -0.3901  1.2555
 6701TIP3    H241595   2.257   5.486  14.702  2.1876 -0.0591  1.3225
 6702TIP3   OH241596   3.676   0.551   2.485 -0.4677  0.0469  0.7973
 6702TIP3    H141597   3.754   0.600   2.463 -0.5665  0.2169  0.8259
 6702TIP3    H241598   3.704   0.490   2.554 -0.6299  0.9081  1.6432
 6703TIP3   OH241599   3.725   0.438   0.830 -0.1405 -0.2127  0.0324
 6703TIP3    H141600   3.657   0.499   0.857 -0.4662 -0.5072 -0.1189
 6703TIP3    H241601   3.807   0.483   0.850 -0.3781  0.2325  0.0093
 6704TIP3   OH241602   5.966   2.383  14.748 -0.1643 -0.4390  0.2871
 6704TIP3    H141603   6.009   2.462  14.782 -1.2680  0.1223  0.4093
 6704TIP3    H241604   5.993   2.314  14.809 -0.8521  0.2538  1.4198
 6705TIP3   OH241605   3.298   5.894   3.803  0.4805 -0.5986  0.8887
 6705TIP3    H141606   3.276   5.909   3.711  0.6938 -2.6973  0.4588
 6705TIP3    H241607   3.394   5.899   3.806  0.4311  0.7750  1.2968
 6706TIP3   OH241608   0.477   3.720  13.665  0.2391 -0.3812  0.4792
 6706TIP3    H141609   0.406   3.762  13.714 -0.2201  0.3293 -0.7545
 6706TIP3    H241610   0.520   3.791  13.617  1.3451 -0.9087  0.6526
 6707TIP3   OH241611   4.239   4.970  14.013 -0.3681  0.0400  0.2113
 6707TIP3    H141612   4.206   4.937  13.930 -2.3109 -1.2637  1.4359
 6707TIP3    H241613   4.217   5.064  14.011 -0.8929 -0.0847 -0.5139
 6708TIP3   OH241614   5.856   1.919   6.770  0.6516  0.2882  0.0672
 6708TIP3    H141615   5.867   1.898   6.678 -0.6410  2.1009 -0.5598
 6708TIP3    H241616   5.856   2.015   6.773 -0.8797  0.2883  1.7202
 6709TIP3   OH241617   0.268   3.703   1.088  0.1114 -0.3269 -0.1624
 6709TIP3    H141618   0.315   3.706   1.005  0.3708  2.0308  0.0046
 6709TIP3    H241619   0.337   3.712   1.154 -0.2895 -0.0514  0.2219
 6710TIP3   OH241620   5.988   4.797  14.886  0.4482  0.4159  0.1590
 6710TIP3    H141621   5.911   4.746  14.861  0.0713  1.0649 -0.0205
 6710TIP3    H241622   5.953   4.877  14.924  1.0374  0.3660  0.8147
 6711TIP3   OH241623   5.823   4.706   2.674 -0.6462 -0.4734  0.1937
 6711TIP3    H141624   5.838   4.772   2.742  1.2240 -1.5660  0.9161
 6711TIP3    H241625   5.867   4.741   2.597 -0.7743 -0.3014  0.1964
 6712TIP3   OH241626   2.340   1.630  17.272 -0.6397  0.1473  0.4958
 6712TIP3    H141627   2.427   1.594  17.285 -1.2367 -1.2690  0.7654
 6712TIP3    H241628   2.335   1.649  17.179  0.2181  0.9815  0.6080
 6713TIP3   OH241629   6.653   1.661  14.650  0.0499  0.1128  0.6744
 6713TIP3    H141630   6.603   1.616  14.582  1.0798 -0.4911  0.2873
 6713TIP3    H241631   6.611   1.746  14.659 -0.7090 -0.1782 -0.0169
 6714TIP3   OH241632   0.757   2.639   4.044  0.3468  0.4354 -0.9995
 6714TIP3    H141633   0.759   2.717   4.099 -0.6184  0.1290 -0.5164
 6714TIP3    H241634   0.667   2.607   4.049  1.1752 -2.0033  0.6596
 6715TIP3   OH241635   5.935   1.699   5.264  0.0187 -0.1534 -0.0215
 6715TIP3    H141636   6.025   1.700   5.299  0.1822  1.6352 -0.3713
 6715TIP3    H241637   5.941   1.746   5.181 -1.3302  0.4787  0.2072
 6716TIP3   OH241638   6.488   0.473   5.657 -0.3351  0.9096  0.3083
 6716TIP3    H141639   6.497   0.446   5.565 -1.5790 -1.4698  0.7876
 6716TIP3    H241640   6.517   0.396   5.707 -0.0246  2.0321  1.9241
 6717TIP3   OH241641   2.149   0.592   4.174 -0.0444 -0.3208  0.1049
 6717TIP3    H141642   2.124   0.640   4.095  0.1586  1.9556  1.3635
 6717TIP3    H241643   2.225   0.639   4.208 -0.2679 -1.1173  1.7942
 6718TIP3   OH241644   1.165   0.322   1.321 -0.1331 -0.4899  0.1635
 6718TIP3    H141645   1.102   0.318   1.249  1.2767 -0.9506 -1.1063
 6718TIP3    H241646   1.121   0.281   1.395 -1.8831  0.6191 -0.2094
 6719TIP3   OH241647   2.329   1.018  17.020  0.0386 -0.4975 -0.0645
 6719TIP3    H141648   2.285   0.939  17.053 -0.7396  0.2924  0.8399
 6719TIP3    H241649   2.337   1.074  17.097  2.4791 -0.5125 -0.2396
 6720TIP3   OH241650   1.514   4.021   4.607  0.2184 -0.2003  0.0454
 6720TIP3    H141651   1.606   4.049   4.601  0.2860 -0.7105 -1.8110
 6720TIP3    H241652   1.516   3.945   4.664  0.8926  0.0052  0.3125
 6721TIP3   OH241653   6.477   6.689   3.768  1.0730 -0.1570 -0.7159
 6721TIP3    H141654   6.425   6.765   3.795  0.3656 -0.2328 -1.8066
 6721TIP3    H241655   6.564   6.725   3.750  1.5141 -0.0604  1.3030
 6722TIP3   OH241656   6.299   6.653   1.899 -0.6832  0.0019 -0.0015
 6722TIP3    H141657   6.386   6.684   1.923 -0.7787  0.7549 -0.5708
 6722TIP3    H241658   6.298   6.657   1.804 -0.7234 -1.7665 -0.1043
 6723TIP3   OH241659   5.716   3.036   3.741  0.3475  0.6963  0.5156
 6723TIP3    H141660   5.744   3.127   3.751 -2.0221  1.7190 -1.0815
 6723TIP3    H241661   5.749   3.010   3.655  2.3514 -0.5830  1.5901
 6724TIP3   OH241662   0.215   2.916  10.756  0.1066  0.2150  0.0619
 6724TIP3    H141663   0.160   2.929  10.832 -0.4529 -0.9977 -0.1139
 6724TIP3    H241664   0.269   2.995  10.752 -2.1497  1.8515 -0.2353
 6725TIP3   OH241665   6.171   2.391   5.567  0.7990  0.2819  0.4272
 6725TIP3    H141666   6.176   2.486   5.576  0.4266  0.5070 -1.3316
 6725TIP3    H241667   6.124   2.378   5.485 -1.8838 -1.4463  2.0947
 6726TIP3   OH241668   2.312   3.939  12.791  0.3688 -0.2816 -0.0466
 6726TIP3    H141669   2.395   3.951  12.837  1.0092  2.3501 -1.7096
 6726TIP3    H241670   2.333   3.880  12.719  1.0509  1.0111 -0.9402
 6727TIP3   OH241671   0.603   1.213   4.523  0.1272 -0.2292  0.4853
 6727TIP3    H141672   0.551   1.133   4.525 -0.1153 -0.0602  1.3677
 6727TIP3    H241673   0.663   1.201   4.449 -2.4493  0.4081 -1.8804
 6728TIP3   OH241674   3.900   5.554  16.603  0.0989 -0.4718  0.2797
 6728TIP3    H141675   3.871   5.640  16.575 -0.8050 -0.1481  2.0851
 6728TIP3    H241676   3.819   5.504  16.616  0.4847 -0.8220  1.5245
 6729TIP3   OH241677   1.354   1.749  15.316 -0.3565  0.1375 -0.1112
 6729TIP3    H141678   1.365   1.655  15.330 -0.8462  0.2487  1.1254
 6729TIP3    H241679   1.396   1.766  15.232  2.8431 -0.5692  1.2223
 6730TIP3   OH241680   1.427   0.535   0.436  0.0386  0.5167  0.5165
 6730TIP3    H141681   1.480   0.492   0.368 -0.2876 -1.4646  1.4461
 6730TIP3    H241682   1.337   0.515   0.411 -0.2536  2.5979 -0.2339
 6731TIP3   OH241683   3.260   4.789  10.846 -0.1960  0.0097 -0.1279
 6731TIP3    H141684   3.233   4.772  10.756  1.4879 -2.3890 -0.2764
 6731TIP3    H241685   3.345   4.832  10.838  1.0706 -2.2716  0.2138
 6732TIP3   OH241686   3.791   1.787  17.146 -0.1900  0.0738  0.2678
 6732TIP3    H141687   3.847   1.863  17.163  2.1957 -1.4520 -0.3480
 6732TIP3    H241688   3.775   1.750  17.233 -2.5187  1.9253  0.7434
 6733TIP3   OH241689   0.822   0.777   1.649 -0.2417  0.7084 -0.2686
 6733TIP3    H141690   0.916   0.758   1.657 -0.1973  1.5297  1.6041
 6733TIP3    H241691   0.780   0.708   1.700 -0.6797  0.3332 -1.1180
 6734TIP3   OH241692   4.801   0.664   5.892  0.4350 -0.0961 -0.3641
 6734TIP3    H141693   4.731   0.676   5.828 -1.2905 -0.7554  1.2978
 6734TIP3    H241694   4.801   0.570   5.912  3.0256 -0.4514 -1.5819
 6735TIP3   OH241695   2.203   5.344  12.205 -0.0636  0.4145  0.7081
 6735TIP3    H141696   2.192   5.288  12.282 -0.9383 -0.0251  0.2842
 6735TIP3    H241697   2.271   5.301  12.153 -0.5373 -0.1121  0.5175
 6736TIP3   OH241698   4.761   4.846  16.747  0.5252 -0.5575  0.8309
 6736TIP3    H141699   4.671   4.877  16.751  0.9136  1.3428 -1.8285
 6736TIP3    H241700   4.777   4.833  16.653  3.2330 -0.0243  1.1323
 6737TIP3   OH241701   3.083   6.075   3.033  0.3096 -0.2706 -0.9210
 6737TIP3    H141702   3.086   6.111   2.944 -2.4950 -0.4512 -1.1952
 6737TIP3    H241703   3.077   6.153   3.089 -1.3685 -0.1596 -1.1970
 6738TIP3   OH241704   0.395   3.943   5.160  0.2985  0.1935 -0.1147
 6738TIP3    H141705   0.484   3.906   5.163  0.1108 -0.2172  0.5681
 6738TIP3    H241706   0.358   3.922   5.245  0.4756  2.7681  0.6613
 6739TIP3   OH241707   3.181   4.142  13.912  0.4605 -0.2145 -0.1056
 6739TIP3    H141708   3.243   4.079  13.875  0.7921 -0.9189  1.5286
 6739TIP3    H241709   3.234   4.219  13.931  0.0837  0.5448 -1.9716
 6740TIP3   OH241710   3.626   2.339   6.252 -0.5640 -0.3166  0.0242
 6740TIP3    H141711   3.577   2.328   6.333 -1.6101 -1.4037 -0.7248
 6740TIP3    H241712   3.559   2.341   6.183  0.3290  0.0550 -0.8555
 6741TIP3   OH241713   5.821   1.966   6.060  0.3384  0.0047  0.6525
 6741TIP3    H141714   5.768   1.924   5.993  2.4401 -4.0088  1.2054
 6741TIP3    H241715   5.764   1.972   6.136 -0.5916 -0.1363 -0.0232
 6742TIP3   OH241716   5.291   5.608   2.854  0.3126 -0.6814 -0.0919
 6742TIP3    H141717   5.198   5.630   2.860  0.4725  0.1955 -0.6469
 6742TIP3    H241718   5.329   5.644   2.934  0.6737  1.7511 -1.2450
 6743TIP3   OH241719   5.423   0.027   3.092 -0.2626  0.1719  0.4858
 6743TIP3    H141720   5.451  -0.064   3.099  2.5206  0.9059  0.2059
 6743TIP3    H241721   5.484   0.066   3.029 -1.7584  2.1135  0.1386
 6744TIP3   OH241722   0.392   6.531   6.767  0.3878 -0.4102 -0.4333
 6744TIP3    H141723   0.438   6.459   6.811  0.3034 -0.0268  0.2850
 6744TIP3    H241724   0.307   6.536   6.811 -0.2644 -0.9452 -1.5806
 6745TIP3   OH241725   4.127   3.345   5.180 -0.2152  0.6278  0.0704
 6745TIP3    H141726   4.189   3.273   5.173  0.7884  1.5146 -0.4093
 6745TIP3    H241727   4.052   3.317   5.128  0.0124 -0.2254  0.2011
 6746TIP3   OH241728   3.472   0.289  14.342 -0.1797 -0.0892  0.1097
 6746TIP3    H141729   3.445   0.307  14.432  2.4368 -1.4846  1.3022
 6746TIP3    H241730   3.431   0.357  14.290 -0.4351  1.7918  2.5934
 6747TIP3   OH241731   3.992   6.607  11.157  0.2592  0.5191 -0.1068
 6747TIP3    H141732   4.001   6.699  11.135 -0.5887  0.4550 -0.8117
 6747TIP3    H241733   4.080   6.571  11.149  0.4533  1.1002 -0.6387
 6748TIP3   OH241734   4.247   5.860   2.842  0.5936 -0.1551  0.0476
 6748TIP3    H141735   4.184   5.790   2.825 -0.6150  1.2515 -1.5940
 6748TIP3    H241736   4.303   5.862   2.764  2.7454 -1.3712  1.4701
 6749TIP3   OH241737   5.130   2.528   0.160 -0.0563 -0.1088 -0.0927
 6749TIP3    H141738   5.201   2.501   0.101  2.4579  1.7049  1.8480
 6749TIP3    H241739   5.088   2.446   0.186  1.3374 -1.2779 -1.3464
 6750TIP3   OH241740   1.799   6.293   1.181 -0.0065 -0.2469 -0.2806
 6750TIP3    H141741   1.812   6.343   1.262  0.5925  2.4747 -1.9153
 6750TIP3    H241742   1.717   6.328   1.145 -0.4368 -1.6559 -0.7311
 6751TIP3   OH241743   0.277   4.782  16.134 -0.0174 -0.3861  0.3552
 6751TIP3    H141744   0.247   4.708  16.081  0.2720 -0.7043  0.6289
 6751TIP3    H241745   0.286   4.746  16.223  1.2173 -0.3213  0.2758
 6752TIP3   OH241746   0.550   4.673  12.066  0.7149  0.4269  0.4691
 6752TIP3    H141747   0.462   4.686  12.031  1.0531 -0.9689 -0.9900
 6752TIP3    H241748   0.559   4.741  12.133 -1.8283 -0.0046  1.3684
 6753TIP3   OH241749   1.644   2.565  10.986  0.1034 -0.1428  0.3844
 6753TIP3    H141750   1.592   2.643  11.008 -1.3502 -0.3695 -1.9236
 6753TIP3    H241751   1.734   2.590  11.008 -0.3999  1.9474  0.3345
 6754TIP3   OH241752   2.289   3.655  13.385  0.2730 -0.3913  0.1471
 6754TIP3    H141753   2.314   3.713  13.457 -2.7731 -0.2808  1.2532
 6754TIP3    H241754   2.269   3.714  13.312 -0.0246 -0.2539  0.3395
 6755TIP3   OH241755   6.083   5.327  11.112  0.2413  0.4322 -0.0618
 6755TIP3    H141756   6.124   5.403  11.072 -0.1461  0.7804  0.1937
 6755TIP3    H241757   6.013   5.363  11.166 -0.4402 -0.1579 -0.5369
 6756TIP3   OH241758   6.499   3.356  16.064  0.1041  0.2135  0.0259
 6756TIP3    H141759   6.575   3.297  16.059 -1.0436 -1.4434  1.2951
 6756TIP3    H241760   6.518   3.424  15.999  2.4327 -0.4210 -0.0520
 6757TIP3   OH241761   3.353   5.390   1.704 -0.1275  0.5511 -0.0441
 6757TIP3    H141762   3.324   5.400   1.795  0.8859  1.3813  0.2058
 6757TIP3    H241763   3.388   5.476   1.680 -1.2766  0.6519 -1.5608
 6758TIP3   OH241764   6.066   4.496  16.845 -0.2590  0.0512 -0.3754
 6758TIP3    H141765   6.152   4.522  16.812 -0.4732  0.1159 -0.8986
 6758TIP3    H241766   6.081   4.413  16.890 -0.1531 -0.6618 -1.6758
 6759TIP3   OH241767   5.363   1.756  16.755  0.2491 -0.7732  0.0748
 6759TIP3    H141768   5.368   1.670  16.714 -0.1551  0.0111 -1.6775
 6759TIP3    H241769   5.270   1.770  16.772 -0.0524  0.4202 -2.1974
 6760TIP3   OH241770   2.118   0.801  12.804  0.4904 -0.3207 -0.3428
 6760TIP3    H141771   2.103   0.812  12.897 -0.0530 -0.0973 -0.4531
 6760TIP3    H241772   2.106   0.708  12.787  0.9905 -0.4291 -0.1240
 6761TIP3   OH241773   5.620   0.429   1.505  0.2705  0.1725  0.0437
 6761TIP3    H141774   5.661   0.427   1.418 -0.2767  0.6770 -0.2343
 6761TIP3    H241775   5.618   0.338   1.533  0.0213 -0.0464 -0.6767
 6762TIP3   OH241776   3.174   1.371  12.657 -0.2258 -0.1910  0.0326
 6762TIP3    H141777   3.256   1.419  12.651  0.4879 -1.4183 -0.3335
 6762TIP3    H241778   3.192   1.299  12.716 -1.3950  0.1894  0.8942
 6763TIP3   OH241779   0.385   3.806  11.705 -0.4105  0.5126  0.1580
 6763TIP3    H141780   0.403   3.888  11.751 -1.6281  0.2986  1.0582
 6763TIP3    H241781   0.462   3.752  11.722  0.6471  1.6286 -0.8845
 6764TIP3   OH241782   2.457   3.309  11.344  0.1871  0.1804  0.4799
 6764TIP3    H141783   2.542   3.314  11.300 -0.9197  2.6260 -1.7031
 6764TIP3    H241784   2.411   3.238  11.300  0.9470 -0.9091  1.4171
 6765TIP3   OH241785   3.477   3.522  12.596 -0.1377 -0.2500  0.1937
 6765TIP3    H141786   3.504   3.542  12.686 -2.1486  2.4706  0.3490
 6765TIP3    H241787   3.466   3.608  12.555 -0.5079 -1.3869 -2.2921
 6766TIP3   OH241788   3.765   3.591   5.787 -0.8921  0.5411 -0.1732
 6766TIP3    H141789   3.785   3.561   5.698 -3.2089 -0.5262 -0.3987
 6766TIP3    H241790   3.762   3.686   5.781  1.3602  0.6449 -0.6401
 6767TIP3   OH241791   3.193   5.816   3.015 -0.5299 -0.2423  0.6087
 6767TIP3    H141792   3.138   5.894   3.018 -2.2701 -1.3565 -0.1672
 6767TIP3    H241793   3.174   5.776   2.930  0.4635 -1.3963  0.8908
 6768TIP3   OH241794   0.061   3.290   0.507 -0.6932 -0.5721 -0.4213
 6768TIP3    H141795   0.153   3.307   0.527 -0.7679 -1.7968  1.1456
 6768TIP3    H241796   0.056   3.195   0.495 -1.7576 -0.5181 -0.5136
 6769TIP3   OH241797   5.158   1.464   6.057  0.2497 -1.1342 -0.3667
 6769TIP3    H141798   5.088   1.477   6.120 -0.2001  0.6757 -1.1757
 6769TIP3    H241799   5.164   1.369   6.046 -1.1173 -1.3658  0.7567
 6770TIP3   OH241800   3.931   1.852   0.958  0.3621  0.4335  0.1189
 6770TIP3    H141801   3.942   1.798   0.880 -0.0551 -0.3431  0.5879
 6770TIP3    H241802   4.015   1.846   1.004 -0.1852 -1.1696  0.9931
 6771TIP3   OH241803   3.436   6.717  15.565  0.5034 -0.1360  0.0096
 6771TIP3    H141804   3.407   6.790  15.619  2.8154  0.2354  0.8531
 6771TIP3    H241805   3.426   6.640  15.621  2.4510  0.1887  0.8750
 6772TIP3   OH241806   5.570   1.771  12.160 -0.0610 -0.0257 -0.1518
 6772TIP3    H141807   5.577   1.867  12.158 -0.6767  0.0146 -0.9329
 6772TIP3    H241808   5.551   1.750  12.251  1.6726  0.4659  0.3624
 6773TIP3   OH241809   2.215   3.589   1.627  1.2148  0.5435 -0.2202
 6773TIP3    H141810   2.194   3.659   1.565 -0.0991 -1.0759 -1.7213
 6773TIP3    H241811   2.234   3.514   1.571 -1.6697 -1.4766  1.2740
 6774TIP3   OH241812   5.826   1.983   6.480 -0.5468  0.4909  0.7831
 6774TIP3    H141813   5.904   2.037   6.474 -1.4566  1.7775 -0.0722
 6774TIP3    H241814   5.762   2.027   6.424 -1.2068 -1.7193 -0.2898
 6775TIP3   OH241815   2.912   3.685   5.403  0.1141  0.3189 -0.3948
 6775TIP3    H141816   2.821   3.677   5.431 -0.2522  2.4915 -0.7990
 6775TIP3    H241817   2.958   3.714   5.482  1.0435 -3.1772  0.5330
 6776TIP3   OH241818   4.042   3.774  14.369  0.0816 -0.8879  0.5108
 6776TIP3    H141819   3.958   3.818  14.359 -0.8850 -2.3920  1.6371
 6776TIP3    H241820   4.043   3.743  14.459  2.3562  0.0621  0.8803
 6777TIP3   OH241821   4.511   0.087   0.388  0.8457  0.2586  0.3860
 6777TIP3    H141822   4.513   0.130   0.473 -1.0975  0.4065  0.3902
 6777TIP3    H241823   4.418   0.071   0.371  1.1327  0.8509 -2.0211
 6778TIP3   OH241824   3.623   0.719  11.428  0.6983 -0.7506 -0.2084
 6778TIP3    H141825   3.679   0.642  11.438  2.1895 -0.4078 -4.0145
 6778TIP3    H241826   3.537   0.691  11.461  1.9731 -2.8534  1.5688
 6779TIP3   OH241827   2.259   1.342   6.196 -0.3331 -0.1774 -0.0466
 6779TIP3    H141828   2.332   1.404   6.207 -0.7708  0.3602 -0.1124
 6779TIP3    H241829   2.270   1.280   6.268 -0.1408  0.2398  0.2928
 6780TIP3   OH241830   5.363   0.195   0.960 -0.7275  0.2483  0.2641
 6780TIP3    H141831   5.414   0.143   0.899  0.3536 -0.3327  1.6089
 6780TIP3    H241832   5.338   0.133   1.029 -2.2422  0.7952  0.2539
 6781TIP3   OH241833   2.015   1.649   4.627  0.9111 -0.8225  0.2072
 6781TIP3    H141834   1.928   1.610   4.634  2.1485 -3.6469  2.1728
 6781TIP3    H241835   2.052   1.611   4.547  0.8380 -0.7763  0.1515
 6782TIP3   OH241836   2.672   4.035   5.243  0.5017  0.7342  0.0324
 6782TIP3    H141837   2.758   4.017   5.282  0.0810 -0.7172  0.3724
 6782TIP3    H241838   2.620   3.956   5.263 -0.7882  1.4198 -0.5006
 6783TIP3   OH241839   3.108   4.535  16.325  0.3680 -0.6141  0.0096
 6783TIP3    H141840   3.109   4.631  16.323 -1.7913 -0.4955  1.6116
 6783TIP3    H241841   3.192   4.512  16.365  0.3793  0.6976  0.8171
 6784TIP3   OH241842   0.305   3.091  15.193 -0.0404 -0.1510  0.8910
 6784TIP3    H141843   0.211   3.084  15.179  0.0168  0.5735  0.0998
 6784TIP3    H241844   0.341   3.115  15.108  0.8400 -0.1898  1.2389
 6785TIP3   OH241845   6.122   4.221  13.841  1.1755 -0.0160 -0.1615
 6785TIP3    H141846   6.072   4.301  13.862 -0.0663 -0.9505  0.5867
 6785TIP3    H241847   6.121   4.171  13.923  2.1869 -0.6932 -0.5464
 6786TIP3   OH241848   3.720   4.602   4.167 -0.5298  0.3040  0.1037
 6786TIP3    H141849   3.652   4.550   4.211 -1.7281  0.8849 -1.0017
 6786TIP3    H241850   3.730   4.561   4.081  0.3920  0.3475  0.1803
 6787TIP3   OH241851   5.364   4.419   0.876 -0.0178 -0.5010  0.1166
 6787TIP3    H141852   5.382   4.366   0.799  0.0226 -1.7834  0.9648
 6787TIP3    H241853   5.449   4.433   0.917 -0.0150  0.3197 -0.1477
 6788TIP3   OH241854   0.698   3.678   2.978 -0.3290 -0.2863 -0.5381
 6788TIP3    H141855   0.702   3.738   2.904 -0.2119 -0.4282 -0.6494
 6788TIP3    H241856   0.775   3.700   3.031  1.3959 -2.2154 -2.0544
 6789TIP3   OH241857   5.161   5.260   5.142  0.1028  0.1482  0.3267
 6789TIP3    H141858   5.133   5.251   5.233  1.3299  0.6427  0.7695
 6789TIP3    H241859   5.189   5.351   5.134  0.8813 -0.1330 -0.2860
 6790TIP3   OH241860   6.463   2.368  15.525 -0.3231 -0.5060 -0.3079
 6790TIP3    H141861   6.370   2.374  15.507 -0.1868  1.9134 -0.5516
 6790TIP3    H241862   6.505   2.362  15.439 -0.2010 -0.4428 -0.2537
 6791TIP3   OH241863   5.978   0.777   2.761  0.3927 -0.1307 -0.0303
 6791TIP3    H141864   5.967   0.721   2.838 -0.9194  0.1336  0.0023
 6791TIP3    H241865   6.049   0.737   2.711 -1.4710 -2.7429 -0.7783
 6792TIP3   OH241866   2.216   4.814   5.114  0.1489 -0.0950  0.1843
 6792TIP3    H141867   2.217   4.773   5.200  0.0257  0.5890  0.5180
 6792TIP3    H241868   2.213   4.908   5.132  0.6930  0.0740 -0.5645
 6793TIP3   OH241869   5.586   6.607   1.365  0.3195  0.1646  0.0676
 6793TIP3    H141870   5.661   6.645   1.410  0.2351  0.8578 -0.3658
 6793TIP3    H241871   5.610   6.609   1.272 -0.2208  0.3723 -0.0730
 6794TIP3   OH241872   2.831   4.073  14.852  0.3049  0.0848  0.5791
 6794TIP3    H141873   2.893   4.012  14.812  0.8219  1.4644 -0.8621
 6794TIP3    H241874   2.769   4.018  14.899  1.0211 -1.5051 -0.2701
 6795TIP3   OH241875   6.344   0.106  13.571  0.4452  0.0666 -0.0459
 6795TIP3    H141876   6.315   0.041  13.507 -0.2056 -0.4051  0.7068
 6795TIP3    H241877   6.377   0.054  13.645  0.8096  0.5989  0.1712
 6796TIP3   OH241878   0.745   0.937  14.525  0.2486  0.1297 -0.3836
 6796TIP3    H141879   0.807   0.885  14.577  1.8446  0.2513 -2.0581
 6796TIP3    H241880   0.747   0.896  14.438 -0.4000  1.4430 -1.0355
 6797TIP3   OH241881   4.576   0.849   4.716 -0.5194  0.1122 -0.0181
 6797TIP3    H141882   4.622   0.915   4.768  0.7301 -0.4437 -0.3865
 6797TIP3    H241883   4.645   0.795   4.679 -1.4171 -0.0588 -1.5280
 6798TIP3   OH241884   1.586   5.965   2.352 -0.1337 -0.0933 -0.2605
 6798TIP3    H141885   1.641   6.024   2.403  0.5466  0.5562 -1.6884
 6798TIP3    H241886   1.610   5.877   2.383  1.2583  0.2178 -0.3856
 6799TIP3   OH241887   2.538   4.089   2.321 -0.2104  0.2000  1.1111
 6799TIP3    H141888   2.577   4.127   2.242 -1.1362  0.0828  0.5928
 6799TIP3    H241889   2.611   4.087   2.384  1.3590 -2.3535 -0.5956
 6800TIP3   OH241890   6.739   2.914   3.841  0.1703 -0.3916  0.7308
 6800TIP3    H141891   6.729   2.819   3.846  0.1201 -0.5046 -0.8620
 6800TIP3    H241892   6.686   2.948   3.913 -0.1437 -1.5504  1.0704
 6801TIP3   OH241893   3.825   5.788  12.513 -0.7997 -0.5349 -0.2440
 6801TIP3    H141894   3.826   5.866  12.458 -0.0297 -0.8067 -0.6185
 6801TIP3    H241895   3.743   5.743  12.489 -0.4430 -0.6866 -1.2251
 6802TIP3   OH241896   2.790   0.362  13.964  0.0947  0.2305 -0.3024
 6802TIP3    H141897   2.749   0.321  13.888  0.6473 -0.6762 -0.1156
 6802TIP3    H241898   2.716   0.398  14.014 -0.5833 -1.9130  0.3485
 6803TIP3   OH241899   3.933   6.439   4.087 -0.1267  0.8239 -0.1929
 6803TIP3    H141900   3.857   6.385   4.064  0.1225  0.4983 -0.2616
 6803TIP3    H241901   3.986   6.442   4.007 -0.0498  1.0262 -0.1364
 6804TIP3   OH241902   3.573   2.491  16.753 -0.2863  0.5006  0.4896
 6804TIP3    H141903   3.486   2.494  16.713  0.6147  2.0171 -1.5153
 6804TIP3    H241904   3.559   2.525  16.842 -1.7534  0.5933  0.2596
 6805TIP3   OH241905   1.119   1.127  14.093 -0.8907 -0.3350 -0.0405
 6805TIP3    H141906   1.106   1.217  14.061  1.4857  0.2993  0.5245
 6805TIP3    H241907   1.164   1.083  14.022 -2.3041 -1.1994 -0.4220
 6806TIP3   OH241908   4.215   0.588  15.556  0.2417 -0.6701  0.5754
 6806TIP3    H141909   4.216   0.663  15.495 -1.9472 -0.1066  1.1161
 6806TIP3    H241910   4.290   0.603  15.613  0.1333  0.8727  0.3706
 6807TIP3   OH241911   2.832   4.926  14.020 -0.0003  0.4180 -0.2446
 6807TIP3    H141912   2.826   4.887  14.107  0.3330 -0.2515 -0.5200
 6807TIP3    H241913   2.793   5.013  14.031  1.0945  0.8139  0.8545
 6808TIP3   OH241914   0.337   1.592  12.230 -0.1577  0.3289 -0.6506
 6808TIP3    H141915   0.286   1.522  12.270  0.6173 -0.8521 -1.6188
 6808TIP3    H241916   0.341   1.568  12.137  3.5776 -0.6847 -0.4183
 6809TIP3   OH241917   0.937   0.895   6.540  0.2280  0.4955 -0.3960
 6809TIP3    H141918   1.028   0.881   6.511  0.8953 -0.2197  1.8536
 6809TIP3    H241919   0.918   0.821   6.598 -1.8326  0.6141 -0.8510
 6810TIP3   OH241920   0.991   1.102  16.624  0.0636  0.3394 -0.5652
 6810TIP3    H141921   0.983   1.032  16.559  1.3535 -0.4704  0.1123
 6810TIP3    H241922   0.915   1.091  16.681  0.9530 -1.4132  0.3502
 6811TIP3   OH241923   6.515   2.716   1.011 -0.5955  0.4885 -0.0180
 6811TIP3    H141924   6.527   2.627   0.979  0.1224  0.7196 -0.4066
 6811TIP3    H241925   6.454   2.707   1.085  1.3245 -0.6500  1.5237
 6812TIP3   OH241926   6.503   4.676   5.980 -0.1277  0.8871  0.3869
 6812TIP3    H141927   6.593   4.643   5.985 -0.2994  0.3830  0.2017
 6812TIP3    H241928   6.466   4.659   6.066 -0.5942 -0.5415 -0.0588
 6813TIP3   OH241929   6.754   4.541  14.227  0.6969  0.2177  0.1676
 6813TIP3    H141930   6.770   4.568  14.137  0.6559 -2.0786 -0.5930
 6813TIP3    H241931   6.748   4.445  14.223 -1.8245  0.1558  2.1732
 6814TIP3   OH241932   1.404   1.526  17.174 -0.4138  0.1119 -0.0488
 6814TIP3    H141933   1.475   1.589  17.162 -0.8742  0.5145 -0.7798
 6814TIP3    H241934   1.327   1.569  17.136 -1.1775 -0.0893  1.2067
 6815TIP3   OH241935   6.506   3.157  12.624  0.1924  0.2040  0.5653
 6815TIP3    H141936   6.566   3.227  12.651 -1.8563  1.9013  0.9179
 6815TIP3    H241937   6.440   3.155  12.693 -0.5803 -1.1304 -0.1855
 6816TIP3   OH241938   4.017   4.033  13.163 -0.2277 -0.0656  0.2730
 6816TIP3    H141939   4.110   4.025  13.182 -0.2160 -0.3359  0.0930
 6816TIP3    H241940   3.984   3.943  13.161 -0.4560  0.0191  0.1566
 6817TIP3   OH241941   0.980   1.600  12.031  0.0596 -0.5038  0.2807
 6817TIP3    H141942   1.027   1.603  11.948  0.9179 -1.6360  0.7122
 6817TIP3    H241943   1.030   1.657  12.089  1.3138 -2.1787  0.9168
 6818TIP3   OH241944   4.250   1.471  11.878  0.1164  0.1984  0.7096
 6818TIP3    H141945   4.221   1.382  11.861 -0.4943  0.3876  0.7283
 6818TIP3    H241946   4.177   1.526  11.851  0.6070  0.7148  0.4097
 6819TIP3   OH241947   6.628   6.187   4.227  0.2282  0.0508 -0.1336
 6819TIP3    H141948   6.632   6.267   4.279  0.5837  0.5821 -0.9482
 6819TIP3    H241949   6.590   6.215   4.144  0.7248 -0.5410 -0.5710
 6820TIP3   OH241950   3.403   4.625   2.353  0.3192 -0.3266  0.6524
 6820TIP3    H141951   3.329   4.606   2.296 -1.1354 -2.0419  2.8905
 6820TIP3    H241952   3.390   4.716   2.381  0.5310  0.2098 -0.9407
 6821TIP3   OH241953   0.410   4.977   5.635  0.2861 -0.1912  0.2880
 6821TIP3    H141954   0.481   4.916   5.659  0.4128  1.0357  3.5235
 6821TIP3    H241955   0.334   4.946   5.685 -0.6589  0.2399 -0.8442
 6822TIP3   OH241956   3.675   1.308  11.290  0.8474  0.4214  1.0828
 6822TIP3    H141957   3.632   1.382  11.247  1.4379  0.3706  0.3893
 6822TIP3    H241958   3.618   1.287  11.364 -1.7691 -1.3281 -1.2506
 6823TIP3   OH241959   2.383   2.328   5.392  0.5445  0.2021  0.3688
 6823TIP3    H141960   2.312   2.321   5.328  2.6549  2.2458 -2.4804
 6823TIP3    H241961   2.342   2.309   5.476 -2.3545 -3.1323 -1.5176
 6824TIP3   OH241962   0.443   3.561   3.334 -0.1011  0.1499 -0.1102
 6824TIP3    H141963   0.387   3.564   3.412 -0.3555  1.9288 -0.3197
 6824TIP3    H241964   0.492   3.479   3.343  0.0869  0.4302  2.0763
 6825TIP3   OH241965   2.873   3.054  15.686 -0.0683  0.6230 -0.4057
 6825TIP3    H141966   2.898   2.998  15.612  0.5523 -0.9453  0.9135
 6825TIP3    H241967   2.783   3.079  15.668  0.3820  1.1636 -2.1865
 6826TIP3   OH241968   3.150   6.147  12.283  0.5063 -0.1975 -0.0097
 6826TIP3    H141969   3.143   6.092  12.204  1.3040 -1.2038  0.6010
 6826TIP3    H241970   3.080   6.211  12.273 -0.1213 -0.9987 -1.0070
 6827TIP3   OH241971   6.152   5.381   0.672 -0.2913  0.2290  0.2181
 6827TIP3    H141972   6.237   5.398   0.632  0.0575  0.7364  1.1361
 6827TIP3    H241973   6.119   5.304   0.626  0.4566  0.2945 -0.4592
 6828TIP3   OH241974   5.343   5.034  13.637  0.3226 -0.0348  0.5098
 6828TIP3    H141975   5.351   5.130  13.635 -0.5912  0.0581  0.9632
 6828TIP3    H241976   5.434   5.003  13.635  0.6442  0.8502  0.8097
 6829TIP3   OH241977   2.957   2.506   2.628 -0.1480  0.3981  0.5117
 6829TIP3    H141978   3.024   2.437   2.625  1.6972  2.0916  0.8861
 6829TIP3    H241979   2.876   2.459   2.647  0.8621 -1.7707 -0.1620
 6830TIP3   OH241980   2.121   6.509   0.413 -0.1330 -0.1761 -0.4061
 6830TIP3    H141981   2.112   6.477   0.503  0.5517 -1.3782 -0.7547
 6830TIP3    H241982   2.085   6.598   0.417  0.7066  0.1407  1.2581
 6831TIP3   OH241983   4.493   6.453  13.810  0.2739 -0.2466  0.2836
 6831TIP3    H141984   4.532   6.483  13.892  0.0239  0.1193  0.2714
 6831TIP3    H241985   4.501   6.528  13.751  1.9474 -1.0375 -0.5611
 6832TIP3   OH241986   3.952   3.906  14.875  0.4293 -0.2260  0.4995
 6832TIP3    H141987   3.920   3.956  14.950 -0.2199 -0.7305  0.5759
 6832TIP3    H241988   4.017   3.846  14.912  0.6616  0.0444  0.5311
 6833TIP3   OH241989   6.674   0.648  16.453 -0.7712  0.4706 -0.5566
 6833TIP3    H141990   6.763   0.665  16.483 -0.2326  0.2901 -1.9734
 6833TIP3    H241991   6.636   0.591  16.519  0.3063  0.2134 -0.1559
 6834TIP3   OH241992   0.121   5.092  14.391  0.1402  0.1020 -0.0729
 6834TIP3    H141993   0.060   5.104  14.318  1.9451  0.1630 -1.6549
 6834TIP3    H241994   0.065   5.081  14.468 -1.8432  1.5996 -1.1972
 6835TIP3   OH241995   0.047   1.087  17.252 -0.0186 -0.1599 -0.0242
 6835TIP3    H141996   0.112   1.020  17.270 -0.8256 -0.5499  1.6500
 6835TIP3    H241997   0.096   1.160  17.214  0.9295 -1.5123 -1.5015
 6836TIP3   OH241998   5.578   6.371  16.270 -0.1087 -0.2028  0.4569
 6836TIP3    H141999   5.600   6.400  16.181  0.1114 -1.6779  0.0061
 6836TIP3    H242000   5.489   6.404  16.284 -0.1815 -0.0254 -0.3465
 6837TIP3   OH242001   4.740   4.074   3.594 -0.0696 -0.1880 -0.2048
 6837TIP3    H142002   4.776   3.989   3.569  0.6115  0.3246 -1.0179
 6837TIP3    H242003   4.658   4.080   3.546  0.2025 -0.1117 -0.6682
 6838TIP3   OH242004   1.111   0.045   5.598  0.0553  0.3054 -0.4189
 6838TIP3    H142005   1.150   0.026   5.513  1.5149 -0.3564  0.3718
 6838TIP3    H242006   1.185   0.056   5.657 -0.9258 -0.5863  1.0549
 6839TIP3   OH242007   3.140   3.814   0.350  0.3482  0.3158  0.0438
 6839TIP3    H142008   3.071   3.749   0.338  0.7812 -0.0443 -0.5025
 6839TIP3    H242009   3.191   3.780   0.424 -1.2256  1.6040  1.8223
 6840TIP3   OH242010   3.657   4.723   1.651  0.1436 -0.6394 -0.7177
 6840TIP3    H142011   3.618   4.791   1.596 -0.6493 -1.0013 -0.6189
 6840TIP3    H242012   3.622   4.641   1.615 -0.3840 -0.8848  0.3169
 6841TIP3   OH242013   0.410   2.428   5.210  1.1598 -0.0520 -0.3819
 6841TIP3    H142014   0.320   2.414   5.180 -0.1810  0.0959  3.0422
 6841TIP3    H242015   0.435   2.345   5.249  0.8082  1.0067  2.3349
 6842TIP3   OH242016   5.023   5.985   1.448  0.1936  0.5974  0.4298
 6842TIP3    H142017   5.034   5.928   1.524  0.4679 -1.4466 -1.0525
 6842TIP3    H242018   4.951   6.045   1.472  0.2691 -0.0029  2.2539
 6843TIP3   OH242019   2.858   5.880   3.006 -0.2622  0.4898 -0.0045
 6843TIP3    H142020   2.871   5.874   2.911 -2.3151 -0.5356 -0.2627
 6843TIP3    H242021   2.939   5.919   3.038  0.6929  0.3886 -2.1152
 6844TIP3   OH242022   1.465   0.270   6.407  0.0544  0.2708  0.5682
 6844TIP3    H142023   1.401   0.338   6.430  0.1136  0.4041  0.3442
 6844TIP3    H242024   1.412   0.199   6.372  0.0663  0.6423 -0.2473
 6845TIP3   OH242025   1.458   0.942   3.819 -0.1366  0.0388 -0.4671
 6845TIP3    H142026   1.367   0.916   3.803 -0.9999  2.0258  0.8692
 6845TIP3    H242027   1.472   1.019   3.764  1.2598 -1.0942 -1.7762
 6846TIP3   OH242028   3.386   2.295  13.124 -0.1557 -0.1311 -0.7827
 6846TIP3    H142029   3.480   2.280  13.114 -0.0050 -1.1328  1.5945
 6846TIP3    H242030   3.346   2.210  13.105 -0.6939  0.4192 -2.3221
 6847TIP3   OH242031   0.958   1.996  11.664  0.4368 -0.4433 -0.8340
 6847TIP3    H142032   0.989   2.009  11.575  2.6189 -2.3465 -0.4492
 6847TIP3    H242033   0.895   2.067  11.679  2.6719  2.0815 -2.6205
 6848TIP3   OH242034   2.949   2.753  13.187  0.0819  0.2671  0.2625
 6848TIP3    H142035   2.984   2.664  13.186 -0.7098 -0.0675 -1.3018
 6848TIP3    H242036   2.893   2.755  13.264  0.3153 -0.5037  0.4672
 6849TIP3   OH242037   0.686   0.591  13.566  0.9030 -0.3394  0.5071
 6849TIP3    H142038   0.733   0.659  13.614 -0.7413 -0.8160  3.0284
 6849TIP3    H242039   0.594   0.619  13.570  0.5775 -0.9863 -1.5091
 6850TIP3   OH242040   3.449   1.704   5.599  0.2800  0.5699 -0.5441
 6850TIP3    H142041   3.540   1.731   5.585  0.6776  0.1055  1.0172
 6850TIP3    H242042   3.454   1.629   5.658 -1.1349  0.7705 -0.1266
 6851TIP3   OH242043   0.729   1.018  11.825  0.5439  0.0381 -0.0260
 6851TIP3    H142044   0.643   1.050  11.797  1.5132  0.2787 -3.1907
 6851TIP3    H242045   0.754   1.073  11.898 -1.0416  1.4878 -0.5271
 6852TIP3   OH242046   1.221   4.171   5.789  0.5866 -0.7740 -0.0572
 6852TIP3    H142047   1.254   4.216   5.866  1.7191 -0.1698 -0.8512
 6852TIP3    H242048   1.127   4.161   5.804  0.5187  0.7562  0.6976
 6853TIP3   OH242049   0.250   3.426  15.578  0.2187 -0.4629  0.2637
 6853TIP3    H142050   0.280   3.409  15.489 -0.6053 -0.8135  0.0369
 6853TIP3    H242051   0.258   3.341  15.622 -0.3678 -0.5494  0.2118
 6854TIP3   OH242052   3.721   1.476   1.056  0.4590  0.0853 -0.3280
 6854TIP3    H142053   3.691   1.389   1.086 -2.2005  1.6184  2.0165
 6854TIP3    H242054   3.777   1.507   1.127 -0.5301  1.1435  0.0306
 6855TIP3   OH242055   6.071   0.871  15.985 -0.6219  0.2718 -0.2013
 6855TIP3    H142056   6.037   0.935  16.047 -0.3080 -0.5195  0.8003
 6855TIP3    H242057   6.108   0.801  16.039  1.6829  0.6046 -1.2275
 6856TIP3   OH242058   2.466   6.377   5.523 -0.2892 -0.5653  0.1372
 6856TIP3    H142059   2.445   6.365   5.615 -1.9706 -0.3022 -0.1868
 6856TIP3    H242060   2.521   6.455   5.521 -2.2867  0.9110  0.7046
 6857TIP3   OH242061   6.790   4.320   3.081 -0.3318 -0.1881  0.0749
 6857TIP3    H142062   6.741   4.350   3.004  0.0160 -0.6350 -0.3275
 6857TIP3    H242063   6.725   4.275   3.134 -1.2334  2.5146  1.4511
 6858TIP3   OH242064   6.533   3.946  16.018  0.4506 -0.3199 -0.2686
 6858TIP3    H142065   6.594   3.902  15.959  0.0880  0.3421 -1.1544
 6858TIP3    H242066   6.530   3.890  16.095  1.6299 -0.7265 -0.4994
 6859TIP3   OH242067   4.971   5.714  14.139 -0.1028 -0.4948 -0.9893
 6859TIP3    H142068   5.015   5.754  14.064 -1.6098  2.5384 -0.4022
 6859TIP3    H242069   5.030   5.733  14.213 -1.1767  1.5445 -0.5807
 6860TIP3   OH242070   2.124   5.196  11.840  0.0023  0.2363 -0.3894
 6860TIP3    H142071   2.172   5.180  11.921 -2.1792 -0.3409  0.8817
 6860TIP3    H242072   2.128   5.290  11.828  0.4045  0.3270  0.3473
 6861TIP3   OH242073   1.892   0.580   2.391  0.1403 -0.2949  0.0362
 6861TIP3    H142074   1.821   0.625   2.344  0.8518  0.0111 -0.7595
 6861TIP3    H242075   1.917   0.508   2.333  0.9361  0.0074 -0.0050
 6862TIP3   OH242076   5.847   6.258  13.127 -0.7642  0.7892  0.0375
 6862TIP3    H142077   5.777   6.199  13.099 -1.9953  1.7271  0.9931
 6862TIP3    H242078   5.912   6.253  13.058 -1.6955 -0.2619 -0.8043
 6863TIP3   OH242079   1.064   4.419   0.827 -0.0186 -0.3346  0.2400
 6863TIP3    H142080   1.101   4.331   0.821 -2.1154 -1.1593 -1.9548
 6863TIP3    H242081   1.118   4.463   0.893  1.1062 -3.2338  1.4227
 6864TIP3   OH242082   4.738   4.713  12.308  0.3435 -0.5815 -0.5641
 6864TIP3    H142083   4.735   4.778  12.237 -0.2522 -0.7871 -0.7336
 6864TIP3    H242084   4.715   4.763  12.387 -0.2546 -0.6028 -0.7140
 6865TIP3   OH242085   0.882   2.625  14.529  0.1778  0.1842  0.3894
 6865TIP3    H142086   0.807   2.566  14.528  1.4075 -1.4160 -0.3845
 6865TIP3    H242087   0.850   2.705  14.488 -0.6095 -1.1538 -1.7809
 6866TIP3   OH242088   4.326   5.381  14.246  0.2354  0.0166 -0.1888
 6866TIP3    H142089   4.291   5.292  14.238 -1.2515  0.5372  0.1804
 6866TIP3    H242090   4.251   5.433  14.275  1.3458  1.2017  0.6305
 6867TIP3   OH242091   5.575   2.080  17.099  0.0335 -0.3915 -0.5789
 6867TIP3    H142092   5.493   2.061  17.053 -1.9476  0.6726  2.2372
 6867TIP3    H242093   5.592   2.002  17.151 -1.1255  0.6349  1.4133
 6868TIP3   OH242094   3.043   1.176   4.818  0.3017  0.3885  0.3437
 6868TIP3    H142095   3.028   1.189   4.724  1.8170  0.7374  0.1257
 6868TIP3    H242096   3.060   1.264   4.851 -1.8972  0.5131  1.3083
 6869TIP3   OH242097   0.051   1.760   1.007  0.5762 -0.1843 -0.3100
 6869TIP3    H142098   0.072   1.847   0.972 -0.0440  0.1326  0.0841
 6869TIP3    H242099   0.122   1.704   0.976  1.1291  0.5206 -0.3455
 6870TIP3   OH242100   0.741   1.531  14.536  0.3228 -0.2486 -0.3229
 6870TIP3    H142101   0.785   1.448  14.553 -0.7528 -0.4431  1.9574
 6870TIP3    H242102   0.767   1.587  14.610 -1.9405  0.1359  0.2711
 6871TIP3   OH242103   5.316   2.764   2.430 -0.4112 -0.0348 -0.0491
 6871TIP3    H142104   5.329   2.707   2.355 -1.5635 -0.9385  0.4054
 6871TIP3    H242105   5.396   2.816   2.435  0.2595 -0.9286 -1.0689
 6872TIP3   OH242106   0.850   1.169  15.875 -0.2875 -0.0731 -0.3409
 6872TIP3    H142107   0.905   1.096  15.847 -0.1933  0.3704 -1.3486
 6872TIP3    H242108   0.772   1.128  15.911  1.2193 -0.7907  2.4403
 6873TIP3   OH242109   6.587   3.598  13.605  0.1277 -0.0527  0.5819
 6873TIP3    H142110   6.536   3.523  13.637 -0.6903  0.0017 -0.5123
 6873TIP3    H242111   6.568   3.668  13.666 -1.2839  0.0133  0.1126
 6874TIP3   OH242112   6.676   3.919   2.840  0.1807 -0.4579 -0.3916
 6874TIP3    H142113   6.589   3.882   2.852 -0.7325  1.6246 -0.0669
 6874TIP3    H242114   6.730   3.877   2.906 -1.3526  0.4371  1.5352
 6875TIP3   OH242115   6.235   0.755  14.195 -0.5244 -0.7911 -1.1159
 6875TIP3    H142116   6.158   0.779  14.245  0.0687 -0.4841 -0.3245
 6875TIP3    H242117   6.294   0.716  14.259 -0.2636 -1.5841 -1.8204
 6876TIP3   OH242118   1.449   3.522  11.217 -0.4268  0.5217  0.0480
 6876TIP3    H142119   1.527   3.479  11.250 -0.0380  1.3755  0.2577
 6876TIP3    H242120   1.474   3.614  11.207 -1.2761  0.7287 -0.2749
 6877TIP3   OH242121   1.806   2.159  13.542 -0.0054  0.2607  0.6757
 6877TIP3    H142122   1.806   2.221  13.469  1.9072  0.6893  0.9964
 6877TIP3    H242123   1.768   2.079  13.505  0.6866  0.5521 -0.7295
 6878TIP3   OH242124   3.918   4.248  17.210  0.4198 -0.3619 -0.0528
 6878TIP3    H142125   3.985   4.204  17.263 -1.2995 -1.7293  1.0958
 6878TIP3    H242126   3.853   4.279  17.274 -0.8922 -0.5692 -1.2262
 6879TIP3   OH242127   4.914   3.490  15.339  0.1340  0.2791 -0.0219
 6879TIP3    H142128   4.839   3.533  15.381 -1.8623 -2.4140 -0.4800
 6879TIP3    H242129   4.888   3.483  15.247  1.2203 -0.1743 -0.3011
 6880TIP3   OH242130   3.708   3.966  13.728  0.4360 -0.4118  0.1777
 6880TIP3    H142131   3.658   3.968  13.810  1.6051 -0.7452  0.9140
 6880TIP3    H242132   3.738   3.876  13.720 -2.0993 -1.1708 -2.1663
 6881TIP3   OH242133   5.569   1.094   3.866  0.9649 -0.3806  0.1641
 6881TIP3    H142134   5.660   1.122   3.863  0.3559  1.6784 -0.8361
 6881TIP3    H242135   5.519   1.174   3.885 -0.9406 -0.4572 -3.5091
 6882TIP3   OH242136   4.039   2.410   0.410  0.0266  0.4862  0.6215
 6882TIP3    H142137   4.131   2.396   0.388 -0.3565 -1.1351 -0.0882
 6882TIP3    H242138   4.011   2.482   0.353  0.3107 -0.4763 -0.7764
 6883TIP3   OH242139   4.552   1.253   2.510  0.3461  0.4368  0.0644
 6883TIP3    H142140   4.606   1.290   2.580  0.9010  1.2178 -0.7486
 6883TIP3    H242141   4.485   1.203   2.555  0.6160  1.0303  1.1591
 6884TIP3   OH242142   3.379   2.493  14.380 -0.2960  0.4340  0.3737
 6884TIP3    H142143   3.444   2.466  14.444 -0.6995 -1.2588  0.1125
 6884TIP3    H242144   3.296   2.462  14.416 -0.6773  0.5353 -0.3932
 6885TIP3   OH242145   0.985   6.136  11.878  0.1762  0.7940  0.3796
 6885TIP3    H142146   0.911   6.101  11.828  0.6990 -0.9272  0.7579
 6885TIP3    H242147   0.951   6.216  11.918 -1.5405 -0.0369  0.6771
 6886TIP3   OH242148   5.945   4.789  16.356  0.2565 -0.1758  0.0862
 6886TIP3    H142149   6.018   4.815  16.300 -0.1858 -0.6347 -0.7125
 6886TIP3    H242150   5.906   4.714  16.312 -4.3540  3.3562 -2.8156
 6887TIP3   OH242151   1.560   0.495  11.165  0.3583 -0.5285 -0.3740
 6887TIP3    H142152   1.646   0.467  11.198  0.7925 -0.0500 -1.0695
 6887TIP3    H242153   1.574   0.585  11.137  0.2201 -1.1282 -2.5387
 6888TIP3   OH242154   0.957   5.728   2.260 -0.4218  0.3673 -0.6230
 6888TIP3    H142155   1.006   5.647   2.268 -0.7830  0.2645  1.0869
 6888TIP3    H242156   0.893   5.711   2.191  0.0569 -0.5098 -0.8626
 6889TIP3   OH242157   1.439   5.113  15.109  0.2603 -0.5545 -0.9040
 6889TIP3    H142158   1.499   5.144  15.042  1.6915 -2.3938 -0.5633
 6889TIP3    H242159   1.423   5.021  15.087  1.2392 -1.4007  1.5165
 6890TIP3   OH242160   0.832   3.640  15.890  0.4724  0.6632 -0.1126
 6890TIP3    H142161   0.904   3.682  15.844  0.2100  0.2581 -0.9155
 6890TIP3    H242162   0.843   3.546  15.871  1.8949  0.1194  2.7998
 6891TIP3   OH242163   6.394   6.362   1.778  0.0949 -0.2642  0.1930
 6891TIP3    H142164   6.373   6.433   1.838  0.3050  0.0821 -0.1397
 6891TIP3    H242165   6.483   6.381   1.748 -0.0574 -0.3545 -0.3325
 6892TIP3   OH242166   5.796   5.239  10.966 -0.3446 -0.1269  0.4959
 6892TIP3    H142167   5.789   5.238  10.870  0.3366 -1.4562  0.4374
 6892TIP3    H242168   5.862   5.173  10.986 -0.8708 -0.2607  1.9224
 6893TIP3   OH242169   0.362   3.157  10.730 -0.1230 -0.2981 -0.0485
 6893TIP3    H142170   0.321   3.242  10.718  1.6435  0.5693 -0.3325
 6893TIP3    H242171   0.456   3.176  10.738  0.1849 -2.0530  1.5750
 6894TIP3   OH242172   6.171   2.589   3.662  0.4959 -0.1040  0.3195
 6894TIP3    H142173   6.098   2.628   3.710 -1.3843 -3.4779  0.4729
 6894TIP3    H242174   6.170   2.633   3.577 -2.5741 -0.8739 -0.1254
 6895TIP3   OH242175   1.474   4.705  14.039 -0.8259  0.5388 -0.2568
 6895TIP3    H142176   1.496   4.789  14.079 -2.9387  1.5801 -1.0942
 6895TIP3    H242177   1.523   4.704  13.957  0.9828 -0.1366  0.7807
 6896TIP3   OH242178   1.290   3.388  16.086 -0.2722 -0.0381 -0.3223
 6896TIP3    H142179   1.344   3.416  16.012 -2.0038  2.7695 -0.6879
 6896TIP3    H242180   1.204   3.369  16.048 -1.2204  1.5368  0.8926
 6897TIP3   OH242181   2.580   6.539  13.445  0.2371  0.3496 -0.1967
 6897TIP3    H142182   2.632   6.556  13.523  0.5967 -0.0838 -0.3320
 6897TIP3    H242183   2.639   6.490  13.387  0.5668  2.1924 -1.4866
 6898TIP3   OH242184   1.432   3.412  16.335 -0.2655  0.6010 -0.0066
 6898TIP3    H142185   1.493   3.339  16.326  0.9640  1.4838  0.8939
 6898TIP3    H242186   1.390   3.419  16.249 -1.2158 -1.8158  0.1822
 6899TIP3   OH242187   2.275   3.337  16.416 -0.1745  0.5573 -0.2566
 6899TIP3    H142188   2.354   3.389  16.400 -0.1155  0.2703 -0.9427
 6899TIP3    H242189   2.262   3.288  16.335  0.0891 -0.9216  0.5584
 6900TIP3   OH242190   3.868   3.320   4.668 -0.1778 -0.1806  0.3638
 6900TIP3    H142191   3.838   3.229   4.667  0.9580 -0.6051  1.6459
 6900TIP3    H242192   3.961   3.315   4.689  0.7194  1.1488 -2.7908
 6901TIP3   OH242193   4.882   4.502   1.570 -0.4843  0.0483  0.3064
 6901TIP3    H142194   4.834   4.456   1.501 -0.5679  0.5137  0.0515
 6901TIP3    H242195   4.913   4.583   1.528 -0.5130  0.3196  0.8050
 6902TIP3   OH242196   5.550   2.466  12.900  0.3534 -0.4451 -0.1094
 6902TIP3    H142197   5.577   2.479  12.991  1.3075 -0.9357 -0.3140
 6902TIP3    H242198   5.454   2.471  12.903  0.3519 -0.9296  0.9976
 6903TIP3   OH242199   0.877   4.405   0.228  0.5450 -0.2501 -0.1049
 6903TIP3    H142200   0.800   4.434   0.180  0.9003  0.2337 -0.3830
 6903TIP3    H242201   0.879   4.460   0.306 -0.3612 -1.4227  0.7826
 6904TIP3   OH242202   4.387   4.732   1.043 -0.3489 -0.2163  0.0421
 6904TIP3    H142203   4.456   4.787   1.080  0.9995  0.2441 -2.8603
 6904TIP3    H242204   4.411   4.643   1.071 -0.2224  0.2128  1.3855
 6905TIP3   OH242205   1.373   0.413  12.865 -0.1583 -0.0909 -0.0041
 6905TIP3    H142206   1.401   0.426  12.774 -0.0333 -2.0780 -0.3062
 6905TIP3    H242207   1.418   0.481  12.914  2.2011 -0.7946 -1.0294
 6906TIP3   OH242208   6.221   5.634  14.815 -0.3980  0.3270  0.0794
 6906TIP3    H142209   6.301   5.657  14.767  0.1920  1.4251  1.5298
 6906TIP3    H242210   6.150   5.671  14.763  0.1322  0.5003 -0.5388
 6907TIP3   OH242211   3.858   5.390  14.309  0.3827  0.3970  0.4892
 6907TIP3    H142212   3.864   5.297  14.330  0.3480  0.0055 -1.1233
 6907TIP3    H242213   3.845   5.433  14.394  0.7818 -1.0178  1.2960
 6908TIP3   OH242214   3.895   6.497   6.013  0.4792 -0.5130  0.0767
 6908TIP3    H142215   3.929   6.449   5.937  0.4293  0.1976 -0.4032
 6908TIP3    H242216   3.972   6.541   6.050  0.5549 -1.0810  0.6165
 6909TIP3   OH242217   1.537   2.779  12.997  0.0803  0.1339  0.0858
 6909TIP3    H142218   1.622   2.809  12.966  0.0059  0.5613  0.2869
 6909TIP3    H242219   1.553   2.690  13.029  0.7411  0.6697  1.3144
 6910TIP3   OH242220   5.230   3.300   1.287 -0.3878  0.6789  0.4907
 6910TIP3    H142221   5.185   3.221   1.317  0.0421  0.3133  0.1819
 6910TIP3    H242222   5.297   3.268   1.227 -1.1165  1.3705 -0.7556
 6911TIP3   OH242223   1.875   4.819  11.395  0.0782  0.3800  0.1692
 6911TIP3    H142224   1.823   4.750  11.355  0.6797 -1.3992  2.2295
 6911TIP3    H242225   1.840   4.900  11.359 -1.1867 -0.9486 -1.7596
 6912TIP3   OH242226   4.243   5.357  15.215  0.2292 -0.1720 -0.4218
 6912TIP3    H142227   4.220   5.426  15.153  2.0409  0.6427 -0.2464
 6912TIP3    H242228   4.316   5.393  15.265 -0.3148 -1.3294  1.2943
 6913TIP3   OH242229   0.634   5.755   1.826  0.5928  0.2975  1.0926
 6913TIP3    H142230   0.594   5.706   1.754  2.8480  0.0757 -0.0999
 6913TIP3    H242231   0.632   5.846   1.797  0.9307  0.2862  1.0322
 6914TIP3   OH242232   6.387   2.205   5.683 -0.4428 -0.0061  0.3433
 6914TIP3    H142233   6.453   2.271   5.661 -0.9849  0.2846 -0.4320
 6914TIP3    H242234   6.307   2.238   5.643 -1.3554  0.2727  2.2984
 6915TIP3   OH242235   2.939   6.510   0.721  0.0946 -0.1577  0.0808
 6915TIP3    H142236   2.966   6.457   0.646  1.4624 -0.3516  0.6731
 6915TIP3    H242237   3.021   6.547   0.755 -0.3561 -0.8535  2.0502
 6916TIP3   OH242238   3.882   1.952  11.193  0.3508 -0.1359 -0.1098
 6916TIP3    H142239   3.956   1.967  11.251  1.4237 -1.1076 -1.1788
 6916TIP3    H242240   3.921   1.936  11.107 -1.0903 -0.7748 -0.6859
 6917TIP3   OH242241   5.076   1.891   2.618 -0.0406 -0.2165 -0.7617
 6917TIP3    H142242   5.024   1.928   2.689 -1.8214  2.8518 -3.4166
 6917TIP3    H242243   5.164   1.926   2.632 -0.2229 -0.1079  0.2103
 6918TIP3   OH242244   4.092   1.292  15.070  0.1972 -0.5235 -0.1761
 6918TIP3    H142245   4.148   1.334  15.005  1.5206 -2.2503 -0.2047
 6918TIP3    H242246   4.003   1.305  15.036  0.6333  1.1192 -0.8066
 6919TIP3   OH242247   3.147   1.855   5.957  0.1936 -0.9582  0.2411
 6919TIP3    H142248   3.190   1.779   5.997 -1.9766 -2.9998 -1.0146
 6919TIP3    H242249   3.155   1.840   5.863 -0.7131  0.1004 -0.0232
 6920TIP3   OH242250   5.633   5.033   6.424  0.2532  0.2658  0.0453
 6920TIP3    H142251   5.704   5.032   6.360  2.1178  0.1757  1.9671
 6920TIP3    H242252   5.595   4.945   6.419  0.1969  0.3383 -1.0661
 6921TIP3   OH242253   2.055   6.124  13.623 -0.7725 -0.5648  0.0238
 6921TIP3    H142254   2.040   6.157  13.712  0.4871  0.5269 -0.1335
 6921TIP3    H242255   2.032   6.198  13.566  0.9813 -0.2966 -0.3995
 6922TIP3   OH242256   1.582   6.757   0.635  0.0117 -0.3281  0.4769
 6922TIP3    H142257   1.632   6.678   0.654  1.4608  1.2104  3.8997
 6922TIP3    H242258   1.647   6.818   0.600 -0.3651  0.3710  0.9912
 6923TIP3   OH242259   2.249   4.351   6.121  0.1122 -0.1055  0.4491
 6923TIP3    H142260   2.327   4.398   6.149  0.1011 -0.2506  0.7267
 6923TIP3    H242261   2.279   4.262   6.104  0.1059 -0.0345  0.0614
 6924TIP3   OH242262   0.295   5.560  13.750  0.2237 -0.4610  0.1424
 6924TIP3    H142263   0.253   5.532  13.832 -2.5259 -0.4424 -1.1588
 6924TIP3    H242264   0.247   5.638  13.725  0.5078 -0.8971 -1.8883
 6925TIP3   OH242265   4.812   3.117  12.493  0.7860 -0.1296  0.5989
 6925TIP3    H142266   4.862   3.062  12.432  1.6844 -0.2389  1.4041
 6925TIP3    H242267   4.754   3.057  12.539 -0.1713  0.0068 -0.3890
 6926TIP3   OH242268   1.030   5.414  13.168 -0.0704 -0.1701  0.0821
 6926TIP3    H142269   1.010   5.408  13.075 -2.4576  1.5220  0.3873
 6926TIP3    H242270   1.122   5.441  13.171 -0.5567  2.0630 -1.9043
 6927TIP3   OH242271   3.311   0.965  10.298 -0.0721  0.3888  0.1738
 6927TIP3    H142272   3.223   0.956  10.332 -0.1496 -1.9740 -0.5186
 6927TIP3    H242273   3.343   0.876  10.288  1.6152  1.1179 -1.6093
 6928TIP3   OH242274   4.725   6.099   0.591 -0.1587  0.1677 -0.3857
 6928TIP3    H142275   4.641   6.109   0.546  0.8575 -0.3251 -2.4848
 6928TIP3    H242276   4.776   6.174   0.563  0.0548  0.5953  1.0741
 6929TIP3   OH242277   3.141   2.660  12.640  0.2609  0.1465  0.0578
 6929TIP3    H142278   3.158   2.598  12.711 -0.3647  0.0952  0.1677
 6929TIP3    H242279   3.220   2.714  12.637  0.4506 -0.0935  0.5404
 6930TIP3   OH242280   1.844   5.526   2.370  0.2233  0.3888  0.0434
 6930TIP3    H142281   1.896   5.538   2.291  2.4620  0.2474  1.3809
 6930TIP3    H242282   1.889   5.580   2.436 -1.3802  0.2852  1.2765
 6931TIP3   OH242283   5.348   5.776   0.087  0.3376 -0.1634 -0.4829
 6931TIP3    H142284   5.373   5.842   0.151 -0.5287 -0.5519  0.2736
 6931TIP3    H242285   5.429   5.727   0.071  0.2460 -1.1459  1.6285
 6932TIP3   OH242286   6.801   6.325  15.526  0.0024  0.6451 -0.4136
 6932TIP3    H142287   6.894   6.316  15.546 -0.5177 -1.6078  1.3989
 6932TIP3    H242288   6.760   6.347  15.609 -1.2814 -0.3951 -0.7319
 6933TIP3   OH242289   6.431   3.268  17.119  0.7650  0.0978 -0.0043
 6933TIP3    H142290   6.383   3.349  17.103  1.2194  0.2860 -0.4433
 6933TIP3    H242291   6.383   3.201  17.071 -1.8243 -0.6829  3.3020
 6934TIP3   OH242292   6.621   6.719  11.275  0.0274  0.4535  0.1320
 6934TIP3    H142293   6.567   6.788  11.236 -0.3898 -0.5618 -1.1506
 6934TIP3    H242294   6.637   6.657  11.203  0.9847 -0.4227  1.0690
 6935TIP3   OH242295   0.315   2.085  11.912  0.5799  0.1227 -0.0575
 6935TIP3    H142296   0.298   2.103  11.820 -2.0166 -0.5262  0.2121
 6935TIP3    H242297   0.306   2.169  11.956 -0.5628  0.0557 -0.1360
 6936TIP3   OH242298   6.186   6.675  12.522  0.1615 -0.1034 -0.1182
 6936TIP3    H142299   6.202   6.769  12.510  1.4015 -0.4009 -0.9065
 6936TIP3    H242300   6.240   6.651  12.597 -2.4718  0.3737  2.1184
 6937TIP3   OH242301   6.087   3.342   0.959  0.1192  0.1252 -0.3808
 6937TIP3    H142302   6.182   3.337   0.948  0.1203  2.0441 -1.7139
 6937TIP3    H242303   6.062   3.255   0.992  2.2362 -0.6573 -0.6897
 6938TIP3   OH242304   3.059   0.986   3.894  0.5077 -0.6379  0.3496
 6938TIP3    H142305   3.053   0.896   3.925  1.0931 -0.7049  0.2798
 6938TIP3    H242306   3.106   0.979   3.811 -1.0604 -0.4723 -0.5975
 6939TIP3   OH242307   5.433   2.493  15.093  0.0992 -0.0253 -1.1143
 6939TIP3    H142308   5.420   2.582  15.126 -0.9426  0.4994 -2.7912
 6939TIP3    H242309   5.465   2.506  15.003 -1.1214 -1.3094 -1.7752
 6940TIP3   OH242310   3.664   1.370  15.263 -0.0919  0.1915 -0.0834
 6940TIP3    H142311   3.569   1.376  15.257 -0.5882  0.1117  4.2921
 6940TIP3    H242312   3.697   1.452  15.226 -2.3075  2.5419  2.7372
 6941TIP3   OH242313   2.384   6.636   3.198  0.4035  0.3135  0.3466
 6941TIP3    H142314   2.413   6.630   3.107  0.1449 -2.3894  0.3585
 6941TIP3    H242315   2.463   6.615   3.249  0.4355  1.3603  0.7362
 6942TIP3   OH242316   5.696   1.790   0.817 -0.2045  0.3219  0.2100
 6942TIP3    H142317   5.759   1.736   0.865 -0.0445  0.9859  0.7619
 6942TIP3    H242318   5.611   1.767   0.855 -0.3724 -0.9145 -0.8511
 6943TIP3   OH242319   2.103   2.581   4.499  0.0108 -0.1681  0.2203
 6943TIP3    H142320   2.158   2.654   4.473 -1.2170  0.9892  0.7686
 6943TIP3    H242321   2.163   2.506   4.503  1.3269  0.8283 -0.1740
 6944TIP3   OH242322   0.896   6.357  11.290  0.3137 -0.2736  0.1617
 6944TIP3    H142323   0.987   6.330  11.294  0.3223 -0.5125 -1.2447
 6944TIP3    H242324   0.864   6.347  11.380  1.3321 -1.3749  0.4229
 6945TIP3   OH242325   0.228   1.606   1.400  0.0304 -0.0058  0.0993
 6945TIP3    H142326   0.170   1.641   1.332 -1.2464 -4.1455 -1.2442
 6945TIP3    H242327   0.171   1.554   1.457  2.0140 -3.0611 -0.4094
 6946TIP3   OH242328   4.273   2.761   2.647  0.3117  0.3866  0.1665
 6946TIP3    H142329   4.347   2.717   2.604  0.1617  1.1195 -0.8555
 6946TIP3    H242330   4.313   2.809   2.720  0.3338 -2.4885  2.2250
 6947TIP3   OH242331   3.296   2.129  16.900 -0.4207  0.3098  0.7197
 6947TIP3    H142332   3.240   2.051  16.911  0.0530  0.2092  3.1571
 6947TIP3    H242333   3.377   2.106  16.947  0.4851  1.5772 -0.1765
 6948TIP3   OH242334   5.860   0.426   3.474  0.2526 -0.2632  0.0636
 6948TIP3    H142335   5.774   0.398   3.442 -0.1077 -0.0088  0.7984
 6948TIP3    H242336   5.922   0.385   3.413 -0.3609 -0.8742 -0.1696
 6949TIP3   OH242337   3.682   2.254   0.167 -0.4113  0.2546  0.0119
 6949TIP3    H142338   3.620   2.324   0.185  2.1943  2.3554  1.7205
 6949TIP3    H242339   3.693   2.210   0.252  1.0168  0.5148 -0.0110
 6950TIP3   OH242340   4.145   6.537  12.526  0.0290  0.2341 -0.2875
 6950TIP3    H142341   4.157   6.587  12.446 -0.2968  0.1265 -0.4052
 6950TIP3    H242342   4.126   6.603  12.593  2.2715  0.5404  0.1537
 6951TIP3   OH242343   2.743   0.209   4.790 -0.0829 -0.3135 -0.4603
 6951TIP3    H142344   2.655   0.202   4.753 -0.2822 -2.3499  0.2722
 6951TIP3    H242345   2.767   0.119   4.812  0.7691  0.5540  2.6074
 6952TIP3   OH242346   5.181   6.653   0.286  0.4457  0.6177 -0.3889
 6952TIP3    H142347   5.116   6.690   0.227  0.1021  0.9623  0.1950
 6952TIP3    H242348   5.265   6.684   0.252  0.1446  2.6312  0.4997
 6953TIP3   OH242349   5.421   6.575   0.548 -0.4758 -0.1876  0.1205
 6953TIP3    H142350   5.489   6.601   0.610  0.2109 -1.4223 -0.0861
 6953TIP3    H242351   5.433   6.633   0.473  2.0600 -1.9714 -1.0112
 6954TIP3   OH242352   5.544   3.376  13.423 -0.2051 -0.2360  0.2946
 6954TIP3    H142353   5.613   3.319  13.458 -0.3856 -0.0880  0.9098
 6954TIP3    H242354   5.480   3.315  13.385 -0.6093 -0.4893  1.3281
 6955TIP3   OH242355   2.092   3.162  10.644 -0.0488  0.1529 -0.2654
 6955TIP3    H142356   2.033   3.138  10.572 -0.5657  2.9318 -0.8891
 6955TIP3    H242357   2.158   3.219  10.603  0.7372  0.2842  1.1266
 6956TIP3   OH242358   4.800   1.409   0.827  0.1766 -0.1599 -0.0836
 6956TIP3    H142359   4.865   1.346   0.796  2.0204  0.8524  1.4681
 6956TIP3    H242360   4.724   1.356   0.852  1.1770 -1.6285 -0.0648
 6957TIP3   OH242361   2.574   3.411  11.019 -0.0225 -0.1014  0.6601
 6957TIP3    H142362   2.575   3.315  11.009 -0.7308 -0.0020 -0.7264
 6957TIP3    H242363   2.650   3.441  10.969 -0.8366  0.1404 -0.4834
 6958TIP3   OH242364   4.654   3.242  16.854  0.0946  0.0004 -0.3158
 6958TIP3    H142365   4.741   3.214  16.825 -0.0283 -1.1284  0.3452
 6958TIP3    H242366   4.593   3.191  16.801 -0.1625  0.3324 -0.3425
 6959TIP3   OH242367   2.575   3.469  16.332 -0.2302 -0.0871  0.1649
 6959TIP3    H142368   2.545   3.560  16.329  0.8138  0.2731  0.3937
 6959TIP3    H242369   2.666   3.475  16.359  0.2979 -1.0949 -1.2963
 6960TIP3   OH242370   0.084   6.175  16.464  0.2898  0.0069  0.1007
 6960TIP3    H142371   0.140   6.132  16.529 -0.7071  3.2039  3.3953
 6960TIP3    H242372  -0.005   6.150  16.489 -0.1005  1.1533 -0.0899
 6961TIP3   OH242373   1.507   0.713   5.201  0.2520  0.4028  0.0576
 6961TIP3    H142374   1.429   0.760   5.172  0.5391  1.0322  0.2967
 6961TIP3    H242375   1.499   0.626   5.161 -0.7465  0.3442  0.3593
 6962TIP3   OH242376   1.971   1.142  13.786 -0.2708  0.3141  0.6157
 6962TIP3    H142377   1.908   1.187  13.729  1.9515  0.9758 -1.4569
 6962TIP3    H242378   1.974   1.053  13.753  0.4430  0.4928  0.1783
 6963TIP3   OH242379   1.615   5.539  15.191  0.2886  0.2808  0.4200
 6963TIP3    H142380   1.576   5.582  15.267 -1.3661 -0.5692  0.1082
 6963TIP3    H242381   1.553   5.555  15.120  0.5263 -1.1060 -0.1231
 6964TIP3   OH242382   3.431   2.978   3.984 -0.2154 -0.0861  0.0727
 6964TIP3    H142383   3.412   3.038   4.056 -1.0169 -0.1223 -0.1083
 6964TIP3    H242384   3.346   2.943   3.958  0.1336 -0.5276 -0.4993
 6965TIP3   OH242385   6.667   1.016  12.305 -0.4868  0.7430  0.0762
 6965TIP3    H142386   6.579   1.034  12.273  0.0813  1.3205 -1.2304
 6965TIP3    H242387   6.659   1.019  12.401 -1.5175  2.7170 -0.0134
 6966TIP3   OH242388   3.763   2.205  15.680  0.0595  0.5781 -0.1979
 6966TIP3    H142389   3.844   2.237  15.641  1.5613 -1.0780  1.3389
 6966TIP3    H242390   3.733   2.276  15.737 -0.0423  1.5089 -1.3908
 6967TIP3   OH242391   1.123   1.286  17.094 -0.3129  0.3162 -0.8200
 6967TIP3    H142392   1.029   1.292  17.107 -0.3495 -0.1292 -0.8381
 6967TIP3    H242393   1.148   1.369  17.055 -0.7244  0.3693 -0.9754
 6968TIP3   OH242394   4.264   5.265  11.733  0.3574  0.0276 -0.2633
 6968TIP3    H142395   4.244   5.331  11.666  1.0440  0.8849  0.3457
 6968TIP3    H242396   4.212   5.292  11.809  3.3013  2.0872  1.2287
 6969TIP3   OH242397   2.258   0.470  16.603  0.0567  0.3895 -0.3699
 6969TIP3    H142398   2.301   0.427  16.677  0.3210  1.1894 -0.0447
 6969TIP3    H242399   2.293   0.427  16.526 -0.1943 -0.4345 -0.0338
 6970TIP3   OH242400   5.479   3.619  12.984  0.1322  0.1122  0.2864
 6970TIP3    H142401   5.525   3.619  13.067  0.9049 -0.1557 -0.1336
 6970TIP3    H242402   5.483   3.710  12.954 -0.3595  0.2588  0.6478
 6971TIP3   OH242403   1.390   4.255  14.790  0.1961 -0.5161  0.3746
 6971TIP3    H142404   1.364   4.331  14.738 -1.0819 -0.6487  0.7952
 6971TIP3    H242405   1.415   4.189  14.725  0.7379  0.0549 -0.0039
 6972TIP3   OH242406   1.895   1.360   1.143  0.2568 -0.2888  0.6157
 6972TIP3    H142407   1.844   1.291   1.185 -0.9810 -0.0181 -0.3770
 6972TIP3    H242408   1.883   1.346   1.049  1.1973  0.4017  0.3665
 6973TIP3   OH242409   3.538   5.514  14.551  0.0134  0.6621  0.1033
 6973TIP3    H142410   3.576   5.433  14.585 -0.3186 -0.5951 -2.2642
 6973TIP3    H242411   3.613   5.568  14.527  0.2721  0.2617 -0.0058
 6974TIP3   OH242412   3.853   0.244  16.174 -0.2570 -0.8178  0.0341
 6974TIP3    H142413   3.945   0.270  16.180 -0.4286 -0.5166  2.2960
 6974TIP3    H242414   3.808   0.325  16.149  0.2177 -1.4323 -3.3096
 6975TIP3   OH242415   1.239   6.817   4.098  0.1386  0.1362 -0.2011
 6975TIP3    H142416   1.250   6.758   4.172  0.1035 -0.4401 -0.6519
 6975TIP3    H242417   1.191   6.766   4.033 -1.1670  1.1128 -0.0497
 6976TIP3   OH242418   3.702   2.090  14.397  0.3607  0.0197  0.4202
 6976TIP3    H142419   3.679   2.176  14.433  0.5239  0.2390  0.0005
 6976TIP3    H242420   3.797   2.087  14.401  0.3302 -0.4706  1.1801
 6977TIP3   OH242421   5.407   3.052  16.435 -0.1978 -0.2820  0.6825
 6977TIP3    H142422   5.435   3.007  16.355  0.1137  1.6393 -0.3349
 6977TIP3    H242423   5.481   3.106  16.459 -1.5331  1.8525  0.2228
 6978TIP3   OH242424   5.778   3.668  15.691 -0.8938  0.1336  0.7352
 6978TIP3    H142425   5.817   3.661  15.778  2.7620 -1.9762 -0.8592
 6978TIP3    H242426   5.843   3.715  15.639 -2.6443  0.6692 -1.0881
 6979TIP3   OH242427   5.748   5.025   1.028 -0.1655 -0.1116  0.1573
 6979TIP3    H142428   5.761   4.945   1.079  1.5442 -1.8656 -2.7612
 6979TIP3    H242429   5.675   5.005   0.970 -0.5833  0.9533  0.3019
 6980TIP3   OH242430   6.522   3.455   5.621  0.5583 -0.6487 -0.1438
 6980TIP3    H142431   6.472   3.524   5.579 -0.1914 -1.5050 -0.7087
 6980TIP3    H242432   6.480   3.443   5.706  0.7003 -0.3891 -0.0388
 6981TIP3   OH242433   2.394   3.262   3.910  0.0552 -0.3016 -0.1893
 6981TIP3    H142434   2.471   3.205   3.905  0.9894  0.9986 -1.3008
 6981TIP3    H242435   2.384   3.281   4.003  0.3438 -1.4324  0.0889
 6982TIP3   OH242436   3.757   6.244  13.258  0.0209  0.2794  0.0762
 6982TIP3    H142437   3.699   6.170  13.275 -1.3691  1.7631  2.3696
 6982TIP3    H242438   3.816   6.246  13.333 -0.0533  1.5510  0.1291
 6983TIP3   OH242439   3.294   4.320   2.108  0.2009 -0.2238 -0.2423
 6983TIP3    H142440   3.208   4.359   2.124  0.3133  1.2352 -2.6358
 6983TIP3    H242441   3.352   4.362   2.171 -0.6206 -0.3126  0.5836
 6984TIP3   OH242442   2.250   0.157   2.630  0.0534 -0.2714 -0.5831
 6984TIP3    H142443   2.196   0.234   2.612  1.4000  0.5961 -1.1432
 6984TIP3    H242444   2.247   0.106   2.549  0.0168 -0.2590 -0.5895
 6985TIP3   OH242445   0.856   5.789   3.782 -0.4195  0.0006  0.5853
 6985TIP3    H142446   0.834   5.774   3.874 -0.1092  1.6014  0.9476
 6985TIP3    H242447   0.811   5.871   3.760 -1.9872 -1.2476 -1.2406
 6986TIP3   OH242448   3.257   0.108   0.712  0.0625  0.0138  0.1426
 6986TIP3    H142449   3.320   0.149   0.772  0.7609  0.4840 -0.8721
 6986TIP3    H242450   3.305   0.035   0.673 -0.5389 -0.5743  0.4894
 6987TIP3   OH242451   1.533   2.697  14.334 -0.2947 -0.1233 -0.0022
 6987TIP3    H142452   1.529   2.606  14.307 -1.0484 -0.2051  0.3358
 6987TIP3    H242453   1.493   2.745  14.262 -0.4033 -0.1257  0.0548
 6988TIP3   OH242454   5.821   2.639  13.670  0.3834  0.3013 -0.0408
 6988TIP3    H142455   5.813   2.552  13.631 -0.0521  0.1904  0.2893
 6988TIP3    H242456   5.838   2.623  13.762 -0.9288  0.5455  0.2714
 6989TIP3   OH242457   1.704   1.586  16.879 -0.6628  0.3660  0.4161
 6989TIP3    H142458   1.613   1.567  16.855 -0.6544 -0.2908  0.8913
 6989TIP3    H242459   1.756   1.533  16.819 -0.5940  0.6131  0.2562
 6990TIP3   OH242460   0.790   5.008  16.323  0.4428 -0.0373  0.1930
 6990TIP3    H142461   0.777   5.071  16.251  0.9221 -0.0445  0.1009
 6990TIP3    H242462   0.766   5.057  16.402  2.1584  0.7362  0.2840
 6991TIP3   OH242463   2.911   3.156   3.652 -0.4455  0.6164 -0.1246
 6991TIP3    H142464   2.882   3.153   3.743 -1.2224  0.2448 -0.3799
 6991TIP3    H242465   2.950   3.070   3.637  1.7560  1.4233  0.5042
 6992TIP3   OH242466   1.310   1.818   0.783 -0.4027 -0.3904 -0.4327
 6992TIP3    H142467   1.396   1.779   0.799 -0.3470  0.5726  1.9706
 6992TIP3    H242468   1.253   1.743   0.765  0.3791 -1.3107  0.7643
 6993TIP3   OH242469   2.046   6.377  10.119 -0.1723  0.0199  0.2574
 6993TIP3    H142470   2.027   6.446  10.183 -0.3356 -1.7138  2.1892
 6993TIP3    H242471   1.975   6.382  10.056  1.1240  3.1790 -1.1319
 6994TIP3   OH242472   0.673   0.995   1.624 -0.5039 -0.2932  0.0692
 6994TIP3    H142473   0.714   0.915   1.656 -0.2801 -1.1154 -2.1269
 6994TIP3    H242474   0.745   1.058   1.616 -0.3398 -0.4899 -0.0140
 6995TIP3   OH242475   3.903   2.132  10.713  0.1892  0.5606  0.0168
 6995TIP3    H142476   3.827   2.167  10.761  0.2402 -0.8430  1.1815
 6995TIP3    H242477   3.964   2.105  10.781  0.3573 -1.3062 -0.8275
 6996TIP3   OH242478   2.041   2.940  12.928  0.3903  0.7255  0.2860
 6996TIP3    H142479   2.078   3.028  12.939  0.8330  0.6325 -0.4270
 6996TIP3    H242480   2.030   2.930  12.834  0.8272 -0.1792  0.3209
 6997TIP3   OH242481   0.439   6.133   0.479 -0.5063  0.7281  0.4665
 6997TIP3    H142482   0.407   6.215   0.442 -1.6022  0.0764 -0.1170
 6997TIP3    H242483   0.448   6.075   0.403 -0.6007  0.0558  0.9587
 6998TIP3   OH242484   3.067   5.479   4.710 -0.8236  0.0997 -0.1523
 6998TIP3    H142485   3.146   5.476   4.656 -1.2021 -2.1132 -0.6868
 6998TIP3    H242486   3.098   5.505   4.797  0.7596 -2.0824  0.0052
 6999TIP3   OH242487   1.758   4.844  16.805 -0.4348 -0.8679 -0.7592
 6999TIP3    H142488   1.758   4.813  16.896  1.3256 -0.1695 -0.4846
 6999TIP3    H242489   1.720   4.772  16.755 -0.2011 -1.8028  0.3573
 7000TIP3   OH242490   6.033   1.775  11.298 -0.5667  0.1117 -0.0636
 7000TIP3    H142491   6.121   1.775  11.261 -0.1843 -0.0821  0.8138
 7000TIP3    H242492   5.977   1.746  11.226  0.3686 -2.0149 -0.0053
 7001TIP3   OH242493   5.283   2.966  14.862 -0.1310 -0.0687  0.4857
 7001TIP3    H142494   5.307   2.982  14.954 -0.8268 -0.5211  0.7559
 7001TIP3    H242495   5.194   3.001  14.855 -0.6508 -1.3329  0.3863
 7002TIP3   OH242496   3.297   6.656  13.790 -0.1165  0.2145 -0.6389
 7002TIP3    H142497   3.343   6.623  13.867 -2.1887 -0.3627  0.4120
 7002TIP3    H242498   3.286   6.750  13.807  1.2458  0.5196 -1.2519
 7003TIP3   OH242499   5.712   4.935  15.271  0.5876  0.1885  0.2499
 7003TIP3    H142500   5.637   4.930  15.329  0.5878  2.1795  0.4667
 7003TIP3    H242501   5.763   4.856  15.292 -0.2517  0.0021  1.7517
 7004TIP3   OH242502   1.786   2.200  13.115 -0.0562 -0.4875 -0.1659
 7004TIP3    H142503   1.724   2.272  13.126 -1.7821 -1.9491  0.1547
 7004TIP3    H242504   1.731   2.122  13.112  1.9208 -2.3399  4.1716
 7005TIP3   OH242505   1.237   3.693   5.733 -0.2755 -0.0653  0.2142
 7005TIP3    H142506   1.325   3.722   5.712 -0.8172  1.7274  0.2548
 7005TIP3    H242507   1.246   3.651   5.819  0.6470 -0.5378 -0.1036
 7006TIP3   OH242508   6.646   0.688   4.191 -0.4945  0.0384  0.1824
 7006TIP3    H142509   6.682   0.763   4.144 -0.4847 -0.7324 -1.0635
 7006TIP3    H242510   6.720   0.651   4.238  0.9674 -2.5842 -3.7155
 7007TIP3   OH242511   5.534   3.269  10.219  0.0548  0.1263  0.1629
 7007TIP3    H142512   5.554   3.352  10.263 -1.1234 -0.2891  1.5986
 7007TIP3    H242513   5.588   3.204  10.264 -0.5160 -0.1740  0.4351
 7008TIP3   OH242514   5.143   2.934  17.257 -0.3083 -0.3817 -0.2745
 7008TIP3    H142515   5.064   2.882  17.241 -0.2596 -1.0382  1.4511
 7008TIP3    H242516   5.185   2.941  17.172 -0.5737 -2.7544 -0.6545
 7009TIP3   OH242517   2.182   3.290   4.518 -0.3960 -0.4058  0.0353
 7009TIP3    H142518   2.265   3.338   4.523 -0.2993 -0.2950 -1.8394
 7009TIP3    H242519   2.205   3.201   4.544  0.3235 -0.3661 -0.4128
 7010TIP3   OH242520   1.495   2.309  11.400  0.2258  0.0570 -0.3854
 7010TIP3    H142521   1.501   2.399  11.432 -0.7626 -0.2064  0.6280
 7010TIP3    H242522   1.471   2.318  11.308 -0.9504  0.8539 -0.0330
 7011TIP3   OH242523   0.279   6.517  14.194 -0.3860 -0.1560  0.4183
 7011TIP3    H142524   0.348   6.581  14.178 -0.2013 -0.8691 -2.1497
 7011TIP3    H242525   0.324   6.443  14.236  0.1506 -0.0786 -0.0118
 7012TIP3   OH242526   1.402   3.284   4.726  0.2657 -0.5097  0.8969
 7012TIP3    H142527   1.494   3.278   4.753  1.1856  2.1749 -1.1640
 7012TIP3    H242528   1.354   3.296   4.808  1.7098 -1.9241  2.0268
 7013TIP3   OH242529   2.449   6.604  11.410 -0.2636 -0.1868  0.9729
 7013TIP3    H142530   2.496   6.562  11.338 -0.0643 -1.1006  1.6308
 7013TIP3    H242531   2.498   6.685  11.426  0.3012 -0.4821  0.7735
 7014TIP3   OH242532   3.445   4.472  14.466  0.0675  0.4011  0.1666
 7014TIP3    H142533   3.460   4.439  14.555 -0.7572 -0.7771 -0.1069
 7014TIP3    H242534   3.530   4.467  14.423  0.0859 -0.8341  0.3189
 7015TIP3   OH242535   2.929   1.165   4.577  0.0365  0.0171 -0.4891
 7015TIP3    H142536   2.957   1.132   4.492 -0.5276 -0.8042 -0.3623
 7015TIP3    H242537   2.871   1.098   4.611  0.5141  0.1824  0.6981
 7016TIP3   OH242538   6.436   3.251   0.565 -0.1208 -0.6235 -0.2222
 7016TIP3    H142539   6.346   3.264   0.538  0.2310  0.5293 -0.9090
 7016TIP3    H242540   6.468   3.338   0.587  0.0259 -1.3251  2.7507
 7017TIP3   OH242541   5.499   4.206  11.135 -0.7942 -0.0117  0.5880
 7017TIP3    H142542   5.530   4.294  11.114  0.0875 -0.6293 -0.8311
 7017TIP3    H242543   5.458   4.215  11.221 -1.0356  1.8509  0.3224
 7018TIP3   OH242544   0.342   5.500  15.761  0.3278  0.7770 -0.3759
 7018TIP3    H142545   0.329   5.430  15.825 -0.0767  0.6368 -0.6067
 7018TIP3    H242546   0.266   5.558  15.772  1.4164  2.0461  0.8861
 7019TIP3   OH242547   1.445   1.206  13.627 -0.2167 -0.2821 -0.5085
 7019TIP3    H142548   1.469   1.146  13.698  1.6464  0.6978 -0.2534
 7019TIP3    H242549   1.370   1.255  13.661 -0.5444 -1.1273  0.0182
 7020TIP3   OH242550   5.014   0.824  12.754 -0.9090  0.7083 -0.0006
 7020TIP3    H142551   4.935   0.868  12.785 -1.0589 -1.2380  2.7568
 7020TIP3    H242552   4.982   0.768  12.682 -1.7496  1.0763  0.0688
 7021TIP3   OH242553   1.949   1.638   0.639  0.9599  0.2519  0.0238
 7021TIP3    H142554   1.907   1.572   0.694 -0.3837 -1.7907 -3.1696
 7021TIP3    H242555   1.882   1.705   0.626  0.0187 -0.9661 -1.7530
 7022TIP3   OH242556   5.797   5.282   2.184  0.0376  0.1198  0.2431
 7022TIP3    H142557   5.725   5.312   2.129  1.1035  0.0609 -1.2335
 7022TIP3    H242558   5.770   5.306   2.273 -0.7534  2.1997 -0.5013
 7023TIP3   OH242559   1.190   3.131   2.096  0.3487  0.5744 -0.1758
 7023TIP3    H142560   1.259   3.196   2.103  1.9457 -0.9539 -0.8209
 7023TIP3    H242561   1.212   3.065   2.163 -2.0043  1.2914  1.4511
 7024TIP3   OH242562   4.359   0.362   0.892  0.1473  0.4747  0.3034
 7024TIP3    H142563   4.386   0.410   0.814  0.5918 -1.4520 -0.7865
 7024TIP3    H242564   4.440   0.348   0.941  0.2792 -0.4577 -0.1588
 7025TIP3   OH242565   1.197   4.689  13.542  0.0643 -0.1320 -0.1130
 7025TIP3    H142566   1.187   4.601  13.506 -0.4764  0.1374 -0.6329
 7025TIP3    H242567   1.131   4.696  13.610  0.2156 -0.1832  0.0398
 7026TIP3   OH242568   3.888   5.712   4.216 -0.6325  0.2315  0.2486
 7026TIP3    H142569   3.932   5.792   4.246  0.1376  0.5568 -1.5905
 7026TIP3    H242570   3.953   5.643   4.229 -0.4865  0.2884 -0.1546
 7027TIP3   OH242571   0.653   1.707   6.301 -0.5514  0.0712 -0.1768
 7027TIP3    H142572   0.738   1.673   6.274 -0.4840 -1.7609  2.0674
 7027TIP3    H242573   0.674   1.789   6.347  0.1730 -0.9212  1.3357
 7028TIP3   OH242574   1.055   3.623   5.474 -0.4358  0.6462 -0.1189
 7028TIP3    H142575   1.046   3.527   5.470 -0.0670  0.6391 -0.7949
 7028TIP3    H242576   1.126   3.637   5.536 -2.3689  0.5924  2.2865
 7029TIP3   OH242577   2.977   5.034  15.005  0.0249 -0.2886  0.9070
 7029TIP3    H142578   2.953   5.087  14.929  1.0700 -1.9037 -0.6249
 7029TIP3    H242579   2.900   5.038  15.062  0.0685  2.8644  0.9413
 7030TIP3   OH242580   4.114   0.361  16.197  0.4171 -0.1561 -0.2791
 7030TIP3    H142581   4.178   0.357  16.268  0.9982  0.4119 -0.7492
 7030TIP3    H242582   4.166   0.347  16.118 -0.1358 -0.2524 -0.6275
 7031TIP3   OH242583   5.894   4.192  14.970 -0.1863 -0.1853 -0.6753
 7031TIP3    H142584   5.982   4.158  14.955 -0.7466 -1.1222 -2.0245
 7031TIP3    H242585   5.901   4.285  14.946  0.9315  0.3334  1.3871
 7032TIP3   OH242586   2.650   6.823  15.413  0.2500  0.0687  0.2722
 7032TIP3    H142587   2.580   6.770  15.453 -0.1058  1.2660  1.2971
 7032TIP3    H242588   2.716   6.759  15.387 -0.5629 -0.9656  0.6721
 7033TIP3   OH242589   4.309   2.560  11.935 -0.4086 -0.1249 -0.3507
 7033TIP3    H142590   4.320   2.609  11.854  0.8750 -2.4549 -1.6992
 7033TIP3    H242591   4.394   2.564  11.978  0.2934 -2.4737 -1.3558
 7034TIP3   OH242592   3.421   5.017  14.004 -0.3414 -0.0827 -0.4097
 7034TIP3    H142593   3.353   4.992  13.941  0.0293  0.0964 -0.8883
 7034TIP3    H242594   3.498   5.033  13.950 -0.0739  0.2708  0.0756
 7035TIP3   OH242595   3.715   2.355   4.084  0.0975 -0.0372 -0.2329
 7035TIP3    H142596   3.705   2.409   4.162 -0.3177  0.9042 -0.9166
 7035TIP3    H242597   3.800   2.380   4.049 -0.6480  1.1622 -1.2623
 7036TIP3   OH242598   4.885   0.997  15.395 -0.1942  0.1979  0.5561
 7036TIP3    H142599   4.879   0.902  15.399 -3.2171  0.3191  1.0039
 7036TIP3    H242600   4.824   1.023  15.326  0.0861  1.8344  0.8685
 7037TIP3   OH242601   6.119   3.907   3.464  0.0566  0.4295 -0.0871
 7037TIP3    H142602   6.173   3.828   3.462  0.0690  0.4531 -1.7006
 7037TIP3    H242603   6.121   3.940   3.374 -3.7689 -0.3584 -0.6714
 7038TIP3   OH242604   5.584   0.026   2.098 -0.3171 -0.1635 -0.1652
 7038TIP3    H142605   5.598  -0.040   2.166 -1.0452  0.7093  0.8767
 7038TIP3    H242606   5.488   0.036   2.094 -0.2905 -0.2336 -1.3620
 7039TIP3   OH242607   6.391   6.293  14.053  0.9933  0.1308  0.1105
 7039TIP3    H142608   6.456   6.223  14.047 -0.3040 -1.4521  2.4936
 7039TIP3    H242609   6.419   6.345  14.129 -0.7799 -1.0282  1.6595
 7040TIP3   OH242610   5.895   5.091  16.109 -0.3475  0.2562 -0.5839
 7040TIP3    H142611   5.926   5.011  16.066  0.0375 -0.8818  1.6195
 7040TIP3    H242612   5.973   5.145  16.119 -0.2301  0.0571 -0.4035
 7041TIP3   OH242613   4.194   5.066   4.588  0.0830 -0.5887  0.1544
 7041TIP3    H142614   4.252   4.990   4.586 -0.5523 -1.0704 -0.7735
 7041TIP3    H242615   4.122   5.043   4.529  0.1678  0.9726 -0.6001
 7042TIP3   OH242616   3.860   4.747   1.008  0.0445  0.2596 -0.0403
 7042TIP3    H142617   3.824   4.662   0.984  1.1761 -0.5821  1.0740
 7042TIP3    H242618   3.947   4.727   1.044  0.6844  1.9689 -0.5056
 7043TIP3   OH242619   4.677   0.112  15.377  0.1995  0.5703 -0.3467
 7043TIP3    H142620   4.715   0.025  15.384  3.0814  1.7217 -0.2060
 7043TIP3    H242621   4.603   0.112  15.437  1.5890 -1.0744  1.4518
 7044TIP3   OH242622   1.932   4.172   3.700  0.0236 -0.7743 -0.0224
 7044TIP3    H142623   1.861   4.109   3.684 -0.2297 -0.5219  0.0857
 7044TIP3    H242624   2.004   4.119   3.734 -1.1263 -0.7005  2.8791
 7045TIP3   OH242625   4.652   4.980   3.866 -0.5677 -0.1214  0.2986
 7045TIP3    H142626   4.604   4.947   3.790  0.8046 -1.9292  0.1344
 7045TIP3    H242627   4.650   5.075   3.857  1.1154 -0.2763 -3.0571
 7046TIP3   OH242628   2.048   6.213  12.873  0.0615  0.0973 -0.6052
 7046TIP3    H142629   2.045   6.281  12.941 -1.3675 -1.5947  1.1629
 7046TIP3    H242630   2.116   6.242  12.813  0.0205  2.6919  0.4672
 7047TIP3   OH242631   4.225   6.757  15.315  0.0217 -0.1711 -0.9854
 7047TIP3    H142632   4.186   6.801  15.239  0.9240  2.2029 -0.1816
 7047TIP3    H242633   4.200   6.812  15.390  0.6233 -1.4597  0.2056
 7048TIP3   OH242634   3.760   6.401  12.404  0.2573  0.2905  0.1082
 7048TIP3    H142635   3.827   6.425  12.468  0.5771  2.0852 -0.7962
 7048TIP3    H242636   3.761   6.474  12.342 -0.5182 -1.0380 -1.5442
 7049TIP3   OH242637   3.220   4.830   5.172  0.1401  0.3694  0.3818
 7049TIP3    H142638   3.201   4.737   5.180  0.2547  0.3614  0.5749
 7049TIP3    H242639   3.271   4.851   5.250  2.0765  0.1019 -0.7507
 7050TIP3   OH242640   6.058   0.872  12.030 -0.4057  0.2701 -0.6028
 7050TIP3    H142641   6.052   0.958  11.990 -0.3632 -0.3585 -2.0335
 7050TIP3    H242642   6.130   0.828  11.983  0.3942 -0.1269  0.9348
 7051TIP3   OH242643   1.398   4.050   3.040 -0.5352  0.2258 -0.0892
 7051TIP3    H142644   1.331   4.058   3.108  0.5969  0.6276  1.0339
 7051TIP3    H242645   1.411   3.956   3.030  0.6000  0.1465  1.6587
 7052TIP3   OH242646   0.524   3.488  10.092 -0.0537 -0.2579 -0.3004
 7052TIP3    H142647   0.594   3.424  10.103  0.0685 -0.2106 -0.8067
 7052TIP3    H242648   0.495   3.477  10.002 -0.6434 -0.2164 -0.1171
 7053TIP3   OH242649   6.477   4.522   3.860 -0.0804 -0.3477 -0.2416
 7053TIP3    H142650   6.563   4.541   3.820 -0.9194  0.0735 -1.9618
 7053TIP3    H242651   6.459   4.432   3.836 -0.4964 -0.1596 -0.6512
 7054TIP3   OH242652   4.301   6.028  13.147 -0.5296 -0.2311  0.8909
 7054TIP3    H142653   4.283   6.060  13.235  0.3386  2.9465  0.0374
 7054TIP3    H242654   4.387   6.063  13.125 -0.6266 -1.1041 -1.1562
 7055TIP3   OH242655   0.224   4.676   0.140 -0.3730  0.7092  0.1664
 7055TIP3    H142656   0.243   4.657   0.232 -0.7124 -2.1063 -0.2534
 7055TIP3    H242657   0.273   4.755   0.121  0.3308  0.9229  2.5635
 7056TIP3   OH242658   5.316   6.470  10.997 -0.4780  0.2499  0.1504
 7056TIP3    H142659   5.220   6.477  10.995 -0.4501  0.6231  0.1449
 7056TIP3    H242660   5.347   6.560  11.000 -0.1472  0.1042  1.6939
 7057TIP3   OH242661   0.170   1.891  13.256  0.0184 -0.2737  0.0893
 7057TIP3    H142662   0.205   1.941  13.329 -0.8725  0.2477  0.1671
 7057TIP3    H242663   0.091   1.938  13.229  0.1378 -0.6455 -0.9833
 7058TIP3   OH242664   4.887   1.192  12.083  0.2772  0.2214 -0.5041
 7058TIP3    H142665   4.979   1.217  12.086 -0.4673  3.2700  1.4688
 7058TIP3    H242666   4.841   1.274  12.067 -2.1841 -0.9229  0.3026
 7059TIP3   OH242667   4.821   6.686  15.986 -0.0563  0.5952  0.3588
 7059TIP3    H142668   4.898   6.708  16.038  0.6140 -0.8483  0.0066
 7059TIP3    H242669   4.754   6.665  16.051  0.6208 -0.6738  0.6672
 7060TIP3   OH242670   6.240   6.292   6.002  0.0610 -0.2101  0.0295
 7060TIP3    H142671   6.154   6.329   6.020  0.4563  0.1831  1.1497
 7060TIP3    H242672   6.293   6.314   6.078  0.5970 -2.1981  0.2933
 7061TIP3   OH242673   5.734   4.171  17.060 -0.0755 -0.4216 -0.6121
 7061TIP3    H142674   5.666   4.170  16.994 -0.4856  0.1335 -0.2126
 7061TIP3    H242675   5.757   4.264  17.069  0.0605 -0.5052 -0.0670
 7062TIP3   OH242676   2.461   6.276   3.144  0.0285  0.0620 -0.0938
 7062TIP3    H142677   2.489   6.341   3.209  1.1566  0.5047 -0.9978
 7062TIP3    H242678   2.536   6.218   3.134  1.2555  1.9582 -3.4309
 7063TIP3   OH242679   0.250   3.788  16.056 -0.6083 -0.2300 -0.4574
 7063TIP3    H142680   0.204   3.710  16.025 -0.6572 -0.2255 -0.3973
 7063TIP3    H242681   0.265   3.772  16.149  1.5913 -1.2745 -0.9168
 7064TIP3   OH242682   5.774   0.442  11.725 -0.1323  0.1439 -0.3307
 7064TIP3    H142683   5.734   0.459  11.640  0.5598  1.6915 -0.3864
 7064TIP3    H242684   5.858   0.400  11.704  0.2148  0.8736 -0.4637
 7065TIP3   OH242685   6.554   6.725  14.325 -0.1590  0.1823 -0.6752
 7065TIP3    H142686   6.480   6.720  14.264 -1.0511 -2.2442  0.4886
 7065TIP3    H242687   6.515   6.751  14.408  0.2042 -1.3866  0.0147
 7066TIP3   OH242688   3.886   6.776   1.980  0.3564 -0.1312  0.1604
 7066TIP3    H142689   3.881   6.869   2.004 -0.1145  0.3233 -1.5754
 7066TIP3    H242690   3.801   6.740   2.004  0.0887  0.1841 -0.3092
 7067TIP3   OH242691   6.778   6.080   4.692 -0.4463 -0.0508  0.4965
 7067TIP3    H142692   6.821   6.107   4.773 -0.3066  1.3716 -0.0295
 7067TIP3    H242693   6.843   6.027   4.646 -0.1017  0.1378  0.7652
 7068TIP3   OH242694   1.339   4.241   4.551 -0.0119 -0.2055 -0.5660
 7068TIP3    H142695   1.347   4.260   4.458 -1.0559 -1.0843 -0.8697
 7068TIP3    H242696   1.407   4.176   4.569 -1.5291 -2.1241 -1.3963
 7069TIP3   OH242697   3.603   2.013  13.209  0.0312 -0.9595  0.2303
 7069TIP3    H142698   3.690   1.983  13.233  1.4940  1.2984 -1.8318
 7069TIP3    H242699   3.546   1.939  13.228  2.4938 -2.8198  0.8594
 7070TIP3   OH242700   5.993   2.013   4.803  0.2386  0.3424  0.1928
 7070TIP3    H142701   5.998   2.086   4.740  1.5271 -0.6207 -0.8941
 7070TIP3    H242702   5.919   1.961   4.773  0.1940  0.4544  0.1045
 7071TIP3   OH242703   5.967   5.596   0.470 -0.0089 -0.8839 -0.0004
 7071TIP3    H142704   6.007   5.539   0.404  0.4234 -2.0868  1.2381
 7071TIP3    H242705   5.876   5.566   0.475 -0.6761  0.6983 -1.5836
 7072TIP3   OH242706   6.127   3.264  14.446 -0.3376  0.1923  0.4549
 7072TIP3    H142707   6.188   3.276  14.519  0.4766  1.4640 -0.3875
 7072TIP3    H242708   6.159   3.187  14.400  0.1784  0.3972  0.4649
 7073TIP3   OH242709   2.709   5.334  14.377  0.1558  0.3790 -0.1786
 7073TIP3    H142710   2.680   5.378  14.457  1.5758  0.1163  0.5185
 7073TIP3    H242711   2.662   5.251  14.377  0.9788 -0.1236  1.0230
 7074TIP3   OH242712   2.787   1.675   3.477  0.5580  0.1605  0.1345
 7074TIP3    H142713   2.839   1.594   3.476  0.2811 -0.0204 -0.8565
 7074TIP3    H242714   2.722   1.662   3.408 -0.8413  0.3598  1.3723
 7075TIP3   OH242715   1.342   1.874  15.833 -0.2299  0.1373 -0.3821
 7075TIP3    H142716   1.393   1.794  15.845  1.1823  0.5876 -2.8035
 7075TIP3    H242717   1.401   1.945  15.860 -1.1130  0.4554  0.7900
 7076TIP3   OH242718   1.490   3.009   0.585  0.0512  0.3766  0.8019
 7076TIP3    H142719   1.521   2.926   0.548 -0.2954 -0.2124  1.7848
 7076TIP3    H242720   1.552   3.029   0.654  0.7644  1.5358 -0.1341
 7077TIP3   OH242721   4.013   6.816  15.746 -0.6277 -0.1668 -0.1296
 7077TIP3    H142722   3.927   6.828  15.787 -1.2341 -0.5409 -1.2602
 7077TIP3    H242723   4.046   6.735  15.784 -0.9365 -0.2105  0.0542
 7078TIP3   OH242724   3.926   1.891  15.477 -0.0899 -0.1380 -0.1646
 7078TIP3    H142725   3.941   1.798  15.494 -0.5238 -0.7563 -2.7130
 7078TIP3    H242726   3.834   1.906  15.500  0.1193 -0.1814  0.7368
 7079TIP3   OH242727   1.140   6.672   6.665  0.4951 -0.0523 -0.1289
 7079TIP3    H142728   1.051   6.638   6.671  0.9104 -1.0797  0.4998
 7079TIP3    H242729   1.175   6.635   6.585  0.9727 -1.2031  0.5947
 7080TIP3   OH242730   2.789   4.781   0.067 -0.4016  0.5843 -0.3092
 7080TIP3    H142731   2.791   4.869   0.032 -1.0952  0.3232 -1.0354
 7080TIP3    H242732   2.697   4.754   0.061 -0.8010  0.9091  2.7066
 7081TIP3   OH242733   6.336   5.407   5.491 -0.5508 -0.3902  0.0732
 7081TIP3    H142734   6.288   5.402   5.409  0.2111  1.7441 -0.5578
 7081TIP3    H242735   6.313   5.492   5.527  3.8147  1.5256 -1.0487
 7082TIP3   OH242736   2.513   2.558  12.879 -0.1772 -0.0081  0.3020
 7082TIP3    H142737   2.552   2.470  12.887 -0.3709 -0.2939 -1.4995
 7082TIP3    H242738   2.449   2.562  12.949  0.6859 -0.8386  1.1792
 7083TIP3   OH242739   0.942   3.129   1.470  0.0957  0.5959  0.6801
 7083TIP3    H142740   0.861   3.092   1.436  0.0890  0.3282  0.9812
 7083TIP3    H242741   0.927   3.224   1.469  0.0295  0.5820  0.1190
 7084TIP3   OH242742   1.448   1.403  14.244 -0.0155  0.0504 -0.2622
 7084TIP3    H142743   1.435   1.428  14.152  0.1223  2.4201  0.3187
 7084TIP3    H242744   1.379   1.450  14.292 -0.0839 -1.1489  0.8768
 7085TIP3   OH242745   1.856   4.489   1.577 -0.4583 -0.2169 -0.6906
 7085TIP3    H142746   1.798   4.467   1.504  0.2785  2.7597 -2.3436
 7085TIP3    H242747   1.803   4.548   1.632 -0.1285 -0.2533 -0.3339
 7086TIP3   OH242748   6.812   6.229   2.020  0.0064 -0.2126  0.1039
 7086TIP3    H142749   6.720   6.222   2.042 -0.1698 -1.3894 -0.8921
 7086TIP3    H242750   6.818   6.201   1.929  1.3375 -0.0713  0.1140
 7087TIP3   OH242751   1.922   1.917   4.341  0.4021  0.2333 -0.2828
 7087TIP3    H142752   1.965   1.997   4.371 -1.0330  0.6288  0.7955
 7087TIP3    H242753   1.899   1.869   4.421  2.4661 -1.9968 -0.9015
 7088TIP3   OH242754   3.126   3.289  15.595  0.1977  0.8992 -0.3280
 7088TIP3    H142755   3.203   3.337  15.565 -1.1656  3.2214 -0.3042
 7088TIP3    H242756   3.054   3.321  15.540 -0.9398 -0.5054  0.2776
 7089TIP3   OH242757   3.681   5.865   1.339  0.5101 -0.4108 -0.7745
 7089TIP3    H142758   3.682   5.777   1.302 -1.9476 -0.1184 -1.7242
 7089TIP3    H242759   3.752   5.911   1.295  1.0642 -1.5876 -1.1277
 7090TIP3   OH242760   2.517   6.368   0.903 -0.1095 -0.4886  0.1386
 7090TIP3    H142761   2.501   6.353   0.810 -0.6688 -2.5580  0.5183
 7090TIP3    H242762   2.606   6.335   0.917 -0.0871 -0.3319  0.3652
 7091TIP3   OH242763   5.249   0.356   0.521  0.1720  0.0129 -0.8813
 7091TIP3    H142764   5.341   0.367   0.546  0.6441  2.9692 -3.2100
 7091TIP3    H242765   5.224   0.272   0.558  3.5405 -0.5281  0.6039
 7092TIP3   OH242766   1.727   3.796   2.402  0.5365  0.0008  0.2843
 7092TIP3    H142767   1.745   3.880   2.445 -1.3677  0.5225  0.1590
 7092TIP3    H242768   1.692   3.821   2.316 -2.3774 -0.7950  1.1399
 7093TIP3   OH242769   6.109   5.012   0.906  0.0677 -0.2944 -0.1753
 7093TIP3    H142770   6.107   4.918   0.920  1.1743 -0.2449  0.4514
 7093TIP3    H242771   6.177   5.044   0.965  0.9798  0.6548 -1.6559
 7094TIP3   OH242772   4.634   1.337   3.604  0.2565  0.3311  0.9107
 7094TIP3    H142773   4.564   1.283   3.566  0.3771 -1.7677  3.3372
 7094TIP3    H242774   4.709   1.323   3.547 -0.5955  0.5152 -0.2841
 7095TIP3   OH242775   3.295   3.087   1.859 -0.5573  0.3398 -0.0615
 7095TIP3    H142776   3.208   3.125   1.871 -0.6561  0.0930 -0.0072
 7095TIP3    H242777   3.354   3.151   1.899 -0.7118  0.5043 -0.0921
 7096TIP3   OH242778   3.542   6.312  15.401 -0.5992  0.3380  0.0454
 7096TIP3    H142779   3.522   6.324  15.308  0.9133 -1.9706 -0.6542
 7096TIP3    H242780   3.599   6.386  15.423 -0.6695  0.7062 -0.9657
 7097TIP3   OH242781   1.591   5.719  13.190  0.1971 -0.0659  0.9765
 7097TIP3    H142782   1.571   5.806  13.224 -0.1858 -0.5547  2.0451
 7097TIP3    H242783   1.531   5.661  13.235 -2.3216 -0.5204 -2.5392
 7098TIP3   OH242784   0.643   1.303   4.998 -0.2416 -0.1313 -0.6169
 7098TIP3    H142785   0.589   1.382   5.004 -1.4377 -0.9415 -0.0494
 7098TIP3    H242786   0.669   1.285   5.088 -0.7268 -0.8533 -0.6073
 7099TIP3   OH242787   5.387   5.613  15.073 -0.6133 -0.5153  0.6250
 7099TIP3    H142788   5.395   5.597  14.979  2.7265 -0.0816  0.7202
 7099TIP3    H242789   5.394   5.526  15.112  0.2735 -0.4884  0.5376
 7100TIP3   OH242790   4.295   3.110   5.111  0.3094  0.4489  0.0144
 7100TIP3    H142791   4.272   3.044   5.046 -0.8462 -0.3334  1.1557
 7100TIP3    H242792   4.357   3.067   5.169  0.4641  0.7626  0.0855
 7101TIP3   OH242793   1.441   2.813  12.373 -0.3932  0.6147 -0.2247
 7101TIP3    H142794   1.367   2.873  12.382 -0.8397  0.1951 -1.0258
 7101TIP3    H242795   1.485   2.841  12.293 -0.4980  0.0014 -0.5042
 7102TIP3   OH242796   4.948   2.009   1.865  0.1765 -0.0729 -0.3852
 7102TIP3    H142797   4.935   2.093   1.909  2.6645  1.1241 -1.6888
 7102TIP3    H242798   4.873   2.000   1.806  0.4431  1.8747 -1.0807
 7103TIP3   OH242799   5.223   5.011   0.092 -0.7239  0.5502  0.0425
 7103TIP3    H142800   5.303   5.063   0.102  0.4557 -1.2131  0.3355
 7103TIP3    H242801   5.211   5.003  -0.002  0.3928 -0.4467 -0.0524
 7104TIP3   OH242802   0.814   4.661  11.470  0.5607 -0.2515  0.5778
 7104TIP3    H142803   0.738   4.700  11.428 -0.6358 -2.1838  0.8548
 7104TIP3    H242804   0.815   4.698  11.558 -0.2125 -0.4125  0.6542
 7105TIP3   OH242805   1.093   1.530   4.123  0.7366 -0.2706  0.1196
 7105TIP3    H142806   1.153   1.512   4.196 -0.1757  1.5975  1.4097
 7105TIP3    H242807   1.030   1.458   4.126 -0.0261  0.3913  2.0608
 7106TIP3   OH242808   1.494   4.943   3.452  0.0714 -0.0983  0.2861
 7106TIP3    H142809   1.573   4.990   3.481  1.1626 -1.9416  0.4051
 7106TIP3    H242810   1.517   4.851   3.459 -1.3933 -0.6660 -1.6696
 7107TIP3   OH242811   5.243   3.287  10.940  0.1898 -0.0235 -0.1368
 7107TIP3    H142812   5.274   3.210  10.892  2.1676 -0.6734  1.9944
 7107TIP3    H242813   5.258   3.360  10.881  1.0161 -0.9526 -1.1112
 7108TIP3   OH242814   3.846   6.532   5.215 -0.2804 -0.1048 -0.3049
 7108TIP3    H142815   3.893   6.578   5.285 -1.8899  0.3037  0.5466
 7108TIP3    H242816   3.858   6.439   5.234 -0.0368 -0.0016  0.0447
 7109TIP3   OH242817   4.332   3.716   0.657  0.2554  0.2087 -0.3575
 7109TIP3    H142818   4.349   3.622   0.664 -0.5727 -0.0447 -1.4267
 7109TIP3    H242819   4.331   3.747   0.747  0.0545 -0.9116  0.0464
 7110TIP3   OH242820   1.638   5.170  11.857  0.6728 -0.6670 -0.2596
 7110TIP3    H142821   1.643   5.141  11.948 -2.3864  0.6533  0.4496
 7110TIP3    H242822   1.634   5.089  11.806  3.7126 -1.4504  0.5657
 7111TIP3   OH242823   3.130   4.455  10.851 -0.1839  0.0895  0.2062
 7111TIP3    H142824   3.207   4.493  10.893 -0.7769  2.5280 -0.7182
 7111TIP3    H242825   3.164   4.415  10.771  0.1758  1.0965 -0.1657
 7112TIP3   OH242826   0.782   5.702   2.058 -0.6209 -0.4116 -0.0449
 7112TIP3    H142827   0.746   5.616   2.078 -3.6608  0.9167  0.6922
 7112TIP3    H242828   0.728   5.735   1.986 -2.1175  2.3089  2.1286
 7113TIP3   OH242829   5.239   4.643  12.599  0.2405 -0.2620 -0.0057
 7113TIP3    H142830   5.161   4.692  12.624  0.0387  0.5456 -2.0553
 7113TIP3    H242831   5.311   4.686  12.645  0.1751  2.5323 -2.2924
 7114TIP3   OH242832   3.936   5.936   4.713  0.3248 -0.2650 -0.7372
 7114TIP3    H142833   4.015   5.988   4.700  0.2630  0.4843  1.4240
 7114TIP3    H242834   3.874   5.969   4.647  0.8315  1.2947 -0.4739
 7115TIP3   OH242835   1.694   1.637  12.954 -0.4039 -0.4715 -0.3705
 7115TIP3    H142836   1.737   1.647  12.868 -0.9178  0.3141 -0.5446
 7115TIP3    H242837   1.735   1.704  13.009 -0.6356 -0.4492 -0.2254
 7116TIP3   OH242838   4.161   3.675  13.246 -0.0024 -0.2866 -0.0237
 7116TIP3    H142839   4.242   3.714  13.212 -0.6997 -0.1807 -1.6096
 7116TIP3    H242840   4.188   3.633  13.328  1.8385 -0.9770 -0.9314
 7117TIP3   OH242841   0.067   0.498  12.786  0.2015 -0.2404  0.1267
 7117TIP3    H142842   0.153   0.457  12.801  0.8536  0.1833 -2.0896
 7117TIP3    H242843   0.021   0.437  12.729  0.2276  0.9104 -1.1806
 7118TIP3   OH242844   3.291   2.745  14.304 -0.2164 -0.2472  0.6653
 7118TIP3    H142845   3.223   2.767  14.368 -0.6985  0.0405  0.0696
 7118TIP3    H242846   3.330   2.665  14.338 -1.5903 -1.0323  0.4688
 7119TIP3   OH242847   5.621   2.864  16.206 -0.5679 -0.3792 -1.1154
 7119TIP3    H142848   5.593   2.823  16.124  1.0621 -1.4548 -1.1882
 7119TIP3    H242849   5.636   2.790  16.265 -0.7460  0.3252 -0.1792
 7120TIP3   OH242850   0.326   2.117  15.298 -0.1255  0.2461  0.3408
 7120TIP3    H142851   0.304   2.173  15.224  1.7486  1.7378  0.8220
 7120TIP3    H242852   0.322   2.175  15.375  2.1314 -0.1130  0.8168
 7121TIP3   OH242853   4.467   6.169  16.481 -0.2322  0.0771 -0.6060
 7121TIP3    H142854   4.481   6.258  16.516 -1.3628  0.0327  0.0100
 7121TIP3    H242855   4.534   6.116  16.524 -0.6525  0.3201  0.3891
 7122TIP3   OH242856   3.386   3.480   5.624  0.1119 -0.5195 -0.3014
 7122TIP3    H142857   3.451   3.410   5.616  1.2691  0.5209 -0.3543
 7122TIP3    H242858   3.335   3.475   5.544  0.4026 -1.0849 -0.4564
 7123TIP3   OH242859   4.087   3.553  12.321  0.5401  0.0055  0.3385
 7123TIP3    H142860   4.049   3.468  12.344 -0.6438  0.3593 -0.2134
 7123TIP3    H242861   4.132   3.538  12.238  1.1108 -0.2847  0.6987
 7124TIP3   OH242862   4.031   5.167   4.796  0.0380 -0.0491 -0.1405
 7124TIP3    H142863   4.002   5.082   4.829 -0.3672 -0.1490 -0.7453
 7124TIP3    H242864   4.109   5.147   4.744  0.7605  0.1259  0.8477
 7125TIP3   OH242865   3.845   5.645   1.604  0.7460  0.1371 -1.0800
 7125TIP3    H142866   3.887   5.649   1.690 -1.9747  1.7028  0.2887
 7125TIP3    H242867   3.770   5.587   1.617  0.1426  0.6089 -2.3379
 7126TIP3   OH242868   3.654   3.605  13.686  0.1203 -0.1392 -0.1602
 7126TIP3    H142869   3.711   3.529  13.679  0.2404 -0.0160 -0.5406
 7126TIP3    H242870   3.669   3.654  13.605 -0.7264 -0.2516 -0.3980
 7127TIP3   OH242871   1.045   6.219   1.871  0.5024 -0.3154 -0.2398
 7127TIP3    H142872   0.979   6.236   1.804  0.6921 -0.1048 -0.3745
 7127TIP3    H242873   1.010   6.145   1.920 -0.9226  1.1286  1.0901
 7128TIP3   OH242874   4.592   6.497  14.067  0.0958 -0.6544 -0.1161
 7128TIP3    H142875   4.546   6.510  14.150  0.7442  1.9165 -0.0776
 7128TIP3    H242876   4.670   6.552  14.074 -0.4459  0.6435 -2.8985
 7129TIP3   OH242877   1.735   5.604  14.898  0.9054 -0.4157 -0.6721
 7129TIP3    H142878   1.694   5.684  14.931  1.7005 -0.0467 -0.5564
 7129TIP3    H242879   1.720   5.540  14.968 -0.5378 -0.6401 -1.1627
 7130TIP3   OH242880   3.661   4.626   0.053 -0.9729 -0.0039 -0.7763
 7130TIP3    H142881   3.621   4.693   0.109  0.6040  0.2830  0.0613
 7130TIP3    H242882   3.716   4.676  -0.008 -0.6975 -0.4704 -0.9123
 7131TIP3   OH242883   0.974   1.032  11.142  0.8819  0.1938 -0.1219
 7131TIP3    H142884   0.934   1.065  11.061 -0.0885  0.9293  0.6288
 7131TIP3    H242885   1.068   1.038  11.127  0.7969  3.2044 -0.1302
 7132TIP3   OH242886   2.247   6.568  12.420 -0.1456  0.5996  0.2657
 7132TIP3    H142887   2.317   6.596  12.362  0.0339 -1.9592 -0.8905
 7132TIP3    H242888   2.281   6.582  12.509  0.8034  1.6558 -0.2371
 7133TIP3   OH242889   4.082   0.916  11.046  0.2031  0.1546 -0.0914
 7133TIP3    H142890   4.020   0.980  11.081  0.2065 -0.6558  1.4836
 7133TIP3    H242891   4.087   0.936  10.953 -1.1946  1.2649  0.0385
 7134TIP3   OH242892   2.344   3.411   1.827  0.3026  0.2356 -0.1853
 7134TIP3    H142893   2.390   3.432   1.909  0.2906 -0.2774 -0.0440
 7134TIP3    H242894   2.349   3.491   1.776 -2.4365  1.6948  1.5781
 7135TIP3   OH242895   6.249   6.197  12.719 -0.1538  0.4745  0.1188
 7135TIP3    H142896   6.213   6.226  12.635  0.4190  0.5706 -0.0958
 7135TIP3    H242897   6.266   6.103  12.707 -1.3856  0.1682  0.5944
 7136TIP3   OH242898   1.909   6.399   5.345 -0.2730  0.0981 -0.4486
 7136TIP3    H142899   1.929   6.479   5.394 -1.0886 -0.3618  0.6814
 7136TIP3    H242900   1.818   6.378   5.370 -1.1244  0.4394 -3.0064
 7137TIP3   OH242901   1.732   1.790  15.886 -0.4553 -0.0569 -0.5133
 7137TIP3    H142902   1.742   1.881  15.855  1.7409  0.1046  0.4361
 7137TIP3    H242903   1.778   1.789  15.970  2.9002 -2.8326 -2.1354
 7138TIP3   OH242904   6.112   4.558  16.523  0.4303  0.2919 -0.5115
 7138TIP3    H142905   6.026   4.597  16.512  0.0592 -0.8153 -1.6960
 7138TIP3    H242906   6.166   4.629  16.560 -1.3808  0.4747  2.0200
 7139TIP3   OH242907   1.007   3.638  14.927 -0.0247  0.0283 -0.5385
 7139TIP3    H142908   1.087   3.645  14.875  1.2256  2.8922  1.4971
 7139TIP3    H242909   0.994   3.726  14.964 -2.0426 -1.2434  2.1561
 7140TIP3   OH242910   6.407   3.948  13.198 -0.5119 -0.5933  0.1081
 7140TIP3    H142911   6.427   3.856  13.182  0.4405 -0.0454 -2.3339
 7140TIP3    H242912   6.450   3.968  13.281  1.3204 -1.7886 -0.4868
 7141TIP3   OH242913   6.494   5.427  15.955 -0.0553 -0.3064  0.3705
 7141TIP3    H142914   6.524   5.437  16.045  0.7491 -0.3821  0.1190
 7141TIP3    H242915   6.574   5.424  15.903 -0.4936 -0.7282 -0.3021
 7142TIP3   OH242916   3.049   6.465  15.596  0.8488 -0.4016 -0.0079
 7142TIP3    H142917   2.963   6.440  15.563  1.0509 -1.2013  0.0556
 7142TIP3    H242918   3.110   6.403  15.555  1.3335 -0.1859  0.3702
 7143TIP3   OH242919   1.100   2.767   6.517 -0.3641 -0.3344  0.0670
 7143TIP3    H142920   1.122   2.773   6.424  0.7254 -1.9762  0.1819
 7143TIP3    H242921   1.053   2.849   6.535  0.5501  0.6367 -1.6031
 7144TIP3   OH242922   0.396   5.878  13.838  0.2309 -0.1578 -0.6621
 7144TIP3    H142923   0.390   5.973  13.849  1.3789 -0.2725  1.6082
 7144TIP3    H242924   0.428   5.865  13.749  0.5663  1.5911 -0.8174
 7145TIP3   OH242925   3.641   6.495   1.114  0.2563 -0.1636  0.3128
 7145TIP3    H142926   3.627   6.559   1.184 -1.7430  0.7318 -0.8236
 7145TIP3    H242927   3.615   6.411   1.153 -1.9523  0.4822  0.3792
 7146TIP3   OH242928   2.105   4.095  16.357 -0.5069 -0.2087  0.3295
 7146TIP3    H142929   2.017   4.059  16.361 -0.9820  0.9705  0.9585
 7146TIP3    H242930   2.151   4.054  16.430 -0.4263 -1.0636 -0.1882
 7147TIP3   OH242931   5.096   2.627   2.547  0.8949  0.1320 -0.3003
 7147TIP3    H142932   5.118   2.652   2.637  0.9882  1.9009 -0.7658
 7147TIP3    H242933   5.149   2.685   2.492 -0.6763  0.5444 -1.4638
 7148TIP3   OH242934   1.254   0.284   5.213  0.3373  0.0869  0.2311
 7148TIP3    H142935   1.265   0.197   5.251  0.0348 -0.3050 -0.5741
 7148TIP3    H242936   1.231   0.269   5.122 -1.7032  0.9559  0.5300
 7149TIP3   OH242937   2.440   5.901  12.709  0.3896 -0.0482  0.4422
 7149TIP3    H142938   2.490   5.899  12.628  4.3416 -1.5299  2.6021
 7149TIP3    H242939   2.448   5.812  12.744 -2.1430  0.2280  1.9406
 7150TIP3   OH242940   6.729   3.888  13.906  0.0862 -0.3589 -0.1841
 7150TIP3    H142941   6.798   3.899  13.840  0.8946  0.2903  0.7323
 7150TIP3    H242942   6.773   3.845  13.979 -0.7529 -0.9080 -0.0020
 7151TIP3   OH242943   0.878   3.099   0.836 -0.4360  0.0730  0.5415
 7151TIP3    H142944   0.960   3.143   0.859  0.1773 -0.6142 -0.2351
 7151TIP3    H242945   0.872   3.108   0.740 -1.7855  0.9676  0.6862
 7152TIP3   OH242946   0.041   6.339  14.577 -0.2264 -0.0228 -0.3042
 7152TIP3    H142947   0.136   6.325  14.568 -0.0284  1.2971 -0.4438
 7152TIP3    H242948   0.006   6.252  14.592  0.9156 -0.6537 -1.1290
 7153TIP3   OH242949   1.796   5.008  11.193 -0.0031 -0.7197 -0.0368
 7153TIP3    H142950   1.732   4.978  11.128  0.9442 -0.3181 -1.1827
 7153TIP3    H242951   1.744   5.027  11.271 -1.3097 -0.2181 -1.0018
 7154TIP3   OH242952   1.709   3.416  13.297 -0.5604  0.3201  0.3412
 7154TIP3    H142953   1.749   3.399  13.382 -0.8073  0.4672  0.4927
 7154TIP3    H242954   1.615   3.399  13.311 -0.7569  1.3504  0.3897
 7155TIP3   OH242955   4.526   2.683   1.659 -0.1913  0.5712  0.2710
 7155TIP3    H142956   4.579   2.604   1.649  0.5654  0.8659  1.5665
 7155TIP3    H242957   4.566   2.728   1.733 -0.3165  2.4105 -0.7334
 7156TIP3   OH242958   5.574   0.952   1.076 -0.0499 -0.0296 -0.1788
 7156TIP3    H142959   5.491   0.946   1.122 -1.2163 -2.0451 -2.3005
 7156TIP3    H242960   5.637   0.909   1.134 -0.4328  1.5205  1.4509
 7157TIP3   OH242961   4.353   3.032   5.627 -0.3876 -0.4559 -0.1250
 7157TIP3    H142962   4.363   3.051   5.720  0.3118  1.8100 -0.6131
 7157TIP3    H242963   4.270   3.073   5.603  0.2474  0.4313 -0.8405
 7158TIP3   OH242964   3.000   1.656  10.855 -0.7356 -0.2450 -0.3133
 7158TIP3    H142965   3.009   1.598  10.780 -0.5814 -0.6759  0.0333
 7158TIP3    H242966   2.907   1.675  10.860 -0.6172  0.6474 -1.2504
 7159TIP3   OH242967   4.730   6.039  15.947 -0.1070 -0.2027 -0.2135
 7159TIP3    H142968   4.758   5.954  15.979  0.9411  0.1580 -0.1307
 7159TIP3    H242969   4.807   6.095  15.956 -0.4942  0.5142 -1.1406
 7160TIP3   OH242970   4.300   0.815  15.448 -0.3305 -0.2268  0.6790
 7160TIP3    H142971   4.379   0.798  15.500  0.6724  0.7693 -0.4714
 7160TIP3    H242972   4.279   0.906  15.468 -1.1143 -0.4427  0.8517
 7161TIP3   OH242973   4.326   2.928   0.979 -0.7565 -0.3820 -0.2157
 7161TIP3    H142974   4.239   2.963   0.961 -0.2754  0.9807  0.0139
 7161TIP3    H242975   4.319   2.888   1.066 -1.3108 -0.8919 -0.4851
 7162TIP3   OH242976   5.053   2.194  13.080 -0.2208  1.0939  0.4900
 7162TIP3    H142977   5.088   2.266  13.028  0.9664  2.2896  2.7676
 7162TIP3    H242978   5.124   2.171  13.141 -0.8904 -1.4240  0.4607
 7163TIP3   OH242979   5.876   3.923   1.613 -0.5589 -0.1811  0.4832
 7163TIP3    H142980   5.845   3.922   1.704 -2.3072 -1.1041 -0.0737
 7163TIP3    H242981   5.861   3.834   1.581  0.0529  0.1249 -0.7068
 7164TIP3   OH242982   1.819   2.919   0.544 -0.2465  0.0631  0.3294
 7164TIP3    H142983   1.842   2.874   0.626 -0.2369 -1.0391 -0.2607
 7164TIP3    H242984   1.779   2.851   0.490 -0.1133  0.7431 -0.6457
 7165TIP3   OH242985   2.825   0.895   6.617  0.3015 -0.0363  0.7728
 7165TIP3    H142986   2.827   0.955   6.692 -1.3449 -0.8633  1.5220
 7165TIP3    H242987   2.736   0.902   6.583  0.8584 -0.1033 -0.7831
 7166TIP3   OH242988   0.406   0.253   0.101 -0.6505  0.1185  0.8816
 7166TIP3    H142989   0.384   0.200   0.177 -0.0238 -1.8425 -0.2317
 7166TIP3    H242990   0.499   0.273   0.112 -1.0350  1.6429  1.6360
 7167TIP3   OH242991   5.823   6.246  10.525  0.0365  0.0120 -0.3911
 7167TIP3    H142992   5.736   6.233  10.562  0.3440 -0.4256  0.1822
 7167TIP3    H242993   5.807   6.268  10.433 -0.7129  0.7228 -0.1026
 7168TIP3   OH242994   4.797   1.325   2.257  0.3157  0.1020  0.1183
 7168TIP3    H142995   4.716   1.287   2.224  1.0585 -0.3723 -1.2689
 7168TIP3    H242996   4.824   1.387   2.189  1.2025  0.1091  0.4576
 7169TIP3   OH242997   2.018   1.414  16.514 -0.1443  0.0145  0.1610
 7169TIP3    H142998   2.101   1.391  16.473  1.7315  1.2734  2.8967
 7169TIP3    H242999   2.003   1.505  16.489 -0.1748  0.0957  0.4670
 7170TIP3   OH243000   0.996   1.323  12.109 -0.2609 -0.0630  0.0945
 7170TIP3    H143001   0.993   1.414  12.077 -0.6144 -0.0533  0.1513
 7170TIP3    H243002   0.996   1.331  12.204 -1.2926 -0.1465  0.1084
 7171TIP3   OH243003   4.456   4.172   1.206 -0.0594 -0.0590  0.2539
 7171TIP3    H143004   4.391   4.130   1.150 -0.4572  0.9184 -0.0452
 7171TIP3    H243005   4.529   4.193   1.147 -0.4346  0.8751  0.0983
 7172TIP3   OH243006   5.921   2.872  13.968 -0.3700 -0.2401 -0.5222
 7172TIP3    H143007   6.012   2.841  13.964 -0.1148  0.5988 -1.9085
 7172TIP3    H243008   5.869   2.793  13.977  0.3472 -1.0001 -2.4824
 7173TIP3   OH243009   3.839   6.017  12.105 -0.3906 -0.2638 -0.3928
 7173TIP3    H143010   3.906   5.959  12.068  0.4542  1.1039 -1.1290
 7173TIP3    H243011   3.815   6.075  12.032 -0.7647  0.6870  0.4607
 7174TIP3   OH243012   0.300   6.528  16.720 -0.0224  0.2480  0.2677
 7174TIP3    H143013   0.213   6.544  16.683 -0.4870 -0.6799  0.9103
 7174TIP3    H243014   0.329   6.614  16.750 -1.3353  0.3605  1.3149
 7175TIP3   OH243015   2.756   2.762   0.200  0.0063 -0.6905  0.1508
 7175TIP3    H143016   2.843   2.778   0.165 -0.5627  0.9890 -0.6220
 7175TIP3    H243017   2.763   2.679   0.247  1.3486 -1.9872 -2.1613
 7176TIP3   OH243018   0.831   1.726  13.014 -0.1684 -0.0041  0.2521
 7176TIP3    H143019   0.842   1.644  12.966  0.7010  1.0375 -1.4176
 7176TIP3    H243020   0.842   1.795  12.948 -2.2032  1.4732  1.3198
 7177TIP3   OH243021   6.642   6.477   3.526 -0.6801  0.0172  0.3197
 7177TIP3    H143022   6.621   6.565   3.495  1.9580  2.5062  4.6748
 7177TIP3    H243023   6.699   6.441   3.458 -0.7647  2.1536 -0.9818
 7178TIP3   OH243024   1.760   5.821  13.877  0.0067  0.3591 -0.6219
 7178TIP3    H143025   1.730   5.779  13.958 -0.9222  0.2379 -1.0154
 7178TIP3    H243026   1.758   5.751  13.812  0.4994  0.5165 -0.8084
 7179TIP3   OH243027   1.662   6.643  14.233  0.1628 -0.6844 -0.4654
 7179TIP3    H143028   1.698   6.605  14.153  0.0265 -1.1971 -0.2853
 7179TIP3    H243029   1.687   6.736  14.229  1.0481 -0.9161 -0.6063
 7180TIP3   OH243030   5.050   0.036  13.435 -0.4002 -0.5873  0.3507
 7180TIP3    H143031   5.129   0.032  13.380 -0.4155  0.2846  0.2540
 7180TIP3    H243032   5.057  -0.040  13.492  0.4596 -0.5814  0.2652
 7181TIP3   OH243033   6.017   4.832  12.979  0.5073  0.1005 -0.3143
 7181TIP3    H143034   5.985   4.920  12.959 -0.2179  0.0293  0.4749
 7181TIP3    H243035   6.023   4.789  12.894  1.4041  1.0714 -0.7743
 7182TIP3   OH243036   0.817   2.350   4.522  0.4267  0.2671  0.0290
 7182TIP3    H143037   0.856   2.351   4.609  0.5550  0.1094 -0.0253
 7182TIP3    H243038   0.892   2.360   4.463  0.2782  1.0102 -0.0465
 7183TIP3   OH243039   2.859   0.785  10.736 -0.6037  0.0266  0.0488
 7183TIP3    H143040   2.917   0.792  10.812  1.3482 -1.1132 -1.2480
 7183TIP3    H243041   2.856   0.873  10.699 -0.6051  0.3284  0.7564
 7184TIP3   OH243042   1.910   4.660   2.300 -0.0669  0.0150  0.0038
 7184TIP3    H143043   1.894   4.567   2.284 -2.5861  0.6248 -1.3595
 7184TIP3    H243044   1.962   4.689   2.225 -1.3108  0.1896 -0.8107
 7185TIP3   OH243045   2.005   2.212  11.233  0.1979 -0.0165 -0.9929
 7185TIP3    H143046   1.915   2.183  11.249 -0.1089  1.5541  0.4837
 7185TIP3    H243047   2.042   2.225  11.321  2.0569 -1.0812 -1.5599
 7186TIP3   OH243048   6.317   1.394  14.806 -0.6794  0.0362  0.5137
 7186TIP3    H143049   6.287   1.305  14.790  0.6459 -0.0552 -1.9200
 7186TIP3    H243050   6.412   1.386  14.818 -0.4858  1.1533 -0.0876
 7187TIP3   OH243051   4.181   2.486   3.412 -0.4281  0.0844  0.0837
 7187TIP3    H143052   4.269   2.463   3.441 -0.2124 -0.0205 -0.6370
 7187TIP3    H243053   4.179   2.463   3.320 -1.7509 -1.4681  0.4494
 7188TIP3   OH243054   1.788   3.179   0.491 -0.2821  0.3766  0.4489
 7188TIP3    H143055   1.805   3.084   0.494 -1.5843  0.1197  0.2863
 7188TIP3    H243056   1.697   3.187   0.518  0.0038  1.6574  1.0798
 7189TIP3   OH243057   1.437   5.027   2.496  0.3418  0.0411 -0.0312
 7189TIP3    H143058   1.344   5.006   2.492  0.2583  0.4839 -0.6149
 7189TIP3    H243059   1.468   5.018   2.405  0.4685  1.5703 -0.1776
 7190TIP3   OH243060   0.260   3.277  12.756  0.0291  0.6785 -0.2568
 7190TIP3    H143061   0.175   3.308  12.786 -0.2368 -0.3703  0.1100
 7190TIP3    H243062   0.241   3.203  12.698  0.6932 -0.1200  0.5049
 7191TIP3   OH243063   4.032   0.459   2.225 -0.5839 -0.0163 -0.0641
 7191TIP3    H143064   3.954   0.432   2.176  0.1959  0.9471 -1.9675
 7191TIP3    H243065   4.102   0.460   2.159  0.8763 -0.1188  1.4258
 7192TIP3   OH243066   3.490   2.216  11.937 -0.4711 -0.0632 -0.1511
 7192TIP3    H143067   3.502   2.251  11.848 -1.0718 -0.5979 -0.4517
 7192TIP3    H243068   3.508   2.290  11.994  0.7605  0.0714 -0.6863
 7193TIP3   OH243069   5.702   4.405   1.487 -0.3833 -0.4183 -0.3402
 7193TIP3    H143070   5.759   4.402   1.410  0.7918  0.4403  0.4447
 7193TIP3    H243071   5.617   4.375   1.456  0.5371 -1.9639 -1.5189
 7194TIP3   OH243072   1.537   2.166   0.183 -0.6059 -0.2334  0.3080
 7194TIP3    H143073   1.478   2.182   0.109 -0.6619  0.6158  0.5273
 7194TIP3    H243074   1.623   2.152   0.142 -1.0846 -2.4805 -0.0880
 7195TIP3   OH243075   1.384   4.228   2.153 -0.0543  0.2474 -0.0846
 7195TIP3    H143076   1.477   4.234   2.130  0.4371  0.1981  1.7014
 7195TIP3    H243077   1.343   4.302   2.107  1.0669  0.9329 -0.0307
 7196TIP3   OH243078   6.701   0.233  12.006 -0.2690  0.0357  0.0951
 7196TIP3    H143079   6.751   0.293  12.062 -2.2543  1.8252  0.0981
 7196TIP3    H243080   6.641   0.189  12.066 -0.6529  0.0391 -0.2867
 7197TIP3   OH243081   4.625   5.356  13.560 -0.3174 -0.0382  0.0349
 7197TIP3    H143082   4.673   5.436  13.541 -0.0295 -0.1301  0.3716
 7197TIP3    H243083   4.639   5.341  13.653 -0.7949 -0.2018  0.0823
 7198TIP3   OH243084   3.060   3.984  15.245 -0.5164  0.3766 -0.5069
 7198TIP3    H143085   3.078   3.992  15.339  1.4631  0.4846 -0.8495
 7198TIP3    H243086   2.970   4.015  15.235 -1.7213 -2.0687  1.6868
 7199TIP3   OH243087   6.333   5.804   1.245 -0.0567 -0.5744  0.5769
 7199TIP3    H143088   6.282   5.831   1.321  1.2023  1.7480  0.6631
 7199TIP3    H243089   6.269   5.791   1.176 -0.8274  2.3750  0.6478
 7200TIP3   OH243090   3.311   3.677   4.737  0.4070 -0.2190 -0.1830
 7200TIP3    H143091   3.304   3.772   4.751  1.1555 -0.4517  2.1854
 7200TIP3    H243092   3.223   3.643   4.753  0.4469 -0.0781  0.3265
 7201TIP3   OH243093   5.797   3.853  12.556  0.5382  0.0594  0.6266
 7201TIP3    H143094   5.763   3.938  12.525 -0.1065 -1.0682 -2.0146
 7201TIP3    H243095   5.872   3.876  12.611  0.7175  2.3436 -0.4452
 7202TIP3   OH243096   1.056   2.861  17.054 -0.0513  0.1173  0.3986
 7202TIP3    H143097   1.142   2.901  17.063 -0.0679  0.4229 -0.6411
 7202TIP3    H243098   1.015   2.909  16.981 -0.0742 -1.7469 -0.8783
 7203TIP3   OH243099   4.626   0.461  15.563 -0.3045 -0.4526 -0.0061
 7203TIP3    H143100   4.591   0.438  15.477 -2.1791  0.9258  0.3150
 7203TIP3    H243101   4.717   0.431  15.562 -0.5871 -1.3624 -2.0813
 7204TIP3   OH243102   2.535   4.145  17.098 -0.0730 -0.6620  0.0562
 7204TIP3    H143103   2.509   4.230  17.063 -1.3439 -1.0885 -0.0860
 7204TIP3    H243104   2.609   4.118  17.042  0.6657  0.5407  0.4097
 7205TIP3   OH243105   3.156   1.787  11.055  0.5211 -0.4588 -0.2878
 7205TIP3    H143106   3.250   1.770  11.044  0.6188 -0.1834  0.0940
 7205TIP3    H243107   3.114   1.734  10.988  0.8950 -1.2841  0.1169
 7206TIP3   OH243108   2.037   1.611  10.898 -0.2372 -0.5742  0.4902
 7206TIP3    H143109   2.084   1.674  10.952 -0.1978  0.0861 -0.2895
 7206TIP3    H243110   2.032   1.653  10.812 -1.5036 -0.9987  0.3349
 7207TIP3   OH243111   4.602   2.410  12.315 -0.2291  0.1541 -0.5953
 7207TIP3    H143112   4.578   2.438  12.227 -1.1585  1.2431 -0.0241
 7207TIP3    H243113   4.570   2.480  12.372  2.0947  0.4463  0.4515
 7208TIP3   OH243114   6.138   0.239  16.203  0.6901 -0.0437 -0.6024
 7208TIP3    H143115   6.223   0.283  16.205  1.9457 -2.2856 -0.3090
 7208TIP3    H243116   6.075   0.308  16.182  2.1941  2.2638  1.8079
 7209TIP3   OH243117   4.895   1.162  12.702 -0.8355  0.2500 -0.6791
 7209TIP3    H143118   4.911   1.236  12.643  0.8389  0.3034 -0.2029
 7209TIP3    H243119   4.879   1.088  12.643 -3.5798  1.1077 -1.1804
 7210TIP3   OH243120   1.012   1.190   2.096 -0.0270  0.2968 -0.1489
 7210TIP3    H143121   0.925   1.219   2.123 -0.0844  0.6948 -0.7349
 7210TIP3    H243122   0.997   1.140   2.016  0.0938 -1.2090  0.7458
 7211TIP3   OH243123   1.766   3.837   1.683 -0.0447 -0.2460  0.3561
 7211TIP3    H143124   1.774   3.889   1.603 -1.5789 -2.5585 -1.4307
 7211TIP3    H243125   1.847   3.787   1.687  0.4851  0.6135  0.8893
 7212TIP3   OH243126   2.616   0.602  15.756 -0.1080  0.4267 -0.3903
 7212TIP3    H143127   2.658   0.605  15.842  0.0060  1.5226 -0.4668
 7212TIP3    H243128   2.619   0.693  15.725 -1.1960  0.2532 -1.0463
 7213TIP3   OH243129   1.966   1.750   5.801 -0.4144 -0.1677  0.5099
 7213TIP3    H143130   1.952   1.824   5.861 -0.8189 -1.3741  1.9450
 7213TIP3    H243131   2.042   1.704   5.837 -0.8190 -1.0588  0.2359
 7214TIP3   OH243132   4.403   6.151   1.733 -0.0784 -0.3253 -0.0774
 7214TIP3    H143133   4.391   6.098   1.812 -0.7602 -0.6957 -0.4149
 7214TIP3    H243134   4.407   6.241   1.765 -0.7192 -0.4447  0.3572
 7215TIP3   OH243135   0.803   2.355   5.935 -0.7767  0.1948  0.1848
 7215TIP3    H143136   0.749   2.396   5.868 -1.1578 -0.9410 -0.2146
 7215TIP3    H243137   0.790   2.409   6.013  0.1069  1.8676 -0.7655
 7216TIP3   OH243138   0.794   4.702  15.798  0.1065  0.2066  0.0739
 7216TIP3    H143139   0.847   4.697  15.878  0.8363 -0.2265 -0.4230
 7216TIP3    H243140   0.858   4.716  15.728 -0.7185  3.2906 -0.1678
 7217TIP3   OH243141   0.537   6.684  15.049  0.0606  0.5200  0.1322
 7217TIP3    H143142   0.597   6.619  15.086 -0.9893 -0.9732 -0.7211
 7217TIP3    H243143   0.593   6.740  14.995  0.9184  0.1149  0.5752
 7218TIP3   OH243144   5.461   5.652   4.037  0.2890  0.0573  0.3354
 7218TIP3    H143145   5.519   5.728   4.024  1.4028 -1.0389 -1.5022
 7218TIP3    H243146   5.459   5.609   3.952 -1.5227 -1.1682  0.9492
 7219TIP3   OH243147   2.265   5.552  10.420  0.4810 -0.3369  0.8867
 7219TIP3    H143148   2.234   5.639  10.396 -1.0645 -0.2585  2.8830
 7219TIP3    H243149   2.310   5.520  10.342  0.0824  1.7673 -0.2845
 7220TIP3   OH243150   1.853   0.350  13.343 -0.0831  0.2803  0.2041
 7220TIP3    H143151   1.909   0.353  13.266  1.0875 -2.1079  0.8717
 7220TIP3    H243152   1.898   0.405  13.408  0.0525  0.5542 -0.1199
 7221TIP3   OH243153   2.071   4.487  17.211 -0.3628  0.0243 -0.0220
 7221TIP3    H143154   2.121   4.565  17.185  0.3443 -0.6540 -0.7737
 7221TIP3    H243155   1.980   4.508  17.190 -0.1335  0.5227 -0.5393
 7222TIP3   OH243156   1.077   0.521  15.476 -0.1614 -0.0184 -0.4010
 7222TIP3    H143157   1.032   0.483  15.552  0.3138 -0.0729 -0.1420
 7222TIP3    H243158   1.049   0.613  15.475  2.3718  0.9033  1.8440
 7223TIP3   OH243159   0.499   6.764  14.680 -0.4166  0.4274 -0.1113
 7223TIP3    H143160   0.557   6.765  14.756 -0.5674  0.2879  0.0048
 7223TIP3    H243161   0.503   6.854  14.646  1.9061 -0.1548 -1.6497
 7224TIP3   OH243162   0.898   6.563   6.634  0.0589  0.2436 -0.0226
 7224TIP3    H143163   0.883   6.486   6.580 -0.5776  0.5146 -0.2341
 7224TIP3    H243164   0.811   6.594   6.658  0.2680 -1.0800  2.9324
 7225TIP3   OH243165   5.871   3.913   1.104  0.0802  0.1257 -0.3340
 7225TIP3    H143166   5.792   3.962   1.083  0.1015  0.0078 -0.7008
 7225TIP3    H243167   5.915   3.966   1.170  0.4166  0.9300 -1.1849
 7226TIP3   OH243168   4.839   5.804   6.291  0.6423 -0.0010 -0.0053
 7226TIP3    H143169   4.912   5.807   6.352  0.6773  1.0635 -0.0805
 7226TIP3    H243170   4.811   5.895   6.283 -0.3494 -0.3245 -0.3886
 7227TIP3   OH243171   0.580   1.027  16.952 -0.4421 -0.1706  0.1953
 7227TIP3    H143172   0.530   1.017  16.871 -1.0284  0.3474  0.4833
 7227TIP3    H243173   0.524   0.990  17.020  0.5191 -1.6363  0.2366
 7228TIP3   OH243174   4.908   0.238   4.906  0.7781 -0.1935 -0.2337
 7228TIP3    H143175   4.830   0.286   4.935  0.4047 -1.0550  0.2575
 7228TIP3    H243176   4.974   0.256   4.973  1.3396  1.3156 -1.1489
 7229TIP3   OH243177   2.804   0.884   3.375 -0.3719 -0.6191 -0.1473
 7229TIP3    H143178   2.709   0.895   3.370 -0.2909 -0.0639 -0.6550
 7229TIP3    H243179   2.820   0.853   3.464 -1.0454 -0.9274 -0.1262
 7230TIP3   OH243180   3.373   6.203  12.439  0.1124 -0.2289  0.2377
 7230TIP3    H143181   3.410   6.124  12.478 -1.5040 -1.2595 -0.2113
 7230TIP3    H243182   3.297   6.172  12.390  0.1075  1.4636 -0.9210
 7231TIP3   OH243183   3.901   1.330  16.527  0.7172 -0.0909 -0.1891
 7231TIP3    H143184   3.928   1.421  16.537  0.3082  0.4205 -2.9217
 7231TIP3    H243185   3.818   1.324  16.574  1.4764  0.5093  1.2820
 7232TIP3   OH243186   4.008   2.419   4.061 -0.3742  0.5900  0.0059
 7232TIP3    H143187   4.041   2.438   4.149 -0.1320 -0.1820  0.0842
 7232TIP3    H243188   4.086   2.401   4.009 -0.6281 -1.4350  0.2400
 7233TIP3   OH243189   2.166   3.422  13.288  0.7696  0.0934  0.0010
 7233TIP3    H143190   2.205   3.432  13.201  2.9639 -0.7085  0.8037
 7233TIP3    H243191   2.198   3.497  13.338  1.7116 -0.7936  0.7977
 7234TIP3   OH243192   0.933   0.845  12.529  0.0040  0.3419 -0.5381
 7234TIP3    H143193   0.979   0.821  12.609  0.7777  1.4734 -0.6238
 7234TIP3    H243194   0.952   0.774  12.468  0.1284 -0.0974  0.0050
 7235TIP3   OH243195   4.623   1.487   0.293  0.6368  0.6805  0.1380
 7235TIP3    H143196   4.710   1.526   0.297 -0.4635  3.2902  0.9828
 7235TIP3    H243197   4.580   1.518   0.373 -0.4864 -2.1735  0.7687
 7236TIP3   OH243198   4.842   2.018   3.207 -1.0217 -0.4994  0.1234
 7236TIP3    H143199   4.749   2.028   3.188 -0.9069  1.2338  0.3730
 7236TIP3    H243200   4.886   2.079   3.149 -0.1093 -0.5483  0.7387
 7237TIP3   OH243201   2.177   1.841   3.545  0.3277  0.0177  0.1685
 7237TIP3    H143202   2.228   1.823   3.466  0.0230  1.8640 -0.5198
 7237TIP3    H243203   2.164   1.936   3.543 -3.1619 -0.3330  0.2668
 7238TIP3   OH243204   2.403   1.733   1.147  0.1987  0.3229 -0.1028
 7238TIP3    H143205   2.336   1.796   1.120 -1.1717 -1.4557 -1.1009
 7238TIP3    H243206   2.475   1.747   1.086 -0.1551  0.8041 -0.4189
 7239TIP3   OH243207   4.545   6.696  16.157  0.0605  0.3371 -0.4700
 7239TIP3    H143208   4.469   6.707  16.099  0.0963  1.4946 -0.3163
 7239TIP3    H243209   4.565   6.784  16.188 -0.1773 -0.2869  1.5999
 7240TIP3   OH243210   5.959   4.444  13.857  0.2460 -0.3591 -0.0357
 7240TIP3    H143211   6.038   4.496  13.871  0.9501 -1.3710 -0.1584
 7240TIP3    H243212   5.914   4.444  13.941 -0.2538  1.2217 -0.2784
 7241TIP3   OH243213   6.752   5.941   2.752  0.1852 -0.0189  0.4648
 7241TIP3    H143214   6.798   6.017   2.786 -1.8025  0.5175  2.1744
 7241TIP3    H243215   6.723   5.967   2.665  1.2663  0.3805  0.2027
 7242TIP3   OH243216   2.328   0.009  14.034 -0.6737  0.9757 -0.3198
 7242TIP3    H143217   2.268   0.060  14.089  1.4115  3.2943 -0.0090
 7242TIP3    H243218   2.404  -0.008  14.090 -0.5874 -1.0865 -0.9780
 7243TIP3   OH243219   2.419   1.498  11.368  0.6879  0.0869 -0.3306
 7243TIP3    H143220   2.469   1.577  11.344 -0.0686  1.5809  2.5324
 7243TIP3    H243221   2.328   1.520  11.349  0.5940 -0.6838 -0.8283
 7244TIP3   OH243222   6.322   1.776  14.161 -0.1089  0.1727  0.1645
 7244TIP3    H143223   6.377   1.791  14.084  0.4622  0.7260  0.6670
 7244TIP3    H243224   6.376   1.720  14.218 -0.5291 -0.2370  0.1719
 7245TIP3   OH243225   2.077   3.148  13.502 -0.0910  0.0029  0.5075
 7245TIP3    H143226   2.156   3.183  13.460 -0.8467 -0.3024 -1.2397
 7245TIP3    H243227   2.069   3.059  13.469 -0.5903 -0.3400  1.5111
 7246TIP3   OH243228   5.674   1.630  10.687  0.4098 -0.1525  0.1024
 7246TIP3    H143229   5.592   1.581  10.685  1.3156 -1.7475 -0.3459
 7246TIP3    H243230   5.652   1.713  10.729 -1.4860 -0.4006 -0.3019
 7247TIP3   OH243231   2.275   0.825  17.253  0.4944  0.6652 -0.2005
 7247TIP3    H143232   2.255   0.735  17.279  0.8744  0.5696 -0.2323
 7247TIP3    H243233   2.369   0.834  17.269  0.2152  1.4892  1.0968
 7248TIP3   OH243234   1.161   4.580  12.549 -0.5286  0.8995  0.3068
 7248TIP3    H143235   1.234   4.576  12.487 -0.5919  1.6775  0.1737
 7248TIP3    H243236   1.142   4.674  12.558 -0.9404  0.7579  1.0080
 7249TIP3   OH243237   3.080   1.445  10.260  0.5683 -0.7367  0.0699
 7249TIP3    H143238   3.079   1.535  10.227  2.1100 -0.3616  0.9584
 7249TIP3    H243239   3.143   1.399  10.205  0.2557 -1.1050  0.0188
 7250TIP3   OH243240   1.461   6.566   4.675  0.4352 -0.3696 -0.3229
 7250TIP3    H143241   1.441   6.476   4.703  1.7438 -0.8980 -0.9842
 7250TIP3    H243242   1.512   6.555   4.595 -0.0116  1.0003 -0.8169
 7251TIP3   OH243243   5.695   2.435  13.162 -0.3540  0.1173  0.1741
 7251TIP3    H143244   5.686   2.457  13.255 -1.4750  0.5135 -0.0158
 7251TIP3    H243245   5.781   2.471  13.138  0.4932 -1.0472  1.3287
 7252TIP3   OH243246   0.218   2.654   5.741 -0.2888  0.3921  0.0570
 7252TIP3    H143247   0.255   2.727   5.692  0.2580 -0.2685 -0.5513
 7252TIP3    H243248   0.178   2.598   5.674 -0.8127  0.1992  0.5233
 7253TIP3   OH243249   2.533   5.612   1.339  0.2482  0.5622 -0.2430
 7253TIP3    H143250   2.543   5.675   1.269 -0.3618 -1.0330 -1.8434
 7253TIP3    H243251   2.467   5.550   1.307  1.3845 -1.3490  0.8912
 7254TIP3   OH243252   3.883   4.318   2.285 -0.6341  0.1137  0.8163
 7254TIP3    H143253   3.912   4.314   2.194 -2.0776 -0.5363  0.3531
 7254TIP3    H243254   3.943   4.379   2.327  0.1189  0.3437 -0.5511
 7255TIP3   OH243255   1.367   3.406  15.369  0.0974 -0.2072 -0.4732
 7255TIP3    H143256   1.369   3.502  15.367  0.9374 -0.2267 -1.0934
 7255TIP3    H243257   1.340   3.380  15.281 -0.3429 -0.5413 -0.2437
 7256TIP3   OH243258   6.500   5.016  15.899  0.1300  0.0500 -0.2835
 7256TIP3    H143259   6.561   5.026  15.826  0.1742  1.6161 -0.0765
 7256TIP3    H243260   6.477   4.923  15.899 -0.5519  0.1314 -2.8305
 7257TIP3   OH243261   1.079   0.771   1.708  0.2622  0.0238 -0.7348
 7257TIP3    H143262   1.155   0.779   1.651  0.6336 -0.4616 -0.3160
 7257TIP3    H243263   1.066   0.860   1.742  1.4479 -0.1393  0.2025
 7258TIP3   OH243264   4.829   6.673  12.118 -0.6276 -0.0423  0.2705
 7258TIP3    H143265   4.809   6.763  12.092 -0.8473 -0.3762 -0.7594
 7258TIP3    H243266   4.912   6.680  12.164  0.0833  0.5221 -1.0238
 7259TIP3   OH243267   5.367   2.710  14.775  0.4149 -0.5629 -0.9719
 7259TIP3    H143268   5.300   2.700  14.707 -1.0895 -0.5877  0.4444
 7259TIP3    H243269   5.345   2.792  14.818  0.8765 -0.9331 -0.0130
 7260TIP3   OH243270   3.087   1.647  15.283  0.0256 -0.0043 -0.0452
 7260TIP3    H143271   3.068   1.632  15.376  0.5369 -2.6291 -0.2624
 7260TIP3    H243272   3.137   1.728  15.281  1.9604 -0.9882  2.2976
 7261TIP3   OH243273   2.723   3.722  13.839  0.6139  0.1489 -1.0340
 7261TIP3    H143274   2.758   3.637  13.865 -4.2487 -2.3584 -1.5773
 7261TIP3    H243275   2.703   3.711  13.746 -2.3650  0.8439 -0.5716
 7262TIP3   OH243276   6.781   4.659   1.008 -0.5279 -0.1007  0.4775
 7262TIP3    H143277   6.691   4.658   0.974 -0.8614  2.5974  1.0240
 7262TIP3    H243278   6.826   4.725   0.954  0.4600  0.2325  1.6565
 7263TIP3   OH243279   1.857   2.901   2.935 -0.1528 -0.2274  0.0208
 7263TIP3    H143280   1.860   2.814   2.976 -1.7153 -0.1648  0.3179
 7263TIP3    H243281   1.937   2.944   2.964  2.3133 -2.6179 -2.5856
 7264TIP3   OH243282   6.705   6.425  10.587 -0.1399 -0.4737 -0.3556
 7264TIP3    H143283   6.674   6.460  10.671 -3.5166 -0.5988 -1.4055
 7264TIP3    H243284   6.691   6.331  10.594  1.2982 -0.7182 -0.4598
 7265TIP3   OH243285   3.044   5.568  15.760  0.3866 -0.1587 -0.1340
 7265TIP3    H143286   3.063   5.607  15.675  0.8301 -1.6232 -0.7397
 7265TIP3    H243287   3.088   5.483  15.758 -0.2127 -0.5379  1.2792
 7266TIP3   OH243288   3.494   0.692   5.816 -0.1623 -0.8997 -0.0049
 7266TIP3    H143289   3.435   0.693   5.740 -0.7742 -0.6686  0.4707
 7266TIP3    H243290   3.481   0.778   5.857  1.3637 -0.3727 -0.5386
 7267TIP3   OH243291   4.210   5.945   3.556 -0.2285  0.2056  0.5599
 7267TIP3    H143292   4.188   5.983   3.470 -0.3643 -0.9572  0.0618
 7267TIP3    H243293   4.200   5.851   3.544 -1.1351  0.0664  2.1076
 7268TIP3   OH243294   1.044   2.069   2.744 -0.0021  0.0184  0.0114
 7268TIP3    H143295   0.949   2.066   2.755  0.0040  0.9168  0.4837
 7268TIP3    H243296   1.066   1.991   2.694 -1.3436  1.2701 -2.7585
 7269TIP3   OH243297   2.017   3.983  13.036 -0.6141  0.1028 -0.0646
 7269TIP3    H143298   1.984   3.901  13.000  0.6565 -0.0192 -1.0324
 7269TIP3    H243299   1.961   4.051  12.998 -0.0066 -0.1234 -1.4182
 7270TIP3   OH243300   5.103   0.963   5.680  0.3376  0.0072  0.3143
 7270TIP3    H143301   5.169   1.008   5.627 -1.1782 -0.3222 -2.0414
 7270TIP3    H243302   5.028   0.953   5.621 -1.6083 -0.2078  2.6392
 7271TIP3   OH243303   3.413   2.210   5.965 -0.0105  0.2597 -0.3922
 7271TIP3    H143304   3.411   2.295   6.008  0.3874  1.4174 -2.5287
 7271TIP3    H243305   3.377   2.149   6.030 -0.4784  2.0590  1.1152
 7272TIP3   OH243306   1.787   5.855   4.085 -0.0013 -0.5869 -0.9066
 7272TIP3    H143307   1.783   5.921   4.154 -0.4079 -1.2511 -0.2814
 7272TIP3    H243308   1.728   5.785   4.114 -0.8363 -0.5203 -2.3187
 7273TIP3   OH243309   2.849   4.193  12.059  0.3091  0.5418  0.7432
 7273TIP3    H143310   2.903   4.247  12.001  0.3177 -0.6399 -0.3821
 7273TIP3    H243311   2.891   4.107  12.058 -1.8723 -0.6207 -0.6920
 7274TIP3   OH243312   5.124   4.200   0.416 -0.1346 -0.2176  0.2713
 7274TIP3    H143313   5.146   4.119   0.460  0.7619 -0.4648 -0.5933
 7274TIP3    H243314   5.063   4.174   0.347 -0.6461  0.0030  0.6318
 7275TIP3   OH243315   3.909   6.265   5.263 -0.1615 -0.0651  0.2870
 7275TIP3    H143316   3.964   6.251   5.186 -0.1350  1.3905  0.0281
 7275TIP3    H243317   3.826   6.222   5.242 -0.1275  0.2476 -0.5237
 7276TIP3   OH243318   3.268   0.976  13.959  0.6875 -0.2148 -0.7156
 7276TIP3    H143319   3.263   0.954  14.052  0.2442  0.3646 -0.5974
 7276TIP3    H243320   3.338   1.041  13.953  0.9268 -0.4793 -0.8369
 7277TIP3   OH243321   4.263   6.559  13.067 -0.3518  0.4882 -0.1877
 7277TIP3    H143322   4.257   6.613  13.147 -0.0746 -0.1428  0.2662
 7277TIP3    H243323   4.286   6.472  13.099 -3.0509 -0.4971 -0.7186
 7278TIP3   OH243324   3.157   1.876   4.643 -0.1773 -0.2433 -0.4891
 7278TIP3    H143325   3.224   1.940   4.668 -0.9093  0.2563  0.2617
 7278TIP3    H243326   3.192   1.833   4.565 -0.9023  3.1995 -2.9553
 7279TIP3   OH243327   1.693   0.386   1.363  0.0223 -0.2215  0.0730
 7279TIP3    H143328   1.766   0.435   1.324 -1.3296  2.2479  0.4651
 7279TIP3    H243329   1.617   0.410   1.311 -1.2561  0.6672  2.1950
 7280TIP3   OH243330   0.116   2.936   1.313  0.5982 -0.1494 -0.3259
 7280TIP3    H143331   0.035   2.971   1.274 -1.0307 -1.6734  1.4530
 7280TIP3    H243332   0.177   2.928   1.240 -0.1293  2.8863 -1.4278
 7281TIP3   OH243333   3.328   2.573   4.709 -0.4283 -0.0892  0.3113
 7281TIP3    H143334   3.303   2.662   4.684 -1.8996 -0.5319  0.1199
 7281TIP3    H243335   3.370   2.536   4.631 -0.7814  0.0826  0.0387
 7282TIP3   OH243336   6.647   3.539  15.742 -0.0384 -0.5249  0.0398
 7282TIP3    H143337   6.588   3.567  15.813 -0.0923 -1.7155  0.4927
 7282TIP3    H243338   6.735   3.556  15.776 -0.0771  0.7754 -0.4332
 7283TIP3   OH243339   5.696   6.023   3.710  0.1513  0.3787  0.0127
 7283TIP3    H143340   5.695   5.947   3.769  1.6795 -0.5011 -1.0116
 7283TIP3    H243341   5.749   6.088   3.756 -0.5180  0.5524  0.5566
 7284TIP3   OH243342   1.863   2.550  13.137  0.8764  0.7962 -0.2107
 7284TIP3    H143343   1.830   2.545  13.047 -1.8825 -1.0569  0.7380
 7284TIP3    H243344   1.789   2.585  13.187  1.6849  0.0528  1.5890
 7285TIP3   OH243345   6.148   3.802   0.718  0.3071 -1.0653 -0.4353
 7285TIP3    H143346   6.105   3.824   0.801 -0.2404 -1.8047 -0.5093
 7285TIP3    H243347   6.208   3.731   0.740  0.4068 -1.0359 -0.6111
 7286TIP3   OH243348   6.021   2.335  12.155  0.0825 -0.1334  0.3673
 7286TIP3    H143349   5.972   2.397  12.101  1.0566  0.6371  0.3391
 7286TIP3    H243350   6.067   2.279  12.092 -2.2032 -2.1330  0.3409
 7287TIP3   OH243351   3.400   2.305  10.675 -0.0649  0.4689  0.2643
 7287TIP3    H143352   3.305   2.314  10.671 -0.2566 -0.4434  1.7348
 7287TIP3    H243353   3.427   2.295  10.584 -1.3796  0.6870 -0.1771
 7288TIP3   OH243354   3.761   1.182   4.562 -0.0415  0.3115  0.2932
 7288TIP3    H143355   3.774   1.092   4.592 -0.4800  0.8142  2.1128
 7288TIP3    H243356   3.812   1.235   4.623 -1.3601  1.4258  0.4731
 7289TIP3   OH243357   1.098   5.195   5.077  0.0377  0.3130  0.2234
 7289TIP3    H143358   1.074   5.149   5.157  0.4073  1.8679  1.2601
 7289TIP3    H243359   1.060   5.282   5.086 -0.7489  0.2410 -1.7497
 7290TIP3   OH243360   4.549   1.665  11.776 -0.0804  0.0888 -0.4586
 7290TIP3    H143361   4.516   1.657  11.866  0.5315  0.0540 -0.2315
 7290TIP3    H243362   4.644   1.656  11.785  0.0709  1.0192 -1.0014
 7291TIP3   OH243363   0.011   6.362  12.118  0.2542  0.0032 -0.2310
 7291TIP3    H143364   0.057   6.408  12.188 -0.3998 -0.6607  0.6651
 7291TIP3    H243365  -0.004   6.275  12.153  0.5692 -0.5841 -1.5066
 7292TIP3   OH243366   4.211   4.490  16.482 -0.5179  0.0956  0.3487
 7292TIP3    H143367   4.281   4.427  16.500 -0.4113 -0.0127 -0.4011
 7292TIP3    H243368   4.135   4.455  16.528 -0.4136 -0.4859  0.0885
 7293TIP3   OH243369   0.849   3.084   3.133  0.3238  0.5581 -0.2079
 7293TIP3    H143370   0.845   3.169   3.089 -0.5501  1.2535  1.1476
 7293TIP3    H243371   0.759   3.051   3.131  1.0515 -1.8017 -3.3041
 7294TIP3   OH243372   6.180   3.250  13.979 -0.8468 -0.1581 -0.0442
 7294TIP3    H143373   6.148   3.302  14.053 -1.2529 -0.5695  0.0752
 7294TIP3    H243374   6.117   3.267  13.909 -0.5322  0.1319 -0.2595
 7295TIP3   OH243375   1.867   2.977   2.053 -0.1621 -0.4367 -0.6517
 7295TIP3    H143376   1.868   3.073   2.044  0.9563 -0.4387 -0.6079
 7295TIP3    H243377   1.919   2.959   2.131 -1.2774 -1.0393 -0.0154
 7296TIP3   OH243378   2.648   0.706  10.526 -0.2135  0.3686 -0.4340
 7296TIP3    H143379   2.715   0.660  10.475 -1.1095 -0.2794 -1.0604
 7296TIP3    H243380   2.685   0.711  10.614  0.6598  0.0277 -0.7662
 7297TIP3   OH243381   1.543   3.512  12.018 -0.3805 -0.2834  0.0710
 7297TIP3    H143382   1.610   3.571  12.052 -1.2910  0.2393  1.0363
 7297TIP3    H243383   1.592   3.440  11.978  0.7437  0.2366  0.4749
 7298TIP3   OH243384   0.758   4.497  13.167  0.4967  0.2722  0.4070
 7298TIP3    H143385   0.676   4.530  13.203  0.3256 -0.0817  0.3503
 7298TIP3    H243386   0.818   4.493  13.242 -0.4650 -2.4336  1.1404
 7299TIP3   OH243387   3.519   4.434   5.155  0.7197 -0.1389  0.1332
 7299TIP3    H143388   3.524   4.355   5.208 -0.4898  0.8671  1.8605
 7299TIP3    H243389   3.536   4.506   5.217  1.1796  0.9916 -1.2507
 7300TIP3   OH243390   0.792   5.949  14.243 -0.1438  0.6905 -0.2285
 7300TIP3    H143391   0.738   5.870  14.249  0.1632  0.3327 -1.7371
 7300TIP3    H243392   0.865   5.933  14.303 -0.4935  0.1748  0.0677
 7301TIP3   OH243393   3.440   2.967  13.509  0.0193 -0.5062  0.0113
 7301TIP3    H143394   3.444   2.955  13.414  1.9888  0.2047 -0.0488
 7301TIP3    H243395   3.496   2.899  13.545 -1.1164 -1.0902  0.7304
 7302TIP3   OH243396   2.888   3.304  14.780 -0.0720 -0.2043 -0.7026
 7302TIP3    H143397   2.813   3.364  14.776 -0.2248 -0.3971 -0.7283
 7302TIP3    H243398   2.908   3.297  14.873  0.8747  1.0360 -0.7827
 7303TIP3   OH243399   2.747   6.534   1.842 -0.1298  0.2587 -0.2320
 7303TIP3    H143400   2.810   6.529   1.914 -1.3274  1.8586  0.9914
 7303TIP3    H243401   2.747   6.446   1.804  1.6159 -0.2148  0.7602
 7304TIP3   OH243402   1.684   4.439  10.483  0.1217 -0.2734  0.1273
 7304TIP3    H143403   1.768   4.396  10.498  0.1288 -0.6988 -1.0079
 7304TIP3    H243404   1.619   4.369  10.495 -0.0040 -0.1554  0.1389
 7305TIP3   OH243405   6.408   3.530   3.973  0.6865  0.3712  0.6045
 7305TIP3    H143406   6.367   3.446   3.953  0.3312  0.4646  0.9327
 7305TIP3    H243407   6.335   3.589   3.991  0.8717  1.0349 -0.6506
 7306TIP3   OH243408   0.460   2.573   4.698  0.6719  0.2513 -0.2465
 7306TIP3    H143409   0.510   2.572   4.617 -0.1782 -0.8761 -0.7848
 7306TIP3    H243410   0.376   2.533   4.675  0.5776 -0.4957  1.2762
 7307TIP3   OH243411   1.911   6.674  15.075  0.3728 -0.2575 -0.4572
 7307TIP3    H143412   1.934   6.757  15.116  1.9925 -1.5653  1.4825
 7307TIP3    H243413   1.953   6.677  14.989  2.1424  0.1711  0.3764
 7308TIP3   OH243414   5.909   6.711  14.043 -0.2599  0.3235 -0.5849
 7308TIP3    H143415   5.831   6.692  13.991 -0.6806 -1.2333  0.5585
 7308TIP3    H243416   5.959   6.629  14.043  0.7983  0.9460 -0.3077
 7309TIP3   OH243417   4.176   1.663  14.040  0.6616  0.1188  0.6148
 7309TIP3    H143418   4.261   1.675  14.082  0.7758 -0.1047  0.4509
 7309TIP3    H243419   4.114   1.705  14.099  0.9798  1.0009  0.3343
 7310TIP3   OH243420   6.773   5.797  17.192  0.5207 -0.2099  0.4787
 7310TIP3    H143421   6.865   5.775  17.205 -0.0510 -1.1799  3.5735
 7310TIP3    H243422   6.755   5.865  17.256 -1.0254 -0.3200  0.2037
 7311TIP3   OH243423   5.820   3.502  14.769 -0.2443  0.3151 -0.2728
 7311TIP3    H143424   5.825   3.553  14.850  0.7869 -0.5209  0.2169
 7311TIP3    H243425   5.737   3.454  14.777  1.4258 -2.5463  2.0955
 7312TIP3   OH243426   5.739   3.273   4.949  0.1061 -0.5485 -0.2173
 7312TIP3    H143427   5.712   3.187   4.917  2.6289 -1.0308 -1.2787
 7312TIP3    H243428   5.777   3.316   4.872 -0.2176  1.1672  0.5252
 7313TIP3   OH243429   6.364   4.088   3.059  0.1774  0.0959  0.3116
 7313TIP3    H143430   6.391   4.119   2.972 -0.2431 -0.7151 -0.1241
 7313TIP3    H243431   6.282   4.134   3.076 -0.2672 -0.4849 -0.1819
 7314TIP3   OH243432   0.954   2.260  14.436  0.0984  0.5645  0.0842
 7314TIP3    H143433   0.895   2.186  14.452  1.0068 -0.2159 -0.1596
 7314TIP3    H243434   0.960   2.267  14.341  0.1394  0.8645  0.1064
 7315TIP3   OH243435   0.588   0.992  13.454 -0.1534 -0.1194  0.0085
 7315TIP3    H143436   0.494   0.981  13.464 -0.1521 -0.9570 -0.8162
 7315TIP3    H243437   0.612   1.057  13.521 -1.2988  0.0753  0.2429
 7316TIP3   OH243438   6.293   0.701   2.624  0.4332 -0.2281 -0.3489
 7316TIP3    H143439   6.368   0.721   2.569  2.0652 -1.0740  1.4464
 7316TIP3    H243440   6.312   0.744   2.707 -0.0858 -2.0929  0.7924
 7317TIP3   OH243441   3.002   0.734  10.433 -0.0072  0.7256  0.1674
 7317TIP3    H143442   3.064   0.676  10.475  0.7193 -0.2487 -2.0866
 7317TIP3    H243443   3.038   0.822  10.445  0.2882  0.4617  1.2995
 7318TIP3   OH243444   6.174   6.091  11.488 -0.4045  0.3368 -0.4842
 7318TIP3    H143445   6.124   6.011  11.505 -1.4556  0.5395 -2.4282
 7318TIP3    H243446   6.265   6.065  11.501 -0.8448 -0.4367  1.5714
 7319TIP3   OH243447   1.400   6.042   0.530  0.1091  0.5035 -0.1072
 7319TIP3    H143448   1.444   5.957   0.537 -1.0064 -0.1493 -0.6936
 7319TIP3    H243449   1.381   6.052   0.437 -1.3330  0.5622  0.1716
 7320TIP3   OH243450   2.471   0.383  12.720  0.1947  0.0296  0.0275
 7320TIP3    H143451   2.414   0.442  12.770  1.4188  0.1819  1.2972
 7320TIP3    H243452   2.478   0.305  12.775  0.4843 -0.3520 -0.5455
 7321TIP3   OH243453   0.664   6.320  11.093 -0.1691 -0.1859  0.1027
 7321TIP3    H143454   0.730   6.337  11.160 -0.0316  0.9349 -0.3011
 7321TIP3    H243455   0.708   6.341  11.010 -0.7949 -0.1542 -0.2296
 7322TIP3   OH243456   5.335   0.971   0.072  0.4780 -0.0473  0.5773
 7322TIP3    H143457   5.249   0.953   0.110 -1.0020  2.2333 -1.3807
 7322TIP3    H243458   5.330   0.934  -0.016  1.0686  1.0531  0.0645
 7323TIP3   OH243459   0.774   1.070   3.766 -0.1798  0.1421  0.3239
 7323TIP3    H143460   0.730   1.120   3.834  2.1300  1.7038  0.7711
 7323TIP3    H243461   0.702   1.032   3.714 -2.0075  1.7926  1.5095
 7324TIP3   OH243462   1.759   6.475   5.755 -0.2147 -0.8196 -0.3179
 7324TIP3    H143463   1.723   6.557   5.788  1.1610  0.2586 -1.3445
 7324TIP3    H243464   1.720   6.407   5.810 -1.7876  0.4650  0.2289
 7325TIP3   OH243465   5.974   0.959   1.737  0.2706 -0.0135  0.1874
 7325TIP3    H143466   5.912   0.893   1.706  0.4266  0.4063 -1.0935
 7325TIP3    H243467   5.940   0.987   1.822 -2.0623  1.1486 -1.0452
 7326TIP3   OH243468   1.861   1.031   0.398  0.1001  0.4727 -0.3353
 7326TIP3    H143469   1.834   1.071   0.480  0.3097 -1.1882  0.5859
 7326TIP3    H243470   1.957   1.024   0.405  0.3795  2.2945 -1.6792
 7327TIP3   OH243471   2.687   3.994  13.849  0.8885  0.1559  0.2878
 7327TIP3    H143472   2.683   3.899  13.837 -2.1307  0.3526 -1.1066
 7327TIP3    H243473   2.729   4.026  13.769  1.7647  0.0253  0.6886
 7328TIP3   OH243474   5.217   4.916   0.356 -0.3090  0.4290 -0.3663
 7328TIP3    H143475   5.192   4.957   0.273  3.4993  0.2294 -1.8410
 7328TIP3    H243476   5.236   4.825   0.333  2.1521  0.6975  0.2901
 7329TIP3   OH243477   1.732   5.751  17.111  0.6253  0.1139  0.6729
 7329TIP3    H143478   1.637   5.741  17.111  0.8283 -3.0141  0.9964
 7329TIP3    H243479   1.750   5.818  17.046 -1.7934  1.0851  0.9107
 7330TIP3   OH243480   1.894   3.541  11.136  0.6561  0.3103  0.2333
 7330TIP3    H143481   1.806   3.562  11.104 -0.4838 -1.7071  1.8106
 7330TIP3    H243482   1.943   3.622  11.123 -1.1680  1.2360 -1.5166
 7331TIP3   OH243483   2.227   3.736   5.160  0.5415  0.0057 -0.2977
 7331TIP3    H143484   2.298   3.756   5.099  0.2607 -2.1007 -1.4011
 7331TIP3    H243485   2.271   3.700   5.237  0.8710  2.3568  0.7098
 7332TIP3   OH243486   4.833   6.040   4.768  0.2304  0.5476  0.3296
 7332TIP3    H143487   4.768   5.979   4.733  2.1638  0.0401 -2.7865
 7332TIP3    H243488   4.792   6.126   4.760 -1.2690  0.0026  1.6530
 7333TIP3   OH243489   3.448   0.687   3.592  0.4622  0.0660 -0.2307
 7333TIP3    H143490   3.395   0.741   3.532  4.0281  0.7906 -3.1149
 7333TIP3    H243491   3.474   0.747   3.662 -0.1538  0.5238 -0.3852
 7334TIP3   OH243492   0.452   0.075  11.929  0.2969 -0.0418  0.5006
 7334TIP3    H143493   0.401   0.011  11.980 -1.2437  0.2824 -0.5539
 7334TIP3    H243494   0.420   0.160  11.960 -1.0909  0.1668 -1.3341
 7335TIP3   OH243495   2.094   1.467   1.479  0.1861 -0.1209 -0.1291
 7335TIP3    H143496   2.147   1.533   1.435  0.3777 -0.2992 -0.1702
 7335TIP3    H243497   2.071   1.506   1.563  0.9915 -0.3219  0.1912
 7336TIP3   OH243498   1.829   0.168  11.405 -0.2347  0.2145 -0.5975
 7336TIP3    H143499   1.818   0.263  11.400 -2.5970 -0.0416 -1.6847
 7336TIP3    H243500   1.846   0.141  11.315  5.1568 -0.0831  0.2067
 7337TIP3   OH243501   2.745   1.623   0.759 -0.1014  0.6399 -0.4540
 7337TIP3    H143502   2.811   1.598   0.694  0.1307 -3.3836  1.0617
 7337TIP3    H243503   2.675   1.560   0.747 -1.5170  1.8262  1.1349
 7338TIP3   OH243504   5.077   4.792   4.008  0.8729 -0.4298 -0.2304
 7338TIP3    H143505   5.127   4.793   4.089  0.4601 -2.6622  0.1214
 7338TIP3    H243506   4.994   4.833   4.030  1.0657 -0.2891  0.2493
 7339TIP3   OH243507   3.819   1.325   3.752  0.3858  0.2282  0.3119
 7339TIP3    H143508   3.805   1.339   3.846 -2.0689 -0.2090  0.0768
 7339TIP3    H243509   3.835   1.413   3.717  0.9664  0.4366  1.0577
 7340TIP3   OH243510   3.576   2.933   0.699  0.4264  0.2389 -0.2081
 7340TIP3    H143511   3.521   2.867   0.656  0.7500  0.8652 -1.6453
 7340TIP3    H243512   3.604   2.891   0.780  0.2518 -1.2205 -0.8635
 7341TIP3   OH243513   1.561   6.119  13.046 -0.0460 -0.2930 -0.2872
 7341TIP3    H143514   1.567   6.215  13.037  1.0508 -0.3246 -0.1293
 7341TIP3    H243515   1.574   6.086  12.958 -1.3151 -0.2895 -0.4952
 7342TIP3   OH243516   5.720   1.615  15.644 -0.2179 -0.3406 -0.4299
 7342TIP3    H143517   5.643   1.668  15.667 -0.0329 -0.4302  0.4192
 7342TIP3    H243518   5.683   1.534  15.610 -0.5531 -1.1333  1.6774
 7343TIP3   OH243519   3.482   5.767   4.650  0.1885 -0.4863  1.1708
 7343TIP3    H143520   3.523   5.721   4.724  2.3646 -0.6957 -0.0965
 7343TIP3    H243521   3.552   5.776   4.585 -1.4771  0.3005 -0.6112
 7344TIP3   OH243522   5.403   2.381  13.273  0.7088 -0.0165 -0.5505
 7344TIP3    H143523   5.478   2.416  13.320  2.1439 -1.6400 -1.5341
 7344TIP3    H243524   5.440   2.339  13.196 -0.9204 -3.0160  0.1517
 7345TIP3   OH243525   4.027   0.779   3.829  0.0146  0.3640 -0.0797
 7345TIP3    H143526   4.098   0.817   3.881  1.0111  1.1507 -1.9225
 7345TIP3    H243527   4.071   0.740   3.753 -1.4421 -0.1481 -0.6909
 7346TIP3   OH243528   5.522   6.726   0.306  0.5410  0.5174  0.1566
 7346TIP3    H143529   5.452   6.787   0.330  0.4920  0.7019 -0.4572
 7346TIP3    H243530   5.597   6.782   0.288  0.7633  0.3365  0.5148
 7347TIP3   OH243531   5.364   4.472   5.517  0.3091 -0.5742 -0.3436
 7347TIP3    H143532   5.446   4.428   5.497  0.5153 -1.3261  1.8958
 7347TIP3    H243533   5.378   4.511   5.604 -1.4721 -0.1630 -0.1992
 7348TIP3   OH243534   3.179   0.227   2.434 -0.5773 -0.1485  0.3275
 7348TIP3    H143535   3.138   0.181   2.507  1.3114 -1.9335  0.3505
 7348TIP3    H243536   3.145   0.182   2.356  2.0391 -2.4288  0.3786
 7349TIP3   OH243537   3.372   5.337  14.022  0.2010 -0.3241 -0.0160
 7349TIP3    H143538   3.410   5.382  14.098 -1.0594  1.2023 -0.2258
 7349TIP3    H243539   3.339   5.254  14.058  0.1508  0.1155  0.9905
 7350TIP3   OH243540   2.420   4.656  16.810 -0.4490 -0.0207  0.1589
 7350TIP3    H143541   2.406   4.606  16.730  0.9178  0.5038 -0.4387
 7350TIP3    H243542   2.482   4.604  16.861 -1.4913 -0.4655  1.0112
 7351TIP3   OH243543   1.696   3.606  10.969  0.6281  0.4144 -0.0821
 7351TIP3    H143544   1.751   3.645  10.901  0.5288  0.8202  0.0636
 7351TIP3    H243545   1.627   3.671  10.983 -0.0225 -0.1864 -0.4310
 7352TIP3   OH243546   0.223   0.039  14.994  0.4804  0.3769  0.4294
 7352TIP3    H143547   0.135   0.048  15.029 -0.2441 -0.0760 -1.2134
 7352TIP3    H243548   0.222   0.087  14.911  2.0422  1.1139  0.7900
 7353TIP3   OH243549   5.800   2.437   0.107  0.5143  0.5754 -0.5193
 7353TIP3    H143550   5.798   2.533   0.099 -1.8263  0.6840  0.6222
 7353TIP3    H243551   5.893   2.417   0.121  0.9962  2.7190 -0.1841
 7354TIP3   OH243552   1.905   1.135  12.773  0.6209 -0.0108 -0.4010
 7354TIP3    H143553   1.861   1.194  12.834  0.4270 -1.4955  0.9693
 7354TIP3    H243554   1.980   1.102  12.821  0.8370 -0.7192 -1.2013
 7355TIP3   OH243555   2.314   1.940  15.428 -0.0364 -0.2853 -0.2988
 7355TIP3    H143556   2.231   1.964  15.388 -1.3128 -1.5399  1.4606
 7355TIP3    H243557   2.290   1.896  15.509  2.3535 -0.8022  0.2042
 7356TIP3   OH243558   4.842   5.553   1.150 -0.5697  0.6179 -0.0368
 7356TIP3    H143559   4.763   5.562   1.202 -0.4533  1.5797 -0.0207
 7356TIP3    H243560   4.814   5.502   1.073 -0.5925 -1.4161  1.2457
 7357TIP3   OH243561   0.420   0.197   3.094  0.1591  0.5529  0.2878
 7357TIP3    H143562   0.327   0.176   3.087  0.1398  0.5771  0.4753
 7357TIP3    H243563   0.425   0.291   3.078  0.1742  0.5185  0.0837
 7358TIP3   OH243564   2.492   6.273   1.748 -0.7285 -0.1095 -0.0590
 7358TIP3    H143565   2.530   6.294   1.662  2.1849  2.2461  1.6118
 7358TIP3    H243566   2.549   6.204   1.782 -0.6408  0.3517  0.7447
 7359TIP3   OH243567   6.144   5.678  15.635 -0.3226 -0.3926 -0.0844
 7359TIP3    H143568   6.229   5.665  15.677 -0.6742 -0.2360  0.7058
 7359TIP3    H243569   6.164   5.711  15.548  0.4136  1.5305  0.7488
 7360TIP3   OH243570   1.168   2.976   1.488  0.2528  0.5340  0.1982
 7360TIP3    H143571   1.102   3.045   1.492 -0.6439 -0.2886  0.2492
 7360TIP3    H243572   1.177   2.946   1.578 -0.5413 -0.4534 -0.0304
 7361TIP3   OH243573   3.818   6.056   4.498 -0.1695 -0.2991 -0.0413
 7361TIP3    H143574   3.900   6.101   4.520  1.0909 -1.5138 -1.9279
 7361TIP3    H243575   3.780   6.108   4.427 -0.2658 -0.5630 -0.1835
 7362TIP3   OH243576   4.064   1.034  11.978  0.3959 -0.1313 -0.2024
 7362TIP3    H143577   4.143   0.982  11.994  0.0923 -0.4673  0.2291
 7362TIP3    H243578   4.079   1.073  11.892  0.8972 -0.4395 -0.2644
 7363TIP3   OH243579   0.083   1.976  15.312  0.3935  0.2791 -0.1778
 7363TIP3    H143580   0.092   1.948  15.403 -0.5612  2.5951  0.7090
 7363TIP3    H243581   0.171   2.009  15.289  0.1044  1.8236  0.7481
 7364TIP3   OH243582   4.637   4.352   3.150 -0.4599 -0.1396  0.0187
 7364TIP3    H143583   4.671   4.441   3.146  0.2642 -0.4066  0.1220
 7364TIP3    H243584   4.702   4.299   3.105 -2.4317 -0.2110 -3.0253
 7365TIP3   OH243585   5.200   4.411  15.323 -0.1759 -0.2494 -0.3215
 7365TIP3    H143586   5.142   4.351  15.370 -0.4734 -0.8140 -1.3853
 7365TIP3    H243587   5.286   4.369  15.326  0.1859  0.5174  1.1291
 7366TIP3   OH243588   2.224   2.785  15.312 -0.4157  0.3871 -0.1736
 7366TIP3    H143589   2.315   2.803  15.290 -0.9747  0.5707 -2.5922
 7366TIP3    H243590   2.175   2.858  15.274 -1.7749 -0.9000 -0.9639
 7367TIP3   OH243591   4.238   4.046  10.438  0.2751 -0.9143 -0.0174
 7367TIP3    H143592   4.241   4.014  10.348  1.0137 -0.1794 -0.2743
 7367TIP3    H243593   4.275   4.134  10.433 -2.9002  0.5591  0.4419
 7368TIP3   OH243594   1.858   5.529  11.783 -0.1813  0.4674 -0.1728
 7368TIP3    H143595   1.811   5.562  11.860 -0.0941 -0.5545  0.3292
 7368TIP3    H243596   1.795   5.473  11.738 -0.3094  1.2480 -0.9923
 7369TIP3   OH243597   6.709   3.661  12.722 -0.4558  0.1109 -0.0043
 7369TIP3    H143598   6.787   3.637  12.672  0.2598  2.2109 -0.0037
 7369TIP3    H243599   6.706   3.596  12.793  2.1471  0.7407  0.8243
 7370TIP3   OH243600   5.035   2.770  16.764 -0.1183  0.2131 -0.2812
 7370TIP3    H143601   5.068   2.845  16.815 -1.0525  0.9390 -0.7247
 7370TIP3    H243602   5.051   2.794  16.673  1.6979 -1.1544 -0.3820
 7371TIP3   OH243603   1.919   0.288  11.979 -0.0549  0.4809 -0.4161
 7371TIP3    H143604   1.984   0.221  11.998  0.3988  0.3092 -2.3504
 7371TIP3    H243605   1.837   0.254  12.015  0.1268 -1.2138 -1.5134
 7372TIP3   OH243606   3.647   3.126   1.589  0.2789  0.3896  0.4786
 7372TIP3    H143607   3.574   3.181   1.562 -0.6498 -0.9632  0.1310
 7372TIP3    H243608   3.720   3.153   1.533  0.1094  1.8531  0.9308
 7373TIP3   OH243609   5.722   4.678   1.587 -0.0780  0.3802  0.4809
 7373TIP3    H143610   5.812   4.699   1.560  0.2004  0.2160  1.2491
 7373TIP3    H243611   5.717   4.583   1.581  0.1313  0.3014  1.4080
 7374TIP3   OH243612   5.225   3.317   2.586 -0.2421 -0.0729 -0.1303
 7374TIP3    H143613   5.153   3.310   2.524 -0.2224  2.1983 -0.4931
 7374TIP3    H243614   5.300   3.280   2.540 -0.8467 -1.1151 -0.3023
 7375TIP3   OH243615   4.694   0.955  16.118 -0.2067 -0.4950  0.0685
 7375TIP3    H143616   4.679   0.978  16.210  0.2243 -0.0459  0.0292
 7375TIP3    H243617   4.734   1.033  16.079 -0.5522 -0.6182 -0.5483
 7376TIP3   OH243618   2.119   0.992  12.602  0.7119 -0.1593  0.1708
 7376TIP3    H143619   2.065   0.948  12.537 -1.2400  1.5088  0.5491
 7376TIP3    H243620   2.114   0.937  12.679  0.0741 -0.3516 -0.0054
 7377TIP3   OH243621   1.171   4.955   4.126  1.0509  0.1396 -0.0793
 7377TIP3    H143622   1.254   4.909   4.137 -0.4539 -3.0282 -0.6725
 7377TIP3    H243623   1.153   4.950   4.032 -0.3960 -0.4165  0.1969
 7378TIP3   OH243624   5.758   5.564  13.940 -0.5597 -0.3168  0.0865
 7378TIP3    H143625   5.840   5.607  13.967  1.1357 -2.3853 -1.3826
 7378TIP3    H243626   5.737   5.604  13.855 -1.1647  0.3020  0.5222
 7379TIP3   OH243627   0.464   6.142   5.574 -0.9342 -0.1977 -0.2441
 7379TIP3    H143628   0.485   6.113   5.663 -0.4708 -0.1532 -0.3343
 7379TIP3    H243629   0.371   6.123   5.564 -0.4812 -2.5349 -0.6179
 7380TIP3   OH243630   0.107   5.859   0.708  0.1537  0.0052 -0.8111
 7380TIP3    H143631   0.194   5.898   0.699 -0.2194  1.1297  0.2398
 7380TIP3    H243632   0.073   5.856   0.619  1.3934 -0.7958 -1.2881
 7381TIP3   OH243633   1.387   6.751   6.159  0.8341 -0.0853 -0.1352
 7381TIP3    H143634   1.470   6.709   6.182  0.4265 -1.6442 -1.3072
 7381TIP3    H243635   1.405   6.794   6.075 -0.0248 -2.2627 -1.5309
 7382TIP3   OH243636   2.563   5.253  10.726 -0.3661  0.1924  0.3542
 7382TIP3    H143637   2.471   5.226  10.727 -0.1153 -0.7198 -0.1982
 7382TIP3    H243638   2.573   5.300  10.643 -0.6460  1.5019  1.0278
 7383TIP3   OH243639   1.536   5.764   2.114 -0.0985 -0.0223  0.0340
 7383TIP3    H143640   1.587   5.802   2.186 -1.8342  0.6132  0.9819
 7383TIP3    H243641   1.504   5.840   2.065 -2.0454 -0.2833  0.8429
 7384TIP3   OH243642   1.739   4.208  15.914  0.0501  0.2272 -0.0128
 7384TIP3    H143643   1.808   4.265  15.947  0.2575  0.0843 -0.2009
 7384TIP3    H243644   1.783   4.150  15.852 -0.4385  0.8488 -0.9562
 7385TIP3   OH243645   2.101   5.465   0.014  0.1148 -0.0404 -0.2923
 7385TIP3    H143646   2.007   5.464   0.037  0.5821  0.6924  1.9355
 7385TIP3    H243647   2.108   5.529  -0.056 -1.1168 -0.4347 -0.8039
 7386TIP3   OH243648   6.233   3.891  16.628 -0.0853  0.5749 -0.2297
 7386TIP3    H143649   6.262   3.800  16.639 -1.2221  0.0122 -1.5309
 7386TIP3    H243650   6.142   3.883  16.599  0.0091  2.1126 -1.0208
 7387TIP3   OH243651   5.019   2.926   2.893 -0.3265  0.3322  0.3384
 7387TIP3    H143652   4.990   3.000   2.839 -0.6779  0.0914  0.1970
 7387TIP3    H243653   5.094   2.960   2.941  0.1361  0.4863 -0.4730
 7388TIP3   OH243654   1.542   0.914  12.811  0.2492 -0.4127 -0.4186
 7388TIP3    H143655   1.598   0.870  12.748 -0.4323  0.1361 -1.4301
 7388TIP3    H243656   1.522   0.999  12.772 -1.4359 -0.6647 -0.2034
 7389TIP3   OH243657   6.538   0.285  15.514  0.3799  0.5747 -0.1105
 7389TIP3    H143658   6.450   0.269  15.480  0.4768  1.8560 -1.0078
 7389TIP3    H243659   6.597   0.251  15.447  0.6552 -2.1801  1.3729
 7390TIP3   OH243660   0.544   0.917  14.227  0.0523 -0.2046 -0.6216
 7390TIP3    H143661   0.630   0.942  14.195  0.8047  0.9146  2.0004
 7390TIP3    H243662   0.543   0.821  14.221  0.3472 -0.1215 -3.1763
 7391TIP3   OH243663   3.507   6.051  14.479 -0.5412  0.7131 -0.0899
 7391TIP3    H143664   3.483   5.960  14.465  0.9125  0.3849 -0.5216
 7391TIP3    H243665   3.431   6.100  14.446 -0.9582 -0.3075 -0.6997
 7392TIP3   OH243666   3.781   1.662  13.368  0.2833 -0.0715  0.1895
 7392TIP3    H143667   3.696   1.678  13.409  0.4882  1.2162  0.1553
 7392TIP3    H243668   3.765   1.589  13.308 -0.1787 -1.5982  2.0472
 7393TIP3   OH243669   2.396   1.710  13.188  0.5066 -0.1483  0.0974
 7393TIP3    H143670   2.332   1.775  13.157  0.4691 -0.4992 -0.5930
 7393TIP3    H243671   2.478   1.735  13.144  0.7009 -0.0575  0.5072
 7394TIP3   OH243672   4.686   2.048   5.455 -0.1493  0.5886  0.0968
 7394TIP3    H143673   4.777   2.070   5.435  0.5436 -1.6839  0.3814
 7394TIP3    H243674   4.689   2.019   5.547 -0.9622 -0.3748 -0.1646
 7395TIP3   OH243675   4.887   3.569  16.673  0.1245  0.0541  0.0718
 7395TIP3    H143676   4.963   3.558  16.731 -0.0115  1.3096  0.5278
 7395TIP3    H243677   4.813   3.538  16.725  0.0954  0.5535  0.3440
 7396TIP3   OH243678   5.457   2.198  13.575  0.1722  0.0756 -0.4393
 7396TIP3    H143679   5.532   2.170  13.522  0.0674 -1.7023  0.2953
 7396TIP3    H243680   5.382   2.189  13.517  0.0764 -1.7285 -0.0886
 7397TIP3   OH243681   5.953   5.836  15.709 -0.4077  0.0228  0.4059
 7397TIP3    H143682   5.908   5.860  15.627  0.8387  2.1304  0.2595
 7397TIP3    H243683   5.993   5.751  15.690 -0.0452  0.5150 -1.2491
 7398TIP3   OH243684   6.243   4.636   4.252  0.3881  0.7813 -0.0886
 7398TIP3    H143685   6.183   4.562   4.246  2.3960 -0.8707 -1.3128
 7398TIP3    H243686   6.187   4.713   4.257 -1.7813 -0.7374  0.1480
 7399TIP3   OH243687   2.287   2.743   4.180  0.4326 -0.1738 -0.3879
 7399TIP3    H143688   2.195   2.769   4.192  0.2603 -0.4719 -0.9971
 7399TIP3    H243689   2.315   2.712   4.266 -0.5383 -1.6378 -0.5696
 7400TIP3   OH243690   1.721   0.655  13.785 -0.3873 -0.4473  0.1590
 7400TIP3    H143691   1.791   0.602  13.823  1.2458  1.1246 -0.4867
 7400TIP3    H243692   1.665   0.593  13.739  1.3481 -1.6418 -0.4270
 7401TIP3   OH243693   2.585   5.531   3.555 -0.0335 -0.6644 -0.1783
 7401TIP3    H143694   2.526   5.530   3.479 -1.1604 -1.0633  0.6631
 7401TIP3    H243695   2.572   5.445   3.595  0.3761 -0.3730  0.5881
 7402TIP3   OH243696   6.335   4.582  14.436 -0.5111 -0.2207 -0.3823
 7402TIP3    H143697   6.266   4.538  14.386 -0.7107 -2.3157  1.5889
 7402TIP3    H243698   6.378   4.512  14.484  1.2040  1.4067  0.5642
 7403TIP3   OH243699   3.001   4.297  14.778 -0.4349  0.0383  0.5022
 7403TIP3    H143700   2.951   4.373  14.807 -0.6525 -0.2522  0.9079
 7403TIP3    H243701   2.937   4.225  14.779  0.0046 -0.3535  1.1056
 7404TIP3   OH243702   1.194   4.432  15.300  0.0299 -0.7640  0.3912
 7404TIP3    H143703   1.099   4.435  15.300  0.0010 -1.5413  0.0834
 7404TIP3    H243704   1.217   4.392  15.216  0.6400 -0.2323  0.2968
 7405TIP3   OH243705   5.812   1.817  15.424  0.6423  0.3158 -0.0418
 7405TIP3    H143706   5.884   1.757  15.444  0.3508  0.9190  3.6028
 7405TIP3    H243707   5.733   1.768  15.446  0.3455  1.5053  1.8148
 7406TIP3   OH243708   1.659   4.481   0.739 -0.1274 -0.1829 -0.3034
 7406TIP3    H143709   1.612   4.466   0.657 -1.1637 -0.8970  0.3968
 7406TIP3    H243710   1.703   4.398   0.756  0.1953  0.0097 -0.1888
 7407TIP3   OH243711   5.393   5.209   6.003  0.1454 -0.5671 -0.2810
 7407TIP3    H143712   5.298   5.220   6.002  0.1226  0.8051  3.0044
 7407TIP3    H243713   5.425   5.260   5.929 -1.6055  0.0308 -0.6605
 7408TIP3   OH243714   5.453   5.897  12.925  0.3451 -0.3153 -0.2057
 7408TIP3    H143715   5.491   5.901  12.837 -0.8333 -1.3235 -0.7927
 7408TIP3    H243716   5.361   5.920  12.913  0.0313 -1.0423  0.6681
 7409TIP3   OH243717   5.800   4.939  11.209  0.0119  0.3373 -0.0933
 7409TIP3    H143718   5.752   4.921  11.290 -0.4047  0.7294 -0.2445
 7409TIP3    H243719   5.879   4.985  11.237  0.2946 -0.3013  0.1596
 7410TIP3   OH243720   4.033   3.706   1.134 -0.3533  0.2019  0.6273
 7410TIP3    H143721   4.050   3.739   1.223  3.7353  0.3957 -0.0110
 7410TIP3    H243722   4.056   3.613   1.138  0.2090  0.2867 -0.2516
 7411TIP3   OH243723   3.468   1.272   3.308 -0.4354 -0.0160 -0.3648
 7411TIP3    H143724   3.492   1.364   3.300  0.8154 -0.1328  1.3639
 7411TIP3    H243725   3.522   1.239   3.381  0.0890 -2.4167 -1.7122
 7412TIP3   OH243726   2.172   3.145  11.443 -0.2591 -0.2765 -0.7085
 7412TIP3    H143727   2.238   3.080  11.464  1.2743  0.8581 -1.7195
 7412TIP3    H243728   2.216   3.204  11.382 -1.4835  1.8506  0.3511
 7413TIP3   OH243729   4.698   4.207   1.610  0.1347 -0.5108  0.4718
 7413TIP3    H143730   4.794   4.207   1.612  0.1931  2.0583  0.2288
 7413TIP3    H243731   4.673   4.287   1.656 -1.8312 -0.1615 -1.0877
 7414TIP3   OH243732   5.933   2.722   1.867  0.2910 -0.2092  0.0940
 7414TIP3    H143733   5.950   2.660   1.938 -0.9410  0.8116  1.3256
 7414TIP3    H243734   5.852   2.693   1.828 -1.1776  1.4245  1.7087
 7415TIP3   OH243735   4.387   5.866   0.772  0.7192  0.3855 -0.4896
 7415TIP3    H143736   4.385   5.917   0.853  0.9813 -1.3086  0.6374
 7415TIP3    H243737   4.463   5.808   0.782 -1.7232 -2.9981  0.1097
 7416TIP3   OH243738   6.496   6.659   2.336  0.3044  0.1009  0.5182
 7416TIP3    H143739   6.501   6.616   2.251 -1.3299  1.2594 -0.2130
 7416TIP3    H243740   6.467   6.591   2.396 -0.9700 -0.1674 -0.3617
 7417TIP3   OH243741   0.591   5.891  12.195 -0.5204  0.4904  0.1617
 7417TIP3    H143742   0.508   5.938  12.205 -0.3605  0.3324  3.3107
 7417TIP3    H243743   0.566   5.799  12.192 -0.5397  0.5197 -0.7801
 7418TIP3   OH243744   0.096   0.023   0.544 -0.2999 -0.3918 -0.0202
 7418TIP3    H143745   0.037   0.081   0.498  1.7365  1.5064 -0.4151
 7418TIP3    H243746   0.121   0.071   0.622 -0.0232 -1.5573  0.6267
 7419TIP3   OH243747   2.677   5.066   4.728 -0.3431 -0.2695 -0.0131
 7419TIP3    H143748   2.670   5.060   4.633 -0.0324  1.8675 -0.2312
 7419TIP3    H243749   2.604   5.124   4.753  1.5177  1.9827  0.5894
 7420TIP3   OH243750   3.575   0.063   5.345 -0.6380  0.4109  0.1144
 7420TIP3    H143751   3.568  -0.029   5.321  2.1736  0.1855 -0.2192
 7420TIP3    H243752   3.538   0.069   5.433  0.3374 -1.3195  0.6776
 7421TIP3   OH243753   2.953   0.465   3.029  0.8573 -0.2270  0.3321
 7421TIP3    H143754   2.979   0.461   2.936 -0.4436 -3.4677 -0.0426
 7421TIP3    H243755   2.891   0.537   3.034  1.2401  0.2533 -1.2455
 7422TIP3   OH243756   2.224   0.880  16.765  0.4640 -0.0554 -0.4537
 7422TIP3    H143757   2.271   0.806  16.803 -0.0387 -0.3989 -0.4986
 7422TIP3    H243758   2.242   0.953  16.824 -1.1394 -0.8057  1.0528
 7423TIP3   OH243759   6.152   4.139  16.509  0.3117 -0.0786 -0.2662
 7423TIP3    H143760   6.168   4.084  16.586 -1.4857 -1.2772 -0.7079
 7423TIP3    H243761   6.212   4.213  16.521 -0.1947  0.0054  2.5129
 7424TIP3   OH243762   5.415   5.691   1.534  0.0660  0.2170  0.5370
 7424TIP3    H143763   5.452   5.715   1.620  0.0546  1.2293  0.2734
 7424TIP3    H243764   5.345   5.754   1.520 -0.3645 -0.3602  0.0656
 7425TIP3   OH243765   5.535   3.345  12.844 -0.1962 -0.0352  0.6880
 7425TIP3    H143766   5.526   3.432  12.883  0.8489  1.3368 -1.9209
 7425TIP3    H243767   5.488   3.351  12.761  3.6112 -0.3872 -1.7234
 7426TIP3   OH243768   5.005   5.875   4.186 -0.0858  0.3332 -0.6420
 7426TIP3    H143769   5.000   5.906   4.276  0.1787 -1.0008 -0.1438
 7426TIP3    H243770   5.088   5.828   4.182 -0.0187  0.5116 -1.6397
 7427TIP3   OH243771   3.615   0.356   3.308 -0.1695  0.1049 -0.1998
 7427TIP3    H143772   3.633   0.265   3.332  0.4472  0.8743  2.6016
 7427TIP3    H243773   3.549   0.385   3.370 -1.2833  1.2708 -1.8440
 7428TIP3   OH243774   6.417   5.579  12.023  0.0890 -0.2213 -0.2654
 7428TIP3    H143775   6.348   5.642  12.044  1.6672  1.1407  1.1404
 7428TIP3    H243776   6.417   5.518  12.097  0.7484  0.1403  0.0445
 7429TIP3   OH243777   2.216   3.603  13.919  0.3929  0.9405  0.3670
 7429TIP3    H143778   2.284   3.584  13.984  1.8627 -0.1641 -1.4112
 7429TIP3    H243779   2.264   3.635  13.843 -0.9881 -0.3632 -1.1229
 7430TIP3   OH243780   2.515   0.316  15.991  0.2322 -0.2106 -0.6835
 7430TIP3    H143781   2.585   0.369  16.028 -0.7546 -0.5193  1.8052
 7430TIP3    H243782   2.449   0.379  15.962  1.2820  0.0606 -2.6512
 7431TIP3   OH243783   6.720   5.911   5.676  0.6645  0.7752 -0.5713
 7431TIP3    H143784   6.712   5.998   5.717 -1.0161  0.8221 -0.9466
 7431TIP3    H243785   6.729   5.851   5.750  1.6448  1.2298 -0.3008
 7432TIP3   OH243786   2.921   5.936   4.233  0.3134 -0.5380 -0.1083
 7432TIP3    H143787   2.991   5.914   4.295  1.2861 -0.1912 -1.0569
 7432TIP3    H243788   2.951   6.016   4.191 -1.9133  1.2081  1.3779
 7433TIP3   OH243789   6.121   0.713   1.914 -0.0679 -0.7292 -0.0927
 7433TIP3    H143790   6.062   0.785   1.936  0.8275  0.2111 -0.6784
 7433TIP3    H243791   6.158   0.686   1.999  1.6616  1.3653 -0.1005
 7434TIP3   OH243792   3.970   1.236  13.729 -0.6062 -0.6806  0.9024
 7434TIP3    H143793   3.886   1.258  13.770 -0.5606  0.1540  0.5675
 7434TIP3    H243794   4.024   1.314  13.741  0.1320 -1.2131  1.1187
 7435TIP3   OH243795   3.559   3.682  14.112 -0.2092 -0.1843 -0.1188
 7435TIP3    H143796   3.633   3.625  14.132  0.1512 -1.0042 -3.3368
 7435TIP3    H243797   3.486   3.645  14.161  0.5832 -1.9312 -0.2026
 7436TIP3   OH243798   6.313   4.993  17.182 -0.1257 -0.2757  0.2252
 7436TIP3    H143799   6.380   5.035  17.236 -0.3365  2.2677 -1.3153
 7436TIP3    H243800   6.362   4.946  17.115  0.1035 -0.8766  0.8008
 7437TIP3   OH243801   0.735   6.501   0.940 -0.1575 -0.1856  0.7452
 7437TIP3    H143802   0.725   6.406   0.942  1.0377 -0.3923 -0.5639
 7437TIP3    H243803   0.660   6.533   0.889 -0.9293 -0.3389  1.7643
 7438TIP3   OH243804   0.217   3.866   0.489  0.0852 -0.2200  0.7897
 7438TIP3    H143805   0.189   3.846   0.399 -0.1643  0.2640  0.7575
 7438TIP3    H243806   0.175   3.949   0.509  1.7780  0.7044  0.6225
 7439TIP3   OH243807   5.913   0.896  12.748 -0.0492  0.4923  0.5561
 7439TIP3    H143808   5.848   0.965  12.765  0.2433  0.9530 -0.1380
 7439TIP3    H243809   5.963   0.929  12.674  0.6781 -0.0782  0.7888
 7440TIP3   OH243810   5.549   1.550  14.749  0.3499 -0.0500 -0.0676
 7440TIP3    H143811   5.605   1.569  14.674  0.4595 -0.6501 -0.1383
 7440TIP3    H243812   5.600   1.490  14.804 -0.0457 -0.2516  0.0869
 7441TIP3   OH243813   1.424   6.441  16.959 -0.0494 -0.4509  0.1763
 7441TIP3    H143814   1.351   6.491  16.921  1.5909  0.7931 -1.5927
 7441TIP3    H243815   1.463   6.501  17.023  0.4333 -0.4079 -0.1487
 7442TIP3   OH243816   5.001   0.290  12.797 -0.9145 -0.1210  0.4747
 7442TIP3    H143817   5.093   0.289  12.823 -1.4071 -0.4886  2.3026
 7442TIP3    H243818   4.960   0.221  12.849 -1.9428 -1.1587 -1.5630
 7443TIP3   OH243819   0.519   4.428   3.035 -0.0813 -0.1579 -0.3925
 7443TIP3    H143820   0.547   4.367   2.967 -0.1048 -1.1811  0.4777
 7443TIP3    H243821   0.584   4.498   3.034  0.5836 -0.7687 -0.6813
 7444TIP3   OH243822   4.458   1.729   3.105  0.5573  0.3488 -0.0757
 7444TIP3    H143823   4.395   1.798   3.125  0.7735  0.2217  1.0973
 7444TIP3    H243824   4.523   1.772   3.049  0.5968  1.0611  0.4981
 7445TIP3   OH243825   0.212   0.420   2.829 -0.1559 -0.0450 -0.1245
 7445TIP3    H143826   0.255   0.344   2.792  2.6243  1.0738  0.6068
 7445TIP3    H243827   0.195   0.477   2.754  2.5099  0.8029 -0.1873
 7446TIP3   OH243828   3.542   1.757  11.849 -0.2132 -0.2394 -0.5635
 7446TIP3    H143829   3.585   1.840  11.828  0.0737 -0.6291 -1.5399
 7446TIP3    H243830   3.485   1.739  11.774  0.4532 -1.4020 -0.8104
 7447TIP3   OH243831   0.225   1.609  11.896 -0.0040  0.2151 -0.3475
 7447TIP3    H143832   0.188   1.528  11.862  0.2532 -0.0765  0.0662
 7447TIP3    H243833   0.169   1.678  11.859  0.9772  0.0146 -2.3720
 7448TIP3   OH243834   3.280   5.274  11.738  0.4188 -0.0386 -0.1786
 7448TIP3    H143835   3.340   5.213  11.781  0.3578 -0.8595 -1.1952
 7448TIP3    H243836   3.334   5.324  11.677  0.7815  2.1991  1.8483
 7449TIP3   OH243837   0.627   6.265   2.275 -0.1474  0.3622  0.2808
 7449TIP3    H143838   0.650   6.197   2.338 -1.1302  2.0398  2.5844
 7449TIP3    H243839   0.709   6.310   2.258 -0.0786  0.6883  1.3952
 7450TIP3   OH243840   2.170   1.388  16.807  0.1536 -0.3320  0.0374
 7450TIP3    H143841   2.155   1.411  16.715  0.5595 -2.9909 -0.7647
 7450TIP3    H243842   2.265   1.394  16.819  0.1962 -0.8539  0.0008
 7451TIP3   OH243843   6.498   1.666  14.410  0.0143 -0.2847 -0.2464
 7451TIP3    H143844   6.548   1.597  14.366  1.3437  0.5180 -0.0613
 7451TIP3    H243845   6.420   1.621  14.444 -1.7826 -0.7735 -4.3559
 7452TIP3   OH243846   2.610   4.812  15.940 -0.6573  0.0063 -0.0107
 7452TIP3    H143847   2.588   4.818  16.033  0.3930 -1.4751  0.3629
 7452TIP3    H243848   2.559   4.738  15.908 -0.7108  0.2624 -0.5280
 7453TIP3   OH243849   6.486   5.266  15.651  0.1734 -0.3422  0.1704
 7453TIP3    H143850   6.425   5.331  15.616  0.5545 -0.7415 -1.3064
 7453TIP3    H243851   6.554   5.318  15.694  1.7930  0.4691 -3.0816
 7454TIP3   OH243852   6.425   3.289   6.345 -0.5386 -0.2049  0.6103
 7454TIP3    H143853   6.519   3.289   6.366 -0.4818  1.2473  0.4803
 7454TIP3    H243854   6.385   3.233   6.411  0.6199 -2.3743 -0.4246
 7455TIP3   OH243855   1.099   6.288   0.831  0.4150  0.5037  0.5111
 7455TIP3    H143856   1.152   6.322   0.903  2.5197  0.6831 -1.0594
 7455TIP3    H243857   1.049   6.363   0.799 -0.5153  0.4298  1.7022
 7456TIP3   OH243858   0.701   1.859   1.313 -0.4484 -0.2273  0.0292
 7456TIP3    H143859   0.754   1.933   1.282 -1.2795  0.3767  0.0269
 7456TIP3    H243860   0.744   1.833   1.395 -1.1405  1.4068  0.9601
 7457TIP3   OH243861   0.262   3.882  14.147 -0.4355  0.3159 -0.3857
 7457TIP3    H143862   0.260   3.978  14.148 -0.4440  0.3146 -0.1909
 7457TIP3    H243863   0.259   3.857  14.240 -0.3431  0.1289 -0.4325
 7458TIP3   OH243864   1.537   2.450  14.201  0.1233  0.4000 -0.3879
 7458TIP3    H143865   1.444   2.432  14.185 -0.2381  0.8434  1.0415
 7458TIP3    H243866   1.579   2.365  14.194 -0.5341  0.0474 -0.2210
 7459TIP3   OH243867   1.208   5.717  13.625  0.2268  0.2635 -0.6512
 7459TIP3    H143868   1.302   5.700  13.614  0.7455  1.2910  1.6600
 7459TIP3    H243869   1.182   5.759  13.543  2.0134  0.9043 -0.9364
 7460TIP3   OH243870   4.295   6.756  12.322 -0.3682  0.2350 -0.4576
 7460TIP3    H143871   4.301   6.851  12.312 -0.8977  0.5689  1.8843
 7460TIP3    H243872   4.369   6.722  12.272 -0.2977  1.8401 -1.5217
 7461TIP3   OH243873   0.850   1.944  11.918  0.2404 -0.2547 -0.1159
 7461TIP3    H143874   0.915   1.919  11.852 -0.3257 -2.6644  0.1714
 7461TIP3    H243875   0.778   1.982  11.867  1.0672  0.7650 -0.5799
 7462TIP3   OH243876   2.395   0.332   5.279 -0.1514 -0.1456 -0.8301
 7462TIP3    H143877   2.314   0.380   5.265 -0.0774  0.5494  0.8951
 7462TIP3    H243878   2.439   0.334   5.194 -1.5661  0.1643 -1.5758
 7463TIP3   OH243879   4.555   6.370   5.610 -0.9026 -0.2014 -0.5594
 7463TIP3    H143880   4.479   6.352   5.553 -0.4322 -1.5631 -0.7787
 7463TIP3    H243881   4.631   6.347   5.556 -0.2527  1.7760 -0.5802
 7464TIP3   OH243882   6.078   2.595   0.886 -0.7109  0.4679 -0.1428
 7464TIP3    H143883   6.142   2.529   0.860  1.2836  2.2752 -0.0739
 7464TIP3    H243884   6.014   2.596   0.814  1.2994  1.0638 -2.0352
 7465TIP3   OH243885   1.080   4.549   1.822 -0.0926 -0.1598  0.0953
 7465TIP3    H143886   1.121   4.627   1.786  1.2578 -0.6211  0.5735
 7465TIP3    H243887   1.010   4.582   1.878 -0.4018  0.6426 -0.7316
 7466TIP3   OH243888   3.457   3.131   6.623 -0.0208 -0.1622  0.1828
 7466TIP3    H143889   3.375   3.082   6.627 -0.7100  0.8411 -0.9706
 7466TIP3    H243890   3.524   3.067   6.646 -1.0003 -1.3102 -0.0400
 7467TIP3   OH243891   3.957   4.885  10.702  0.1096 -0.0343 -0.3270
 7467TIP3    H143892   3.999   4.800  10.686 -0.3619 -0.9346  2.6474
 7467TIP3    H243893   3.950   4.925  10.615  0.5187 -2.9362 -1.8094
 7468TIP3   OH243894   4.309   5.405   5.408 -0.1843 -0.2573 -0.1728
 7468TIP3    H143895   4.397   5.410   5.446 -0.8195 -0.9085  1.4941
 7468TIP3    H243896   4.251   5.436   5.477 -1.2778  0.3220 -1.3020
 7469TIP3   OH243897   0.219   6.360  15.685 -0.4679 -0.3831  0.3850
 7469TIP3    H143898   0.204   6.418  15.610 -0.2919 -1.1115 -0.2339
 7469TIP3    H243899   0.286   6.405  15.737 -0.7684  0.2462  0.2302
 7470TIP3   OH243900   4.457   0.457   5.360  0.6455 -0.2124  0.0885
 7470TIP3    H143901   4.509   0.456   5.280 -0.6771 -1.1577 -0.7939
 7470TIP3    H243902   4.417   0.544   5.362 -0.1333 -0.5354 -0.8443
 7471TIP3   OH243903   5.751   3.289  11.503  0.8565 -0.6880 -0.3923
 7471TIP3    H143904   5.800   3.234  11.565 -0.6643 -1.5144  0.1239
 7471TIP3    H243905   5.692   3.229  11.459  0.4517  0.2483 -1.1556
 7472TIP3   OH243906   1.594   6.734   3.139  0.1594 -0.9123  0.2658
 7472TIP3    H143907   1.629   6.814   3.099 -0.7493 -0.5681  0.1486
 7472TIP3    H243908   1.604   6.668   3.070 -2.0780 -0.1583 -0.8724
 7473TIP3   OH243909   6.082   2.743  13.591  0.1994  0.3976  0.4177
 7473TIP3    H143910   5.997   2.713  13.622 -0.9007  0.3746 -2.3259
 7473TIP3    H243911   6.070   2.758  13.497  3.0734  0.9717  0.0269
 7474TIP3   OH243912   4.840   1.704   4.516 -0.0241  0.7275  0.6004
 7474TIP3    H143913   4.880   1.667   4.438 -0.2212  0.8036  0.4623
 7474TIP3    H243914   4.859   1.798   4.511  1.2873  0.5367  1.4284
 7475TIP3   OH243915   1.725   1.000   3.659 -0.2316  0.1466  0.3474
 7475TIP3    H143916   1.696   1.018   3.749 -0.0556 -1.0157  0.6474
 7475TIP3    H243917   1.717   0.905   3.649  1.3509  0.0496 -0.2855
 7476TIP3   OH243918   1.406   3.355  13.276 -0.2535 -0.1477  0.5201
 7476TIP3    H143919   1.328   3.392  13.234 -0.9308 -1.2766  0.7569
 7476TIP3    H243920   1.424   3.414  13.348 -0.7948  0.2129  0.3672
 7477TIP3   OH243921   1.614   1.782  14.018 -0.4258 -0.1578  0.1166
 7477TIP3    H143922   1.651   1.794  13.930 -0.8903 -1.3236 -0.2635
 7477TIP3    H243923   1.520   1.774  14.003 -0.4984 -0.4775  0.7094
 7478TIP3   OH243924   2.633   1.722  12.858 -0.3720  0.2547  0.0702
 7478TIP3    H143925   2.560   1.774  12.892  0.5696  0.4754  1.8473
 7478TIP3    H243926   2.694   1.787  12.822  0.0664  0.2602  0.8210
 7479TIP3   OH243927   0.319   6.428   3.785  0.3176  0.0981 -0.4797
 7479TIP3    H143928   0.302   6.457   3.875 -0.8196 -1.3978 -0.1724
 7479TIP3    H243929   0.413   6.409   3.783  0.8792  2.5475 -0.3714
 7480TIP3   OH243930   2.838   0.238   5.606  0.2305  0.4182 -0.4847
 7480TIP3    H143931   2.865   0.153   5.641 -2.6419 -2.2082 -3.8314
 7480TIP3    H243932   2.920   0.277   5.573  1.4514 -1.8361 -0.3292
 7481TIP3   OH243933   1.863   6.541   3.061  0.5426 -0.6834  0.1357
 7481TIP3    H143934   1.839   6.602   3.131 -1.5704  1.3965 -2.2133
 7481TIP3    H243935   1.957   6.554   3.049  0.5953  0.2203  1.3877
 7482TIP3   OH243936   0.455   2.845   4.618 -0.1069 -0.2418 -0.2180
 7482TIP3    H143937   0.460   2.776   4.684 -1.7233  0.0029  0.2125
 7482TIP3    H243938   0.477   2.925   4.665 -1.6630 -0.0078  0.1821
 7483TIP3   OH243939   6.779   3.589   5.671 -0.3135 -0.3824  0.1486
 7483TIP3    H143940   6.749   3.613   5.759  0.7901  0.9174  0.1984
 7483TIP3    H243941   6.710   3.619   5.613  0.0252  0.9270  0.4011
 7484TIP3   OH243942   1.454   4.127  15.662 -0.3727 -0.3546  0.2844
 7484TIP3    H143943   1.392   4.187  15.704  0.3105 -0.0951  0.9415
 7484TIP3    H243944   1.405   4.091  15.588 -0.9529  0.6593  0.1504
 7485TIP3   OH243945   2.199   4.814   2.681  0.0219  0.0174  0.1274
 7485TIP3    H143946   2.230   4.903   2.699 -0.2919  0.0734  0.3992
 7485TIP3    H243947   2.127   4.801   2.743  0.7849 -0.8369  0.8610
 7486TIP3   OH243948   3.521   5.058   3.669  0.2317 -0.4450 -0.5659
 7486TIP3    H143949   3.472   5.041   3.588  1.2473 -0.4214 -1.1954
 7486TIP3    H243950   3.576   5.133   3.649  0.9721 -0.8417 -0.0611
 7487TIP3   OH243951   3.179   4.558   4.594  0.0124  0.1833  0.2757
 7487TIP3    H143952   3.232   4.580   4.670  0.0388 -0.5571  0.4765
 7487TIP3    H243953   3.165   4.463   4.600 -3.9195  0.6648  1.9494
 7488TIP3   OH243954   0.483   4.735  11.722  0.1115  0.2068  0.3251
 7488TIP3    H143955   0.454   4.797  11.788  0.5820  0.7512  0.0292
 7488TIP3    H243956   0.574   4.715  11.746 -0.5374 -1.7126  1.4258
 7489TIP3   OH243957   3.583   3.365   0.422  0.2939 -0.0996 -0.5640
 7489TIP3    H143958   3.644   3.407   0.360 -0.9648  2.4324 -0.2221
 7489TIP3    H243959   3.579   3.426   0.496 -0.1346 -1.8607  0.9237
 7490TIP3   OH243960   6.263   1.774   2.720  0.0128  0.8234 -0.0593
 7490TIP3    H143961   6.353   1.779   2.686  0.6282 -0.4498  1.2730
 7490TIP3    H243962   6.233   1.687   2.695 -0.0128  0.3806  1.4304
 7491TIP3   OH243963   5.996   5.478   0.192  0.3482 -0.3555  0.2474
 7491TIP3    H143964   5.925   5.511   0.136  1.0268 -1.0549 -1.0611
 7491TIP3    H243965   5.981   5.383   0.196  1.5290 -0.5890 -0.5251
 7492TIP3   OH243966   5.066   2.749  11.990  0.5828  0.0043 -0.2250
 7492TIP3    H143967   5.004   2.715  11.925  1.1559 -0.4036 -0.5765
 7492TIP3    H243968   5.068   2.844  11.974  0.2078 -0.0072 -0.3488
 7493TIP3   OH243969   1.234   1.588   5.064  0.0285  0.1635  0.1568
 7493TIP3    H143970   1.315   1.571   5.111  0.1425  1.1309  0.3221
 7493TIP3    H243971   1.258   1.649   4.995 -0.3963 -0.2123 -0.3318
 7494TIP3   OH243972   6.023   2.087  11.779  0.0270  0.5241 -0.1118
 7494TIP3    H143973   6.068   2.131  11.707 -0.3692  3.5018  1.2722
 7494TIP3    H243974   6.078   2.107  11.856 -0.1178 -1.6489  0.6233
 7495TIP3   OH243975   3.034   6.303   3.151  0.1301  0.5906  0.2148
 7495TIP3    H143976   3.103   6.346   3.203 -0.1144  1.4834 -0.1754
 7495TIP3    H243977   2.988   6.375   3.109 -0.1637 -0.0793 -0.6345
 7496TIP3   OH243978   6.419   6.188   5.645  0.6301  0.5312  0.2519
 7496TIP3    H143979   6.376   6.252   5.588 -1.5987  0.7068  2.0013
 7496TIP3    H243980   6.386   6.207   5.732  2.6603 -0.7902  1.3909
 7497TIP3   OH243981   6.754   2.383   4.417 -0.0928 -0.4891 -0.1621
 7497TIP3    H143982   6.717   2.470   4.427  0.1335 -0.5519  1.7186
 7497TIP3    H243983   6.703   2.342   4.347 -2.6193 -0.0698  1.3244
 7498TIP3   OH243984   3.918   1.803  12.345  0.9967  0.2327 -0.3100
 7498TIP3    H143985   3.907   1.726  12.289  0.7500  0.1405 -0.1336
 7498TIP3    H243986   3.843   1.859  12.325 -0.0177 -0.5588  1.1523
 7499TIP3   OH243987   4.773   4.353  10.989 -0.3011 -0.0387 -0.2453
 7499TIP3    H143988   4.815   4.267  10.987 -0.6946 -0.2316 -0.3133
 7499TIP3    H243989   4.840   4.412  11.023  0.3016 -0.1861 -1.1386
 7500TIP3   OH243990   6.365   6.526  12.240 -0.3793  0.0951  0.7339
 7500TIP3    H143991   6.430   6.584  12.279  1.0668  0.3233 -1.7853
 7500TIP3    H243992   6.396   6.512  12.151 -2.2306 -2.2421  0.3513
 7501TIP3   OH243993   1.515   3.979   2.627 -0.4608  1.0222 -0.3727
 7501TIP3    H143994   1.531   4.019   2.542  0.2856  2.0356  0.2115
 7501TIP3    H243995   1.451   4.036   2.669 -0.9203  0.4577 -0.2955
 7502TIP3   OH243996   4.189   5.066   0.033  0.4119 -0.7044  0.1098
 7502TIP3    H143997   4.279   5.092   0.009  0.4861 -1.4409 -0.4542
 7502TIP3    H243998   4.162   5.008  -0.038 -0.7892  0.0841 -0.1063
 7503TIP3   OH243999   1.014   4.684  12.975 -0.6203  0.2713  0.9232
 7503TIP3    H144000   1.064   4.627  12.916  0.3791  1.3168  0.7371
 7503TIP3    H244001   0.925   4.682  12.940 -0.5147 -0.8402  0.6743
 7504TIP3   OH244002   1.629   5.539   4.402  0.1933 -0.1070  0.0178
 7504TIP3    H144003   1.591   5.487   4.473  2.6211 -1.3186  0.5283
 7504TIP3    H244004   1.710   5.494   4.380  0.4677  1.3314 -2.2451
 7505TIP3   OH244005   1.738   3.373   3.133 -0.1267 -0.0532  0.6819
 7505TIP3    H144006   1.790   3.302   3.171 -1.0476 -1.2118 -0.1617
 7505TIP3    H244007   1.803   3.431   3.092  0.7767  0.5148  2.7598
 7506TIP3   OH244008   2.280   5.170  10.349  0.4586 -0.2905 -0.2483
 7506TIP3    H144009   2.266   5.218  10.267  0.2459  1.0563  0.5344
 7506TIP3    H244010   2.307   5.083  10.322 -0.0208 -0.0037 -1.7520
 7507TIP3   OH244011   5.769   1.165   5.310 -0.4020 -0.5644 -0.8622
 7507TIP3    H144012   5.821   1.107   5.366 -1.1768 -0.8477 -0.4164
 7507TIP3    H244013   5.734   1.108   5.242 -1.2592 -0.6597 -0.3575
 7508TIP3   OH244014   5.341   0.310   5.477  0.1987 -0.7050  0.6162
 7508TIP3    H144015   5.358   0.288   5.568  1.0947 -1.0689  0.3694
 7508TIP3    H244016   5.397   0.385   5.459  0.7325 -1.2122  0.1104
 7509TIP3   OH244017   6.094   6.255  15.889  0.0005 -0.2875  0.1016
 7509TIP3    H144018   6.110   6.170  15.848 -0.3945  0.2214 -1.1835
 7509TIP3    H244019   6.179   6.298  15.889  0.6982 -1.4744  2.8037
 7510TIP3   OH244020   6.292   4.252   2.382  0.0360 -0.4248 -0.1434
 7510TIP3    H144021   6.377   4.270   2.342  0.5295 -1.2011  0.5308
 7510TIP3    H244022   6.279   4.158   2.371 -0.5100 -0.3960  0.1934
 7511TIP3   OH244023   5.585   6.562   2.720  0.3809  0.2953 -0.0503
 7511TIP3    H144024   5.594   6.505   2.796  0.8855  0.9265  0.3802
 7511TIP3    H244025   5.668   6.552   2.673 -0.1451 -0.5216 -0.8392
 7512TIP3   OH244026   1.194   1.103   3.509  0.2354  0.0768  0.1173
 7512TIP3    H144027   1.155   1.189   3.495 -0.5203 -0.2807 -0.0430
 7512TIP3    H244028   1.119   1.045   3.523  0.7704 -0.3119  1.6255
 7513TIP3   OH244029   3.084   1.422   4.995  0.2303  0.4512  0.6482
 7513TIP3    H144030   3.037   1.505   4.994  0.2733  0.4749  0.5938
 7513TIP3    H244031   3.175   1.447   5.014  0.5804  0.5858 -1.0195
 7514TIP3   OH244032   3.190   4.247   3.027 -0.5491 -0.1480  0.1009
 7514TIP3    H144033   3.225   4.162   3.002 -0.3932  0.1459 -0.7251
 7514TIP3    H244034   3.167   4.238   3.119  0.5855 -0.7219  0.3452
 7515TIP3   OH244035   0.695   0.175   0.382 -0.0972  0.6002  0.3843
 7515TIP3    H144036   0.642   0.164   0.461  0.4482  3.0630  1.1580
 7515TIP3    H244037   0.732   0.263   0.390  0.8912  0.4675 -2.0815
 7516TIP3   OH244038   0.931   1.304   0.808 -0.6772  0.0660 -0.4174
 7516TIP3    H144039   0.883   1.246   0.749 -1.4289  1.7819 -1.5653
 7516TIP3    H244040   0.865   1.332   0.873 -0.4185 -0.0682 -0.0961
 7517TIP3   OH244041   1.411   1.371   3.353  0.6300  0.5347  0.0835
 7517TIP3    H144042   1.475   1.307   3.384  1.4724  0.8422 -0.9724
 7517TIP3    H244043   1.406   1.436   3.424 -0.8122 -1.0284  1.5115
 7518TIP3   OH244044   6.532   0.570   4.888  0.2922 -0.1218  0.1153
 7518TIP3    H144045   6.460   0.551   4.827  0.1142 -2.6104  0.9999
 7518TIP3    H244046   6.488   0.591   4.970  0.5276 -2.2650  0.8267
 7519TIP3   OH244047   1.497   6.063  14.244  0.3188  0.5705  0.4482
 7519TIP3    H144048   1.478   5.980  14.198  0.4224  0.6270  0.3030
 7519TIP3    H244049   1.574   6.044  14.297  0.7001  0.7395 -0.0358
 7520TIP3   OH244050   5.147   3.951  13.144  0.4925 -0.1194  0.1592
 7520TIP3    H144051   5.118   3.861  13.161  0.1895 -0.2145 -0.7847
 7520TIP3    H244052   5.236   3.955  13.177  0.8217 -1.0325 -0.5722
 7521TIP3   OH244053   2.068   2.416   5.675 -0.0375 -0.3309 -0.1986
 7521TIP3    H144054   2.070   2.324   5.652  1.7105 -0.1803 -0.7369
 7521TIP3    H244055   2.101   2.420   5.765  1.9056 -0.0714 -0.8816
 7522TIP3   OH244056   6.602   0.286  14.047  0.3932  0.1064  0.2595
 7522TIP3    H144057   6.552   0.208  14.071  0.2815  0.2978  0.6487
 7522TIP3    H244058   6.623   0.328  14.130  4.3267 -1.8236  0.4869
 7523TIP3   OH244059   3.430   4.379   3.823 -0.3228  0.0594 -0.0508
 7523TIP3    H144060   3.521   4.352   3.826 -0.7891 -1.7164 -0.6185
 7523TIP3    H244061   3.403   4.386   3.915  0.2028 -0.0357  0.1104
 7524TIP3   OH244062   4.069   0.693  15.823 -0.0903 -0.3099  0.5720
 7524TIP3    H144063   4.080   0.638  15.745  0.1202  0.5378 -0.0110
 7524TIP3    H244064   4.086   0.782  15.792  2.3851 -0.1641  2.0464
 7525TIP3   OH244065   0.935   0.997  14.246  0.5728 -0.4928 -0.4684
 7525TIP3    H144066   0.985   1.041  14.178  1.0066 -0.4999 -0.1638
 7525TIP3    H244067   1.001   0.945  14.293  0.7946  1.4658  1.5679
 7526TIP3   OH244068   4.088   0.423   3.428 -0.2703 -0.4174  0.1496
 7526TIP3    H144069   4.008   0.475   3.434 -0.5654 -0.9789  1.3277
 7526TIP3    H244070   4.129   0.452   3.347 -0.9548  0.8837  0.2450
 7527TIP3   OH244071   4.111   5.775   1.806 -0.6354  0.1179  0.0921
 7527TIP3    H144072   4.141   5.817   1.887  0.3523  2.0033 -1.1778
 7527TIP3    H244073   4.155   5.690   1.805 -0.3985  0.2088  1.3472
 7528TIP3   OH244074   5.127   4.388  10.842 -0.7309 -0.9629  0.6963
 7528TIP3    H144075   5.175   4.391  10.760 -0.7906 -1.3111  0.6460
 7528TIP3    H244076   5.113   4.480  10.866 -0.9615 -0.8599  0.1774
 7529TIP3   OH244077   4.133   1.994   4.259 -0.6569  0.3650 -0.6886
 7529TIP3    H144078   4.066   2.030   4.200  0.3369  0.7605 -1.6133
 7529TIP3    H244079   4.168   2.070   4.305  0.9857  0.5590 -2.1590
 7530TIP3   OH244080   3.788   3.710   0.729  0.0716 -0.2583 -0.1718
 7530TIP3    H144081   3.760   3.699   0.820  0.4319 -1.8713 -0.2214
 7530TIP3    H244082   3.869   3.760   0.734  0.1701 -0.4738  0.4069
 7531TIP3   OH244083   3.894   6.575   2.713  0.1160 -0.0151  0.4631
 7531TIP3    H144084   3.830   6.630   2.669  1.6120 -0.1963 -2.1323
 7531TIP3    H244085   3.972   6.631   2.721  1.7697 -1.6360 -2.4846
 7532TIP3   OH244086   3.824   6.794  11.595 -0.1021  0.5626 -0.1428
 7532TIP3    H144087   3.894   6.741  11.633 -1.1610 -0.6103  0.2335
 7532TIP3    H244088   3.869   6.855  11.537  1.3548  0.8773  1.2633
 7533TIP3   OH244089   3.996   5.771   4.922 -0.1305  1.1647  0.1519
 7533TIP3    H144090   3.948   5.691   4.945  2.6405  0.1581  3.0867
 7533TIP3    H244091   3.996   5.771   4.826 -2.1761 -1.0627  0.0378
 7534TIP3   OH244092   5.931   5.127   2.485  0.3683 -0.2469  0.1141
 7534TIP3    H144093   5.854   5.179   2.461  0.4069  0.6126  1.7010
 7534TIP3    H244094   6.005   5.185   2.466  0.4541  0.0019  1.1499
 7535TIP3   OH244095   4.491   3.279   3.681  0.4026 -0.1267 -0.1286
 7535TIP3    H144096   4.460   3.324   3.759  1.8265 -0.5518  0.7241
 7535TIP3    H244097   4.514   3.350   3.621  1.2453  0.2896  0.6488
 7536TIP3   OH244098   0.456   2.883   4.939  0.1318 -0.1197  0.0185
 7536TIP3    H144099   0.536   2.872   4.991 -0.2044 -0.5163  0.4667
 7536TIP3    H244100   0.440   2.796   4.902  0.5704  0.2471 -1.0592
 7537TIP3   OH244101   3.518   0.230  11.601  0.5699  0.4498  0.1967
 7537TIP3    H144102   3.571   0.277  11.665 -0.4345  0.8191  0.7936
 7537TIP3    H244103   3.580   0.196  11.537  1.6573 -0.5120  1.7284
 7538TIP3   OH244104   4.702   1.266  14.140  0.0158  0.0508 -0.5519
 7538TIP3    H144105   4.742   1.183  14.111  0.3154 -0.2384  0.6342
 7538TIP3    H244106   4.711   1.324  14.064  2.2935 -0.1379 -0.5106
 7539TIP3   OH244107   3.460   4.122  12.413  0.3413  0.0316 -0.1308
 7539TIP3    H144108   3.443   4.099  12.504  2.2876  2.3616  0.9553
 7539TIP3    H244109   3.475   4.038  12.369 -0.9712 -1.1674  1.5671
 7540TIP3   OH244110   1.504   5.389   4.028 -0.6824  0.2256 -0.1404
 7540TIP3    H144111   1.552   5.316   3.990 -0.0041  0.4173  0.3219
 7540TIP3    H244112   1.454   5.426   3.955 -0.7573 -0.4798 -0.4514
 7541TIP3   OH244113   1.745   1.537  15.000 -0.1026 -0.5847 -0.1713
 7541TIP3    H144114   1.706   1.595  14.934  1.6725  0.5196 -0.3379
 7541TIP3    H244115   1.832   1.516  14.965  1.1039  0.4174  1.9624
 7542TIP3   OH244116   2.556   4.000   4.604  0.5118 -0.2770  0.3511
 7542TIP3    H144117   2.486   3.935   4.594  1.2098 -0.7150 -2.5386
 7542TIP3    H244118   2.520   4.065   4.664 -2.3253 -0.6157 -0.8248
 7543TIP3   OH244119   4.680   6.411   1.923  0.5810  0.0696 -0.5803
 7543TIP3    H144120   4.734   6.339   1.955 -1.2117 -0.2912  1.9893
 7543TIP3    H244121   4.730   6.490   1.944  1.5583 -0.3426 -1.3291
 7544TIP3   OH244122   3.008   2.817   0.146 -0.4381  0.3949 -0.0562
 7544TIP3    H144123   3.021   2.757   0.072  2.7748  0.9641 -0.1064
 7544TIP3    H244124   3.072   2.886   0.133 -2.1240  2.3933  1.5034
 7545TIP3   OH244125   5.336   3.346  13.779  0.3144  0.7590  0.5079
 7545TIP3    H144126   5.304   3.297  13.703 -0.7146 -2.1595  2.6575
 7545TIP3    H244127   5.282   3.425  13.781  0.0972  0.7279 -1.4963
 7546TIP3   OH244128   3.425   1.185   2.176 -0.0467 -0.0837  0.2140
 7546TIP3    H144129   3.382   1.255   2.126  0.1100 -1.2361 -1.6375
 7546TIP3    H244130   3.513   1.178   2.138  0.2519 -0.6804  0.9824
 7547TIP3   OH244131   1.317   4.547   5.341  0.1563 -0.3564  0.2626
 7547TIP3    H144132   1.367   4.582   5.267  0.8717 -1.6136  0.1144
 7547TIP3    H244133   1.229   4.533   5.305  0.8762 -2.4160 -0.8693
 7548TIP3   OH244134   0.709   0.088  13.993 -0.0772 -0.4908  0.2749
 7548TIP3    H144135   0.681   0.086  14.084 -1.1428  0.4936 -0.0242
 7548TIP3    H244136   0.722  -0.005  13.971  0.7354 -0.7134  1.5673
 7549TIP3   OH244137   3.339   2.627   6.327  0.0518 -0.0967  0.1331
 7549TIP3    H144138   3.420   2.575   6.323  0.2066 -0.2306  2.9212
 7549TIP3    H244139   3.316   2.627   6.420 -1.1996  2.9544 -0.0877
 7550TIP3   OH244140   4.546   1.357  11.613 -0.0985  0.6791 -0.3270
 7550TIP3    H144141   4.555   1.440  11.566  1.1130  0.1339 -1.1008
 7550TIP3    H244142   4.577   1.291  11.552 -1.5984 -0.4458  0.0585
 7551TIP3   OH244143   6.166   4.304   1.185  0.2302 -0.0545 -0.1938
 7551TIP3    H144144   6.114   4.227   1.206 -1.0200  0.6272 -0.6825
 7551TIP3    H244145   6.252   4.287   1.224 -0.1937 -1.4353  0.1783
 7552TIP3   OH244146   2.017   3.970  12.762  0.7574 -0.4778  0.2532
 7552TIP3    H144147   2.094   3.977  12.818  1.0568 -0.6416 -0.1326
 7552TIP3    H244148   2.051   3.935  12.679 -0.0492 -2.7254  0.7957
 7553TIP3   OH244149   4.826   4.979   1.810  0.6139  0.0996 -0.3407
 7553TIP3    H144150   4.830   5.060   1.861 -1.6144 -0.9563  1.7178
 7553TIP3    H244151   4.894   4.923   1.848 -1.5519 -0.9856  2.3003
 7554TIP3   OH244152   6.298   2.971   4.895 -0.0251 -0.1955 -0.2835
 7554TIP3    H144153   6.348   2.925   4.828 -1.2715 -0.5360 -1.0056
 7554TIP3    H244154   6.208   2.940   4.885 -0.3480  0.1489  1.1974
 7555TIP3   OH244155   1.384   6.664  14.769 -0.2465  0.1371  0.6570
 7555TIP3    H144156   1.308   6.610  14.746 -0.2243  0.4999 -0.3392
 7555TIP3    H244157   1.350   6.726  14.834 -1.6036  2.0817 -1.6765
 7556TIP3   OH244158   5.165   2.289  11.935 -0.5625 -0.5248  0.3430
 7556TIP3    H144159   5.082   2.240  11.938 -0.6547 -0.3537  0.5804
 7556TIP3    H244160   5.232   2.223  11.950 -0.6714 -0.6180  0.4187
 7557TIP3   OH244161   4.640   1.217   3.856  0.4152  0.1557 -0.1852
 7557TIP3    H144162   4.642   1.254   3.768 -1.4741  2.0192  0.4721
 7557TIP3    H244163   4.673   1.128   3.845 -1.8432 -0.4710 -3.2320
 7558TIP3   OH244164   2.562   3.568  13.315 -0.5657 -0.1613 -0.7062
 7558TIP3    H144165   2.469   3.574  13.335 -0.7252  1.0268 -1.6511
 7558TIP3    H244166   2.566   3.523  13.230 -0.0289 -3.3082  0.8436
 7559TIP3   OH244167   5.754   0.174  12.095 -0.8314  0.1906  0.6475
 7559TIP3    H144168   5.730   0.088  12.131 -0.5466 -0.3526 -0.3986
 7559TIP3    H244169   5.809   0.214  12.162  2.5713 -2.2114 -0.4036
 7560TIP3   OH244170   4.514   5.148   1.001 -0.4343 -0.3334 -0.1218
 7560TIP3    H144171   4.526   5.242   0.989  2.2647 -0.3011  1.9666
 7560TIP3    H244172   4.568   5.108   0.933  1.0745 -0.2870  1.0025
 7561TIP3   OH244173   0.684   6.274  13.063  0.1279  0.1280 -0.2031
 7561TIP3    H144174   0.598   6.314  13.053  0.0806 -0.0270 -0.4146
 7561TIP3    H244175   0.689   6.209  12.993  0.7644  0.7630 -0.7605
 7562TIP3   OH244176   1.588   3.763  15.495  0.1862 -0.2044  0.3214
 7562TIP3    H144177   1.654   3.775  15.427  0.6807 -1.2096  0.6101
 7562TIP3    H244178   1.612   3.826  15.563  0.0624  0.3569 -0.1456
 7563TIP3   OH244179   2.406   3.769  12.596 -0.2719  0.7368 -0.3330
 7563TIP3    H144180   2.490   3.753  12.554  1.0911  1.9597  1.7682
 7563TIP3    H244181   2.344   3.717  12.545  2.3848 -4.3138  0.8393
 7564TIP3   OH244182   2.084   1.858   4.138 -0.4094  0.5615  0.5421
 7564TIP3    H144183   2.067   1.771   4.101  0.8401 -0.6218  2.5449
 7564TIP3    H244184   2.038   1.857   4.222  0.9460  1.1894  1.3207
 7565TIP3   OH244185   2.547   0.454   4.156 -0.7259  0.1560 -0.4735
 7565TIP3    H144186   2.619   0.405   4.117 -0.3929  0.8065 -0.6719
 7565TIP3    H244187   2.588   0.529   4.198 -1.2912  0.5515 -0.6174
 7566TIP3   OH244188   5.148   6.673   3.959  0.0980  0.2475  0.0483
 7566TIP3    H144189   5.230   6.664   3.910  0.3707 -1.8439  0.7640
 7566TIP3    H244190   5.175   6.708   4.044  0.0070  1.1094 -0.2665
 7567TIP3   OH244191   3.717   1.038   5.179 -0.4735  0.3277  0.3906
 7567TIP3    H144192   3.631   0.997   5.182 -0.8999  1.1308 -0.3570
 7567TIP3    H244193   3.725   1.084   5.262 -1.1362  0.9605  0.1135
 7568TIP3   OH244194   5.129   4.626   5.502 -0.1745 -0.4950  0.6396
 7568TIP3    H144195   5.069   4.601   5.572 -1.0364  0.2873  0.2001
 7568TIP3    H244196   5.204   4.568   5.513 -1.7637 -2.7788  0.0926
 7569TIP3   OH244197   4.343   6.094  14.103  0.0411 -0.6483  0.1332
 7569TIP3    H144198   4.336   6.176  14.053  0.7987 -0.6477  0.0139
 7569TIP3    H244199   4.418   6.049  14.064  0.3809 -0.8463  0.9879
 7570TIP3   OH244200   2.642   6.368  12.365  0.5139  0.5495  0.4493
 7570TIP3    H144201   2.667   6.304  12.298 -1.5199  1.6165 -1.4745
 7570TIP3    H244202   2.693   6.446  12.345  0.5203  0.6080  0.6832
 7571TIP3   OH244203   1.311   1.525  10.947 -0.6226  0.3497  0.0022
 7571TIP3    H144204   1.307   1.527  10.852 -1.2730 -2.0649 -0.0741
 7571TIP3    H244205   1.399   1.492  10.967 -1.1057 -0.9060  0.1515
 7572TIP3   OH244206   1.694   5.348   3.534  0.1473  0.8688 -0.0813
 7572TIP3    H144207   1.723   5.404   3.607  0.5186  1.3278 -0.5749
 7572TIP3    H244208   1.695   5.259   3.571  1.4174  0.9660  0.1682
 7573TIP3   OH244209   0.160   3.125   4.385  0.4687  0.1236  0.0003
 7573TIP3    H144210   0.160   3.031   4.369  0.5474 -0.1504  1.5069
 7573TIP3    H244211   0.251   3.152   4.371  0.9076 -0.4235  1.6115
 7574TIP3   OH244212   5.069   0.401  11.852 -0.0395 -0.8202 -0.2440
 7574TIP3    H144213   5.160   0.410  11.879 -0.0329  0.4659 -0.6404
 7574TIP3    H244214   5.072   0.352  11.770  0.1835 -1.8215  0.3388
 7575TIP3   OH244215   0.506   0.084   3.748  0.1762 -0.4897 -0.2225
 7575TIP3    H144216   0.523   0.174   3.722 -0.3047 -0.3716 -0.1201
 7575TIP3    H244217   0.519   0.033   3.667 -0.6293 -0.2024 -0.5360
 7576TIP3   OH244218   3.461   0.906  14.580 -0.3180  0.8400 -0.0123
 7576TIP3    H144219   3.520   0.974  14.610 -0.1389  0.6056  0.1754
 7576TIP3    H244220   3.382   0.917  14.632  0.0958  0.2594  0.7521
 7577TIP3   OH244221   0.513   4.468  12.794 -0.1822 -0.1116  0.1482
 7577TIP3    H144222   0.461   4.527  12.849 -0.2883  0.9666 -1.0548
 7577TIP3    H244223   0.597   4.461  12.839  0.2262  1.8905 -0.2253
 7578TIP3   OH244224   0.509   0.826  15.407 -0.7840  0.2637  0.7382
 7578TIP3    H144225   0.428   0.809  15.455 -1.2578 -0.0469 -0.1366
 7578TIP3    H244226   0.481   0.836  15.316  0.2200 -0.3256  0.3441
 7579TIP3   OH244227   4.118   3.769   3.432  0.9179  0.5390 -0.3194
 7579TIP3    H144228   4.055   3.707   3.468  1.1304 -0.5761 -1.7563
 7579TIP3    H244229   4.164   3.804   3.508 -0.1362 -0.0425  0.6164
 7580TIP3   OH244230   0.294   5.615   4.592 -0.1968  0.6468  0.1019
 7580TIP3    H144231   0.219   5.644   4.540  0.0602 -0.3676 -0.8785
 7580TIP3    H244232   0.262   5.617   4.683 -1.4771  0.0816 -0.3051
 7581TIP3   OH244233   1.610   0.822   4.224 -0.0374 -0.1061 -0.2914
 7581TIP3    H144234   1.675   0.868   4.277  0.4291 -1.7226  0.5961
 7581TIP3    H244235   1.544   0.793   4.287  0.1834 -1.4826 -0.6607
 7582TIP3   OH244236   1.060   0.336  14.269  0.7453 -0.0092 -0.4389
 7582TIP3    H144237   0.969   0.367  14.266  0.5063 -0.4752  1.0453
 7582TIP3    H244238   1.073   0.292  14.185 -0.0556  0.9455 -1.0912
 7583TIP3   OH244239   5.821   3.297  15.440 -0.2613 -0.6851 -0.7891
 7583TIP3    H144240   5.853   3.246  15.515 -0.3642 -0.0461 -0.2988
 7583TIP3    H244241   5.806   3.232  15.372  0.8079 -1.1641 -0.5960
 7584TIP3   OH244242   0.912   0.331   4.093 -0.0894  0.0462  0.8115
 7584TIP3    H144243   0.837   0.354   4.148 -0.6640 -0.7394  0.3899
 7584TIP3    H244244   0.945   0.414   4.060 -0.6367  0.4194  1.1980
 7585TIP3   OH244245   6.314   1.520   5.032 -0.3878 -0.2684  0.2882
 7585TIP3    H144246   6.274   1.601   5.002 -1.7331  0.0564  2.7630
 7585TIP3    H244247   6.363   1.544   5.110  2.8022 -1.1305 -1.2589
 7586TIP3   OH244248   4.365   3.034   1.521  0.0211 -0.1118  0.6453
 7586TIP3    H144249   4.276   3.055   1.550  0.0276  0.1332  0.4860
 7586TIP3    H244250   4.369   3.064   1.430 -0.1816 -1.3939  0.1909
 7587TIP3   OH244251   1.286   6.378   1.886  0.2844  0.1040 -0.9092
 7587TIP3    H144252   1.205   6.327   1.886  0.8130 -0.7659 -0.1762
 7587TIP3    H244253   1.264   6.458   1.933 -0.6021  0.6772 -2.2207
 7588TIP3   OH244254   6.643   5.231  14.878  0.0060  0.0584  0.2177
 7588TIP3    H144255   6.715   5.179  14.841 -0.3103  0.0468 -0.3990
 7588TIP3    H244256   6.564   5.189  14.845 -0.3174 -0.2946  1.3798
 7589TIP3   OH244257   4.743   6.471  16.889 -0.2033  0.2091 -0.3111
 7589TIP3    H144258   4.748   6.503  16.979 -1.3848  0.2218 -0.2354
 7589TIP3    H244259   4.827   6.494  16.851 -0.1639  1.3596  0.4178
 7590TIP3   OH244260   1.353   6.572  12.519 -0.1627  0.2544 -0.2424
 7590TIP3    H144261   1.307   6.619  12.588  0.9993 -0.9975  1.4525
 7590TIP3    H244262   1.293   6.503  12.493 -0.2558  0.1742  0.1777
 7591TIP3   OH244263   2.537   1.367   4.964 -0.2252  0.4305 -0.1251
 7591TIP3    H144264   2.511   1.275   4.966 -1.4466  0.7087 -1.3961
 7591TIP3    H244265   2.564   1.381   4.873  0.5518  1.1871  0.2108
 7592TIP3   OH244266   3.883   5.402  15.539  0.5283  0.0196  0.5762
 7592TIP3    H144267   3.833   5.330  15.501  0.6683 -0.2583  0.9150
 7592TIP3    H244268   3.962   5.408  15.486  0.1018  0.5242 -0.0239
 7593TIP3   OH244269   3.680   3.828   2.521 -0.7348 -0.2922 -0.2640
 7593TIP3    H144270   3.676   3.907   2.576 -1.4566 -0.4362 -0.0894
 7593TIP3    H244271   3.763   3.787   2.543 -0.9442 -0.2604  0.6174
 7594TIP3   OH244272   6.426   3.666  16.410 -0.5177 -0.1998  0.4028
 7594TIP3    H144273   6.428   3.580  16.452 -1.4154 -0.2456  0.3615
 7594TIP3    H244274   6.333   3.689  16.406 -0.3298  0.5034 -0.1373
 7595TIP3   OH244275   6.629   6.628   4.027 -0.5906 -0.3220  0.0860
 7595TIP3    H144276   6.595   6.654   3.941 -0.2771  0.5644  0.2156
 7595TIP3    H244277   6.681   6.704   4.055 -0.1554 -0.8685  0.7675
 7596TIP3   OH244278   4.143   6.808   0.026  0.1899  0.0134 -0.1672
 7596TIP3    H144279   4.081   6.754  -0.024  0.1012 -0.6484  0.6299
 7596TIP3    H244280   4.151   6.889  -0.025  0.9847 -1.0684 -1.8424
 7597TIP3   OH244281   5.042   0.865  13.942 -0.1614 -0.8215  0.1658
 7597TIP3    H144282   5.093   0.902  13.870 -0.5691 -1.9407 -0.7264
 7597TIP3    H244283   4.985   0.801  13.901 -2.7193  0.7428  1.0504
 7598TIP3   OH244284   2.802   5.986   0.765  0.7839 -0.1952 -0.1805
 7598TIP3    H144285   2.894   6.006   0.750  0.7674  1.1521  1.2636
 7598TIP3    H244286   2.754   6.048   0.709  0.7575  0.0996  0.1652
 7599TIP3   OH244287   2.195   5.744  16.062  0.1526 -0.0476  0.0641
 7599TIP3    H144288   2.113   5.735  16.013  2.3015 -2.7421 -3.5913
 7599TIP3    H244289   2.202   5.662  16.111  0.1966  0.6572  1.2659
 7600TIP3   OH244290   2.438   2.843  13.636 -0.0611 -0.2062  0.2251
 7600TIP3    H144291   2.404   2.792  13.563  2.4714 -0.9642 -0.5145
 7600TIP3    H244292   2.526   2.869  13.608  0.1373  1.3604  2.1290
 7601TIP3   OH244293   5.300   4.194   1.395  0.1132  0.0403 -0.2238
 7601TIP3    H144294   5.236   4.123   1.397 -0.4001  0.4851 -0.4695
 7601TIP3    H244295   5.357   4.178   1.470 -0.1737 -0.4664 -0.1115
 7602TIP3   OH244296   3.953   0.587  10.754  0.1340 -0.3933 -0.5548
 7602TIP3    H144297   3.951   0.609  10.848  0.8868 -0.8469 -0.4264
 7602TIP3    H244298   4.036   0.624  10.723  0.8209 -1.9230 -0.6130
 7603TIP3   OH244299   1.208   1.012   5.680 -0.0892  0.0630 -0.0353
 7603TIP3    H144300   1.295   1.024   5.718 -0.6542 -0.8197  1.6686
 7603TIP3    H244301   1.225   0.995   5.587  1.5128  0.3600  0.1654
 7604TIP3   OH244302   4.573   0.504   4.308  0.8491 -0.0365  0.1997
 7604TIP3    H144303   4.609   0.416   4.300 -0.2217 -0.4832  0.1890
 7604TIP3    H244304   4.487   0.499   4.266  0.3083  0.7184  1.1743
 7605TIP3   OH244305   4.557   0.548   4.572  0.2436 -0.5114 -0.4017
 7605TIP3    H144306   4.494   0.477   4.562 -1.4567  0.7541  0.7080
 7605TIP3    H244307   4.593   0.560   4.484 -2.9966  0.3832 -1.7805
 7606TIP3   OH244308   3.782   2.506   6.096  0.1727 -0.0184 -0.3760
 7606TIP3    H144309   3.745   2.449   6.164 -0.9911  0.5441 -0.5210
 7606TIP3    H244310   3.727   2.583   6.097  1.5767  1.0286 -0.3617
 7607TIP3   OH244311   4.000   6.669   5.400  0.0710 -0.0555 -0.2171
 7607TIP3    H144312   3.993   6.611   5.476  1.4383 -0.4992 -0.3973
 7607TIP3    H244313   3.970   6.754   5.431 -1.4296 -0.7132  0.2121
 7608TIP3   OH244314   4.083   4.730  15.014  0.0995 -0.4261  0.3140
 7608TIP3    H144315   4.077   4.824  15.030  1.1647 -0.4731  1.1065
 7608TIP3    H244316   4.172   4.717  14.982  0.3922 -1.3210  1.4321
 7609TIP3   OH244317   0.779   0.204   2.421 -0.1223  0.1882 -0.3846
 7609TIP3    H144318   0.762   0.298   2.417  2.3843  0.6910 -0.7399
 7609TIP3    H244319   0.708   0.169   2.475 -1.7627  2.0791 -1.1857
 7610TIP3   OH244320   2.822   5.617   1.941 -0.1493 -0.1035 -0.5272
 7610TIP3    H144321   2.827   5.679   1.868  1.6780  1.9757  1.1913
 7610TIP3    H244322   2.877   5.544   1.914  1.5793  1.2203 -0.7972
 7611TIP3   OH244323   4.455   2.071   5.048  0.5371 -0.2389  0.1655
 7611TIP3    H144324   4.494   2.140   5.100 -0.4185 -0.2897  0.9949
 7611TIP3    H244325   4.490   1.990   5.086  1.0783 -0.2285 -0.3150
 7612TIP3   OH244326   1.520   3.746  14.216  0.0045 -0.0280  0.3455
 7612TIP3    H144327   1.610   3.715  14.224 -0.2193 -0.1637  4.0132
 7612TIP3    H244328   1.468   3.684  14.267 -2.1136  0.4642 -1.0633
 7613TIP3   OH244329   1.864   5.406  10.436 -0.3450 -0.5759 -0.6573
 7613TIP3    H144330   1.794   5.354  10.473 -0.0013 -1.1856 -0.8571
 7613TIP3    H244331   1.933   5.343  10.415 -0.1557 -0.1239 -1.4320
 7614TIP3   OH244332   4.089   6.754   2.720 -0.5706  0.3786  0.4570
 7614TIP3    H144333   4.181   6.728   2.710 -0.3109  0.8991  1.3394
 7614TIP3    H244334   4.090   6.815   2.794 -1.7804 -0.4080  1.1403
 7615TIP3   OH244335   1.260   4.484   2.023 -0.9160 -0.2668 -0.0370
 7615TIP3    H144336   1.246   4.517   2.112 -2.1467 -0.2489 -0.2189
 7615TIP3    H244337   1.181   4.511   1.975 -0.9228 -1.5208 -0.7572
 7616TIP3   OH244338   1.821   4.063  13.770 -0.2017  0.2078  0.2445
 7616TIP3    H144339   1.748   4.118  13.799 -0.4250  0.5781 -0.9760
 7616TIP3    H244340   1.803   4.046  13.678  0.2980 -1.2400  0.3889
 7617TIP3   OH244341   0.955   4.857   4.294  0.7079  0.3171 -0.0410
 7617TIP3    H144342   1.031   4.894   4.248  1.2283  0.5459  0.9664
 7617TIP3    H244343   0.970   4.880   4.386 -0.1318 -0.4238  0.2895
 7618TIP3   OH244344   2.626   2.000   0.142  0.4066 -0.1140 -0.2449
 7618TIP3    H144345   2.703   1.943   0.146  0.4528  0.0180  1.7885
 7618TIP3    H244346   2.641   2.055   0.064  1.4973 -1.2541 -0.8814
 7619TIP3   OH244347   2.857   5.242  13.325  0.0884  0.2376 -0.2400
 7619TIP3    H144348   2.898   5.219  13.241  1.5345  0.3826  0.4073
 7619TIP3    H244349   2.830   5.333  13.313  0.8626  0.4639 -0.3549
 7620TIP3   OH244350   6.576   4.345  15.398 -0.2769  0.0981  0.2860
 7620TIP3    H144351   6.539   4.432  15.412 -1.2879  0.1585 -2.2307
 7620TIP3    H244352   6.550   4.296  15.476 -2.4557  1.2153  0.3624
 7621TIP3   OH244353   2.275   3.512   4.126 -0.0354  0.0511  0.3421
 7621TIP3    H144354   2.302   3.575   4.193  1.5489 -1.7504  1.5320
 7621TIP3    H244355   2.329   3.533   4.050  0.4181  0.1877  0.6962
 7622TIP3   OH244356   5.437   3.857   4.982 -0.0487  0.2077 -0.5833
 7622TIP3    H144357   5.443   3.919   5.054 -2.3892  0.9269 -0.9403
 7622TIP3    H244358   5.414   3.911   4.906  1.7563 -0.6128 -1.7793
 7623TIP3   OH244359   5.121   1.977   3.318 -0.4293 -0.5247 -0.3007
 7623TIP3    H144360   5.111   1.894   3.365 -0.4727 -1.0525 -1.2199
 7623TIP3    H244361   5.032   1.997   3.287 -0.4470 -0.0550  0.0509
 7624TIP3   OH244362   6.471   4.902  11.244  0.1492 -0.2337 -0.1711
 7624TIP3    H144363   6.556   4.943  11.256  1.9521 -3.5025 -0.4987
 7624TIP3    H244364   6.411   4.955  11.296  1.7750  3.6975 -1.9504
 7625TIP3   OH244365   2.827   5.329  10.786 -0.2391  0.1264 -0.3740
 7625TIP3    H144366   2.870   5.244  10.776  0.5529  0.6550 -1.9007
 7625TIP3    H244367   2.734   5.309  10.787 -0.0716 -0.7574 -1.0063
 7626TIP3   OH244368   2.704   0.676   5.106  0.3109  0.4314  0.3373
 7626TIP3    H144369   2.630   0.657   5.164  0.1653  1.3697  0.4763
 7626TIP3    H244370   2.702   0.771   5.095  0.5263  0.3054 -0.9535
 7627TIP3   OH244371   3.715   1.286  13.858  0.6495  0.5066  0.2815
 7627TIP3    H144372   3.626   1.283  13.825 -0.0579 -0.7531  2.1346
 7627TIP3    H244373   3.744   1.375  13.841 -0.8098  0.8235 -0.6987
 7628TIP3   OH244374   5.298   3.428   5.707 -0.1785  0.6083 -0.8747
 7628TIP3    H144375   5.204   3.411   5.706  0.1564 -1.4242 -1.2061
 7628TIP3    H244376   5.331   3.375   5.779  0.7670  1.0421 -0.9762
 7629TIP3   OH244377   3.325   6.417   1.324  0.3386 -0.0302 -0.4054
 7629TIP3    H144378   3.328   6.324   1.303  1.2318 -0.0919 -0.0614
 7629TIP3    H244379   3.304   6.420   1.417 -0.7610  0.1559 -0.6453
 7630TIP3   OH244380   5.057   3.471   0.469  0.4242 -0.5503  0.2610
 7630TIP3    H144381   5.086   3.553   0.509  1.5908 -1.5340  1.4924
 7630TIP3    H244382   4.963   3.467   0.488 -0.2418  1.6876 -2.0243
 7631TIP3   OH244383   1.708   0.918   5.256  0.4494  0.4253 -0.0787
 7631TIP3    H144384   1.803   0.919   5.239  0.2352  2.0926 -1.4309
 7631TIP3    H244385   1.680   0.831   5.227  1.5229  0.0005  0.0896
 7632TIP3   OH244386   6.428   4.267   1.282  0.4610 -0.3594 -0.0118
 7632TIP3    H144387   6.513   4.302   1.255  0.7442  0.0117  1.2911
 7632TIP3    H244388   6.447   4.179   1.314 -0.2801 -2.0103 -3.5001
 7633TIP3   OH244389   5.569   3.796   1.684 -0.7648 -0.1546  0.9891
 7633TIP3    H144390   5.628   3.865   1.716 -1.3015  0.1650  1.2923
 7633TIP3    H244391   5.605   3.715   1.721 -0.7283  0.0806  1.4780
 7634TIP3   OH244392   6.485   4.672  10.880 -0.4759  0.1866  0.5808
 7634TIP3    H144393   6.578   4.648  10.877 -0.4867  0.2332 -1.2360
 7634TIP3    H244394   6.449   4.636  10.799 -1.7802  1.2519  0.6680
 7635TIP3   OH244395   0.347   3.543  14.822  0.1369 -0.5063  0.2245
 7635TIP3    H144396   0.289   3.606  14.864  0.8728  0.8391 -0.6886
 7635TIP3    H244397   0.429   3.590  14.811  0.8779 -1.8151 -0.0191
 7636TIP3   OH244398   5.779   6.603   5.370 -0.6131  0.2643 -0.1130
 7636TIP3    H144399   5.855   6.575   5.421  0.2123  1.9061 -0.3642
 7636TIP3    H244400   5.704   6.586   5.427 -0.0458 -1.1310  0.2501
 7637TIP3   OH244401   6.772   1.505   4.228  0.4672 -0.3357  0.1248
 7637TIP3    H144402   6.703   1.502   4.294 -1.2722 -1.7820 -1.6353
 7637TIP3    H244403   6.817   1.588   4.243 -1.7594  0.7369  1.2291
 7638TIP3   OH244404   1.074   0.720  12.765 -0.3158 -0.0164 -0.3948
 7638TIP3    H144405   1.048   0.649  12.822  0.3150  0.2521  0.2365
 7638TIP3    H244406   1.163   0.698  12.738  0.4874  1.2653  1.0397
 7639TIP3   OH244407   0.836   3.134   5.262 -0.6679  0.1490 -0.7587
 7639TIP3    H144408   0.837   3.132   5.358 -0.4958  1.3545 -0.7233
 7639TIP3    H244409   0.746   3.112   5.238 -0.5938 -0.6525 -0.3471
 7640TIP3   OH244410   5.723   1.795   2.576  0.1513  0.0783  0.2778
 7640TIP3    H144411   5.643   1.751   2.602  0.6667 -0.1055  1.6591
 7640TIP3    H244412   5.717   1.882   2.616  1.0693 -0.2846  1.2541
 7641TIP3   OH244413   1.498   1.797   4.265  0.1784  0.1705  0.0373
 7641TIP3    H144414   1.540   1.737   4.327  0.0253 -0.0976 -0.1140
 7641TIP3    H244415   1.568   1.855   4.236  0.1176  0.7055  0.9343
 7642TIP3   OH244416   3.890   1.317   4.822 -0.0062 -0.0272  0.1699
 7642TIP3    H144417   3.794   1.317   4.821 -0.0101 -0.3510  0.3902
 7642TIP3    H244418   3.914   1.383   4.887 -0.0946 -0.7761  0.9777
 7643TIP3   OH244419   3.262   2.968  12.445  0.1130 -0.5095 -0.3937
 7643TIP3    H144420   3.299   2.924  12.521 -1.3540 -0.1049  0.6116
 7643TIP3    H244421   3.298   3.057  12.449  1.0740 -0.8666 -0.9487
 7644TIP3   OH244422   3.726   5.629  13.151  0.5216 -0.1479  0.1844
 7644TIP3    H144423   3.808   5.599  13.111  0.4901 -0.0644  0.0578
 7644TIP3    H244424   3.678   5.671  13.080  0.0918 -0.7533  0.1060
 7645TIP3   OH244425   6.109   1.386  13.064 -0.2834 -0.6007  0.4238
 7645TIP3    H144426   6.126   1.321  12.996 -0.8669 -0.6353  0.3013
 7645TIP3    H244427   6.131   1.341  13.146 -1.8477 -1.4012  0.4383
 7646TIP3   OH244428   0.278   0.832   3.795 -0.6496 -0.1483 -0.3692
 7646TIP3    H144429   0.299   0.816   3.887 -0.7383 -2.2699 -0.6763
 7646TIP3    H244430   0.220   0.909   3.797 -0.9565 -0.3800  1.3830
 7647TIP3   OH244431   1.267   4.387  10.570  0.0774 -0.5702 -0.1048
 7647TIP3    H144432   1.287   4.362  10.480  0.5550 -0.3655 -0.0581
 7647TIP3    H244433   1.350   4.375  10.617 -0.0834 -0.3532  0.2351
 7648TIP3   OH244434   1.002   3.466   5.836  0.1231  0.1540  0.1439
 7648TIP3    H144435   1.061   3.459   5.761 -2.0922  1.6884 -1.8773
 7648TIP3    H244436   0.993   3.376   5.868 -0.5554 -0.9849 -2.8952
 7649TIP3   OH244437   4.919   1.301  14.332  0.1635  0.0027  0.4319
 7649TIP3    H144438   4.839   1.282  14.283 -0.4303  0.3730  1.2353
 7649TIP3    H244439   4.919   1.237  14.403  0.6051 -0.0136  0.4211
 7650TIP3   OH244440   3.172   3.712  11.595 -0.0099  0.3216  0.1898
 7650TIP3    H144441   3.131   3.796  11.575 -2.6689 -0.7611  0.6533
 7650TIP3    H244442   3.150   3.697  11.687  3.7660  0.8120  1.3517
 7651TIP3   OH244443   3.461   2.752  16.031 -0.2977  0.3310  0.2343
 7651TIP3    H144444   3.507   2.833  16.009  1.4840 -0.3264  1.3053
 7651TIP3    H244445   3.369   2.776  16.032  0.2055  2.4382  0.8827
 7652TIP3   OH244446   2.017   4.012  12.011  0.3851  0.5577  0.2871
 7652TIP3    H144447   1.936   3.970  12.041  1.7201 -2.2784  0.1592
 7652TIP3    H244448   2.005   4.022  11.916  0.4640 -0.6045  0.1405
 7653TIP3   OH244449   4.355   1.225   3.930  0.2063 -0.0750 -0.2478
 7653TIP3    H144450   4.351   1.157   3.998  1.5386  1.1060  1.0721
 7653TIP3    H244451   4.448   1.237   3.913  0.0226  1.5847 -0.2479
 7654TIP3   OH244452   5.682   5.985   3.436 -0.1950  0.7411  0.1524
 7654TIP3    H144453   5.687   6.021   3.524  0.4393  0.9594  0.0320
 7654TIP3    H244454   5.768   5.944   3.421 -0.2340  0.8520 -0.4217
 7655TIP3   OH244455   0.882   0.051  11.731  0.0858 -0.4016  0.4388
 7655TIP3    H144456   0.955  -0.010  11.738  0.5421  0.0836  0.0254
 7655TIP3    H244457   0.923   0.135  11.709 -0.7102 -0.5449 -1.9065
 7656TIP3   OH244458   1.992   1.609  16.973  0.0011 -0.1907 -0.1741
 7656TIP3    H144459   1.905   1.635  16.942  0.0432 -0.2538 -0.3455
 7656TIP3    H244460   2.018   1.537  16.915  1.0097  1.1103 -1.4059
 7657TIP3   OH244461   2.979   1.890  13.992  0.0122  0.2053  0.4473
 7657TIP3    H144462   2.947   1.820  14.049  0.3442  0.4068  0.8926
 7657TIP3    H244463   3.048   1.849  13.941  0.8917  0.4375  1.4111
 7658TIP3   OH244464   2.391   6.296  16.528 -0.3516  0.8122 -0.4829
 7658TIP3    H144465   2.477   6.285  16.488 -0.9425 -0.9383 -1.4217
 7658TIP3    H244466   2.405   6.277  16.620  0.3973  1.3274 -0.4804
 7659TIP3   OH244467   2.411   6.823  15.078  0.0189  0.4280  0.1531
 7659TIP3    H144468   2.464   6.747  15.102  2.3352  1.8622 -0.1740
 7659TIP3    H244469   2.460   6.867  15.009 -1.9376  1.5152 -0.6406
 7660TIP3   OH244470   4.887   6.778  12.464 -0.2401  0.0340  0.2264
 7660TIP3    H144471   4.830   6.755  12.538 -1.0767  1.2307 -0.0191
 7660TIP3    H244472   4.830   6.825  12.403  0.5994 -0.3322 -0.8799
 7661TIP3   OH244473   1.531   4.118   3.295  0.3210 -0.0423 -0.2805
 7661TIP3    H144474   1.534   4.196   3.241  0.2363  0.8141  0.8999
 7661TIP3    H244475   1.438   4.107   3.316  0.1419 -1.3392 -1.6418
 7662TIP3   OH244476   3.349   0.609  11.507  0.0531  0.0327 -0.1055
 7662TIP3    H144477   3.265   0.595  11.462  0.0279  1.8744 -0.7177
 7662TIP3    H244478   3.326   0.613  11.600 -0.5433  0.4686 -0.2650
 7663TIP3   OH244479   5.829   4.652   0.138 -0.0684  0.4971  0.1092
 7663TIP3    H144480   5.841   4.617   0.227 -0.1732 -0.0181 -0.0735
 7663TIP3    H244481   5.806   4.744   0.152  0.1496  0.4835  0.6069
 7664TIP3   OH244482   1.066   6.704  15.702 -0.1789 -0.3021  0.8255
 7664TIP3    H144483   1.081   6.714  15.796 -0.4261  0.8008  0.7591
 7664TIP3    H244484   1.055   6.793  15.669  1.8142 -0.5214 -0.5852
 7665TIP3   OH244485   3.107   3.873   5.029 -0.0219 -0.6457 -0.0164
 7665TIP3    H144486   3.061   3.789   5.018  0.0592 -0.7346  0.3238
 7665TIP3    H244487   3.142   3.892   4.942  0.3647 -1.2041  0.0104
 7666TIP3   OH244488   2.755   4.768  10.843 -0.1312  0.6808  0.3448
 7666TIP3    H144489   2.813   4.784  10.918 -0.7613  1.5626  0.6598
 7666TIP3    H244490   2.815   4.760  10.769  0.6436 -1.8812  1.1240
 7667TIP3   OH244491   3.449   4.434   0.684  0.0417  0.0668 -0.3377
 7667TIP3    H144492   3.397   4.356   0.663  1.0663 -0.8914  0.5496
 7667TIP3    H244493   3.405   4.506   0.638 -2.0737 -0.6894  0.4089
 7668TIP3   OH244494   3.402   5.772  13.316 -0.2870 -0.2260 -0.0552
 7668TIP3    H144495   3.372   5.779  13.407 -0.1139  1.2112 -0.0864
 7668TIP3    H244496   3.494   5.797  13.320 -0.2599 -0.2340 -0.6179
 7669TIP3   OH244497   3.812   0.903  11.449  0.3384 -0.4428 -0.7023
 7669TIP3    H144498   3.739   0.841  11.460  0.4947 -0.6347 -0.7351
 7669TIP3    H244499   3.775   0.975  11.398 -0.2358  0.1625  0.5203
 7670TIP3   OH244500   6.420   6.684   5.535  0.1417 -0.3053 -0.2180
 7670TIP3    H144501   6.453   6.726   5.456 -0.9671  1.1695  0.0532
 7670TIP3    H244502   6.479   6.712   5.605 -0.0143  0.0094 -0.2089
 7671TIP3   OH244503   3.485   5.115   4.186 -0.1439 -0.3616  0.8926
 7671TIP3    H144504   3.514   5.202   4.160  1.2547 -0.7352  1.1091
 7671TIP3    H244505   3.534   5.055   4.130 -0.0478 -1.0483  1.6747
 7672TIP3   OH244506   3.154   1.142   6.256 -0.4313  0.2418  0.0999
 7672TIP3    H144507   3.208   1.094   6.193 -0.9750  0.9198 -0.9147
 7672TIP3    H244508   3.104   1.075   6.302  0.1964 -0.2831  0.0208
 7673TIP3   OH244509   6.154   2.384  12.403 -0.2061  0.1861  0.0666
 7673TIP3    H144510   6.094   2.341  12.341 -0.7971 -0.3658  1.0000
 7673TIP3    H244511   6.235   2.335  12.395  0.3612  1.3258 -1.6651
 7674TIP3   OH244512   2.589   5.653   5.567 -0.2682  0.2586 -0.4415
 7674TIP3    H144513   2.517   5.599   5.535  0.4097  0.1244 -1.8093
 7674TIP3    H244514   2.657   5.590   5.593  0.2562  0.4249 -1.3836
 7675TIP3   OH244515   4.148   2.579  10.557  0.2948 -0.4534 -0.0411
 7675TIP3    H144516   4.187   2.583  10.470  0.3488 -0.2647 -0.0092
 7675TIP3    H244517   4.170   2.664  10.597 -2.8175  1.0465 -1.1522
 7676TIP3   OH244518   4.902   0.382   2.344 -0.1879  0.4605 -0.7388
 7676TIP3    H144519   4.919   0.420   2.431  1.1481 -1.2592 -0.1859
 7676TIP3    H244520   4.807   0.388   2.334 -0.6193 -0.8779  1.6657
 7677TIP3   OH244521   0.923   5.191  12.296  0.2201 -0.3230 -0.2857
 7677TIP3    H144522   0.876   5.168  12.376 -1.5539 -0.2922 -1.2776
 7677TIP3    H244523   0.949   5.283  12.309  0.8732 -0.6188  0.6479
 7678TIP3   OH244524   0.355   6.250   5.032 -0.3829 -0.6459  0.1249
 7678TIP3    H144525   0.430   6.248   4.972 -0.5531 -1.1917 -0.0816
 7678TIP3    H244526   0.392   6.229   5.118 -0.1738 -0.0947  0.1719
 7679TIP3   OH244527   2.818   2.069  16.743  0.2697  0.1903  0.9536
 7679TIP3    H144528   2.900   2.055  16.696 -1.0160 -0.8956 -1.1230
 7679TIP3    H244529   2.830   2.025  16.827  0.4612 -3.7328 -0.9026
 7680TIP3   OH244530   2.846   5.493  14.975  0.2785  0.3538  0.4708
 7680TIP3    H144531   2.878   5.572  14.933  1.0831 -0.1349  0.1482
 7680TIP3    H244532   2.751   5.494  14.961  0.5580 -0.0305 -1.7657
 7681TIP3   OH244533   5.067   6.246  13.204  0.4213 -0.9713 -0.5255
 7681TIP3    H144534   5.130   6.289  13.261 -1.1121  1.9797 -0.8906
 7681TIP3    H244535   5.095   6.269  13.115 -0.9473  0.1320 -0.6994
 7682TIP3   OH244536   3.594   1.142   2.954 -0.0861  0.5395 -0.3055
 7682TIP3    H144537   3.586   1.198   2.876  2.3548 -1.0130 -1.8162
 7682TIP3    H244538   3.512   1.092   2.955  0.2818 -0.2247 -2.6237
 7683TIP3   OH244539   5.623   1.602   0.166  0.3059  0.1937  0.8759
 7683TIP3    H144540   5.568   1.578   0.092  2.4905  0.9390 -1.0993
 7683TIP3    H244541   5.561   1.616   0.238 -2.2088  2.0759 -1.4474
 7684TIP3   OH244542   4.555   1.605   3.383 -0.0901 -0.3838  0.3249
 7684TIP3    H144543   4.604   1.575   3.306  1.1740 -0.2869  1.0691
 7684TIP3    H244544   4.565   1.700   3.381 -2.0791 -0.1534 -0.6992
 7685TIP3   OH244545   4.769   0.961  12.868  0.2932 -0.0383  0.0090
 7685TIP3    H144546   4.675   0.948  12.881  0.3874  0.8174  1.7443
 7685TIP3    H244547   4.774   1.012  12.787 -0.6853 -0.6004 -0.4373
 7686TIP3   OH244548   3.366   1.386  14.830 -0.1973  0.1165 -0.1830
 7686TIP3    H144549   3.347   1.421  14.743 -1.2498  0.0129 -0.0153
 7686TIP3    H244550   3.290   1.331  14.850  0.0132  0.1765  0.8144
 7687TIP3   OH244551   1.522   2.919   0.309 -0.0798  0.0022  0.7973
 7687TIP3    H144552   1.568   2.836   0.314 -0.4794 -0.3246 -0.5269
 7687TIP3    H244553   1.584   2.978   0.266 -0.7715 -0.3847 -0.8051
 7688TIP3   OH244554   4.527   2.195  14.788 -0.5143  0.6445 -0.2691
 7688TIP3    H144555   4.591   2.241  14.842  1.5870 -0.9007 -1.3151
 7688TIP3    H244556   4.524   2.243  14.706 -1.0374  0.9538 -0.0747
 7689TIP3   OH244557   3.166   5.742  14.544  0.7980  0.1440 -0.0951
 7689TIP3    H144558   3.193   5.650  14.549 -0.0871 -0.0746  2.5466
 7689TIP3    H244559   3.082   5.740  14.497  2.1060  0.0432 -2.6028
 7690TIP3   OH244560   3.878   3.452   2.667  0.0731  0.0637 -0.8336
 7690TIP3    H144561   3.968   3.424   2.681  0.1588  0.2339 -1.0434
 7690TIP3    H244562   3.885   3.542   2.636 -0.1530 -0.0211 -1.1397
 7691TIP3   OH244563   5.245   3.972  14.529  0.1742  0.1688  0.3003
 7691TIP3    H144564   5.154   3.982  14.500 -0.3446  1.4733  2.1432
 7691TIP3    H244565   5.240   3.910  14.602  0.9051 -0.3729 -0.0952
 7692TIP3   OH244566   5.908   0.065  10.853  0.1252 -0.1089  0.0723
 7692TIP3    H144567   5.895   0.160  10.849 -2.3302 -0.2940  1.2572
 7692TIP3    H244568   5.957   0.050  10.934 -1.2561  0.0811  0.9801
 7693TIP3   OH244569   6.303   0.930   3.579 -0.5117  0.2169 -0.4184
 7693TIP3    H144570   6.382   0.973   3.547  0.5296 -0.6611  0.8444
 7693TIP3    H244571   6.272   0.986   3.650 -1.2405  0.7392 -1.1358
 7694TIP3   OH244572   0.043   2.220  12.654  0.0326  0.5596  0.2147
 7694TIP3    H144573   0.002   2.210  12.568  0.6619 -1.4428  0.0846
 7694TIP3    H244574   0.087   2.305  12.650 -0.1026  0.5896 -1.3792
 7695TIP3   OH244575   5.222   0.249   2.762 -0.4105 -0.4814  0.2095
 7695TIP3    H144576   5.194   0.233   2.852 -0.2867 -0.0322  0.3289
 7695TIP3    H244577   5.141   0.267   2.715 -0.2911  1.4616  0.6869
 7696TIP3   OH244578   2.640   1.096   3.804  0.1170  0.4219  0.3627
 7696TIP3    H144579   2.720   1.116   3.755  0.8756  1.1765  1.8256
 7696TIP3    H244580   2.627   1.002   3.792 -0.7170  0.8203 -2.6278
 7697TIP3   OH244581   2.529   2.610   1.101 -0.6284  0.0724 -0.0474
 7697TIP3    H144582   2.624   2.617   1.112 -0.2417 -0.7403 -2.2288
 7697TIP3    H244583   2.514   2.516   1.085 -1.5371  0.4231 -1.4000
 7698TIP3   OH244584   5.447   1.913  13.366  0.0266  0.2955 -1.1087
 7698TIP3    H144585   5.528   1.962  13.377 -0.8074  1.2258  1.4986
 7698TIP3    H244586   5.470   1.842  13.306  2.8219  0.3685 -0.2508
 7699TIP3   OH244587   5.221   1.544   0.784 -0.1968 -0.6231  0.7862
 7699TIP3    H144588   5.128   1.530   0.802 -0.4168  0.4404  0.5697
 7699TIP3    H244589   5.262   1.549   0.870 -0.8963  2.2724  1.0634
 7700TIP3   OH244590   0.072   1.918  16.141  0.2914 -0.4301  0.1206
 7700TIP3    H144591   0.122   1.954  16.214 -0.3259 -0.8074  0.7558
 7700TIP3    H244592  -0.011   1.891  16.181 -0.9915  1.4195 -1.1427
 7701TIP3   OH244593   5.729   4.143  10.541  0.2166 -0.3572  0.1522
 7701TIP3    H144594   5.672   4.219  10.530  0.5832  0.0265  0.8794
 7701TIP3    H244595   5.689   4.075  10.487 -0.0294  0.3961 -0.6300
 7702TIP3   OH244596   2.677   0.033   1.090 -0.1722  0.1813  0.1988
 7702TIP3    H144597   2.689  -0.052   1.134  0.5175  0.2379  0.1332
 7702TIP3    H244598   2.746   0.089   1.126 -1.3082  1.0637  1.0578
 7703TIP3   OH244599   2.895   5.093   0.115 -0.1985 -0.1076  0.9502
 7703TIP3    H144600   2.930   5.133   0.035 -1.9199  0.0674  0.2474
 7703TIP3    H244601   2.804   5.123   0.120 -0.4753 -1.0482  2.3642
 7704TIP3   OH244602   0.555   1.476  13.036  0.1666  0.5852 -0.5341
 7704TIP3    H144603   0.530   1.567  13.050 -1.1177  1.2285 -5.3569
 7704TIP3    H244604   0.475   1.426  13.053  0.4019  0.5167  0.4331
 7705TIP3   OH244605   0.965   2.802  13.694 -0.1690  0.9122  0.6971
 7705TIP3    H144606   0.996   2.733  13.636 -0.4262  1.2641  0.1343
 7705TIP3    H244607   0.983   2.883  13.647 -0.0894  1.2144  1.2474
 7706TIP3   OH244608   1.755   3.498   1.423  0.1591 -0.3669  0.2985
 7706TIP3    H144609   1.730   3.447   1.346  0.3646  3.6856 -2.8299
 7706TIP3    H244610   1.699   3.576   1.419  2.7246  1.7640  2.0359
 7707TIP3   OH244611   3.806   5.634  15.671 -0.0413 -0.4699  0.2519
 7707TIP3    H144612   3.835   5.551  15.635  1.2823  1.1325 -2.7258
 7707TIP3    H244613   3.886   5.675  15.704 -0.4825  0.1021  0.6273
 7708TIP3   OH244614   6.398   2.434  16.233  0.1738 -0.5172  0.3305
 7708TIP3    H144615   6.331   2.447  16.166 -0.5056 -0.5555  1.0050
 7708TIP3    H244616   6.430   2.345  16.217  0.1524 -0.4594 -0.0595
 7709TIP3   OH244617   6.575   4.119   4.975  0.1614 -0.2529 -0.4717
 7709TIP3    H144618   6.508   4.176   4.938  0.0021  0.1064  0.3482
 7709TIP3    H244619   6.616   4.078   4.899 -1.0958 -0.6199 -0.9826
 7710TIP3   OH244620   1.290   6.524  17.265 -0.1456 -0.4541 -0.0334
 7710TIP3    H144621   1.358   6.460  17.288 -0.7846 -1.2834 -0.4193
 7710TIP3    H244622   1.209   6.473  17.264 -0.9318  0.7114  1.3537
 7711TIP3   OH244623   4.118   5.440  15.747 -0.0110  0.1629  0.4281
 7711TIP3    H144624   4.069   5.398  15.676  0.2436  1.1145 -0.3253
 7711TIP3    H244625   4.205   5.400  15.743 -0.1745 -0.2188  0.6027
 7712TIP3   OH244626   1.469   0.518   4.206 -0.7059  0.1714 -0.3975
 7712TIP3    H144627   1.385   0.531   4.249 -0.8069 -0.7654 -0.3047
 7712TIP3    H244628   1.464   0.571   4.126 -2.0548 -1.2213 -1.2754
 7713TIP3   OH244629   6.824   4.565  16.506  0.2241 -0.1567 -0.2425
 7713TIP3    H144630   6.916   4.543  16.519  0.6542  0.4731 -1.9598
 7713TIP3    H244631   6.811   4.646  16.555  1.0390  0.6336 -1.2929
 7714TIP3   OH244632   3.582   2.947  17.024 -0.5291  0.3590  0.3637
 7714TIP3    H144633   3.677   2.940  17.013 -0.3276  2.1127  0.6530
 7714TIP3    H244634   3.549   2.966  16.936 -0.8527 -1.8666 -0.0624
 7715TIP3   OH244635   5.196   4.277   4.327 -0.0780  0.2118  0.2682
 7715TIP3    H144636   5.126   4.337   4.302  0.5279  0.4172 -1.0241
 7715TIP3    H244637   5.229   4.243   4.244  0.8413 -0.4772  0.8967
 7716TIP3   OH244638   0.446   4.465  12.312 -0.1006 -0.2843  0.3557
 7716TIP3    H144639   0.396   4.546  12.305  1.6054  0.8173  0.4548
 7716TIP3    H244640   0.411   4.410  12.241 -1.2360  0.5447  0.2451
 7717TIP3   OH244641   1.617   1.099   0.292 -1.0425 -0.3484  0.3334
 7717TIP3    H144642   1.693   1.050   0.322 -1.4868 -1.8097 -0.8389
 7717TIP3    H244643   1.631   1.110   0.198 -2.6229 -1.2915 -0.0320
 7718TIP3   OH244644   6.481   3.192   5.067  0.9512 -0.3729 -0.1452
 7718TIP3    H144645   6.420   3.156   5.130  0.4437  1.1548  0.2804
 7718TIP3    H244646   6.506   3.117   5.012  0.4302 -1.4652  1.0533
 7719TIP3   OH244647   2.014   5.037  16.369 -0.2065 -0.0833  0.6463
 7719TIP3    H144648   2.066   4.980  16.426 -1.1278  0.6932  2.3407
 7719TIP3    H244649   1.968   4.976  16.311 -1.1992 -1.1270  2.4311
 7720TIP3   OH244650   4.981   6.016  11.065 -0.8644  0.3871 -0.0610
 7720TIP3    H144651   4.922   5.980  10.999 -0.0420 -1.7838  0.2961
 7720TIP3    H244652   5.040   6.073  11.016 -1.4989  0.3612 -0.8684
 7721TIP3   OH244653   2.243   0.776  14.355 -0.4853  0.1284 -0.4494
 7721TIP3    H144654   2.255   0.727  14.274 -0.4935  1.5586 -1.3527
 7721TIP3    H244655   2.315   0.747  14.412  0.1857 -0.0744 -1.3835
 7722TIP3   OH244656   4.189   4.909  12.257 -0.2370  0.0216 -0.2240
 7722TIP3    H144657   4.284   4.907  12.247 -0.3063 -1.8898 -0.9173
 7722TIP3    H244658   4.171   4.846  12.327 -0.9874  0.4488 -0.0186
 7723TIP3   OH244659   3.638   6.074   5.293 -0.1652  0.4593  0.4856
 7723TIP3    H144660   3.603   6.143   5.349 -0.3073  1.2481 -0.5510
 7723TIP3    H244661   3.587   6.080   5.212  0.7656  0.0728 -0.1534
 7724TIP3   OH244662   6.462   3.601  15.931  0.1273 -0.0085  0.2647
 7724TIP3    H144663   6.457   3.629  16.022 -0.8975 -0.7384  0.4560
 7724TIP3    H244664   6.374   3.570  15.911  0.3712  0.0303 -0.9445
 7725TIP3   OH244665   1.294   2.930  10.009 -0.0406  0.9426  0.0133
 7725TIP3    H144666   1.297   2.881  10.090  1.6948  0.8346 -0.0656
 7725TIP3    H244667   1.201   2.943   9.991 -0.4848 -0.4859  1.1210
 7726TIP3   OH244668   0.127   5.810  13.893  0.0687 -0.4959  0.1267
 7726TIP3    H144669   0.218   5.840  13.885  0.2344 -0.7948  0.8290
 7726TIP3    H244670   0.104   5.783  13.804  0.2817  0.6349 -0.2892
 7727TIP3   OH244671   1.350   4.213   5.553  0.1324  0.3649 -0.0821
 7727TIP3    H144672   1.292   4.195   5.627 -0.6194 -0.4222 -0.8356
 7727TIP3    H244673   1.309   4.167   5.480  0.2105  2.0945 -1.2654
 7728TIP3   OH244674   4.300   2.274   4.885  0.0973 -0.0597 -0.0181
 7728TIP3    H144675   4.338   2.354   4.921 -0.1383  0.8792 -1.7490
 7728TIP3    H244676   4.318   2.207   4.951  2.2869  0.9197  0.4608
 7729TIP3   OH244677   4.437   4.187   4.550  0.3739 -0.7545  0.1187
 7729TIP3    H144678   4.427   4.194   4.456 -1.9175 -0.9622  0.2912
 7729TIP3    H244679   4.409   4.098   4.571 -1.3696 -0.0222  1.1707
 7730TIP3   OH244680   5.749   3.047   4.164 -0.2873 -0.3853 -0.2778
 7730TIP3    H144681   5.734   3.120   4.224 -0.0698  0.6266 -1.4233
 7730TIP3    H244682   5.813   3.080   4.100 -1.1352 -1.1307 -1.5632
 7731TIP3   OH244683   4.423   3.501  13.677 -0.5622 -0.2958  0.0974
 7731TIP3    H144684   4.388   3.442  13.610 -0.8505 -0.8663  0.7359
 7731TIP3    H244685   4.388   3.467  13.759 -1.5858  1.3884  0.3909
 7732TIP3   OH244686   3.125   6.158   2.230  0.2088  0.2308 -0.3915
 7732TIP3    H144687   3.152   6.119   2.147 -2.1228 -1.9719 -0.2541
 7732TIP3    H244688   3.149   6.093   2.296 -1.4154  0.1243  0.1553
 7733TIP3   OH244689   3.687   3.501   1.724 -0.1569 -0.5662 -0.2570
 7733TIP3    H144690   3.729   3.480   1.807  1.4456  2.2182 -0.2194
 7733TIP3    H244691   3.648   3.419   1.694  1.1753 -2.1598  2.1175
 7734TIP3   OH244692   0.108   4.541  12.190  0.1293 -0.0623  0.3432
 7734TIP3    H144693   0.019   4.549  12.155  0.7801  0.2120 -1.3633
 7734TIP3    H244694   0.112   4.453  12.226 -0.7626 -0.1528  0.2577
 7735TIP3   OH244695   0.147   2.826  17.198 -0.0063  0.4897  0.3029
 7735TIP3    H144696   0.230   2.855  17.159 -0.3129  0.2152 -0.5696
 7735TIP3    H244697   0.145   2.732  17.183 -1.2892  0.7299 -1.2944
 7736TIP3   OH244698   3.385   5.990  13.516  0.5796 -0.3693 -0.6770
 7736TIP3    H144699   3.414   6.046  13.588 -0.1514 -1.4059  0.4702
 7736TIP3    H244700   3.289   5.990  13.522  0.5362 -3.2878  0.7010
 7737TIP3   OH244701   4.524   6.807  12.099 -0.1258 -0.1862 -0.3200
 7737TIP3    H144702   4.445   6.847  12.065 -0.3550 -1.0099 -0.7988
 7737TIP3    H244703   4.589   6.820  12.030  0.4320  1.2775  0.4403
 7738TIP3   OH244704   3.910   4.318   3.106  0.3422 -0.4254 -0.3544
 7738TIP3    H144705   3.907   4.268   3.188  0.3155 -0.4173 -0.3502
 7738TIP3    H244706   3.954   4.399   3.128 -1.1046  0.2840  0.0405
 7739TIP3   OH244707   3.083   0.067  13.576 -0.1350  0.0133  0.2462
 7739TIP3    H144708   3.163   0.066  13.522  1.3141  1.6775  2.1934
 7739TIP3    H244709   3.063  -0.025  13.592 -1.4210 -0.6715 -4.0647
 7740TIP3   OH244710   1.444   0.528   2.028 -0.4868 -0.0090  0.4438
 7740TIP3    H144711   1.504   0.555   1.959 -0.0278  1.6321  1.4410
 7740TIP3    H244712   1.364   0.576   2.011 -0.5681 -0.0393  0.7332
 7741TIP3   OH244713   3.646   0.475   2.809 -0.2020  0.5754 -0.1835
 7741TIP3    H144714   3.679   0.400   2.759 -1.6976  1.0202 -1.9360
 7741TIP3    H244715   3.630   0.440   2.897 -1.0746 -1.2401 -1.0207
 7742TIP3   OH244716   0.400   3.265  14.583 -0.5437 -0.1450  0.6531
 7742TIP3    H144717   0.447   3.220  14.512 -0.3630  0.5813  0.3086
 7742TIP3    H244718   0.459   3.257  14.658  0.7373  1.7705 -0.0572
 7743TIP3   OH244719   5.100   3.731  14.634  0.0571 -0.2832  0.1969
 7743TIP3    H144720   5.122   3.641  14.611  3.4120  0.1847  1.0491
 7743TIP3    H244721   5.133   3.742  14.724 -0.6891  1.6557  0.2931
 7744TIP3   OH244722   5.206   3.709   1.637  0.3177  0.6832  0.0120
 7744TIP3    H144723   5.180   3.744   1.722  0.7181  0.0882  0.3838
 7744TIP3    H244724   5.288   3.664   1.653 -0.7161 -1.4142 -0.2078
 7745TIP3   OH244725   6.069   2.880  16.792  0.7177  0.0497  0.2764
 7745TIP3    H144726   6.065   2.830  16.873  3.0160  0.5646  0.7652
 7745TIP3    H244727   6.059   2.971  16.820 -1.0074  0.1023 -0.3535
 7746TIP3   OH244728   5.760   3.596   4.845 -0.1953 -0.2414 -0.3098
 7746TIP3    H144729   5.803   3.596   4.931  0.7092 -0.7312 -0.7455
 7746TIP3    H244730   5.806   3.528   4.796 -0.2943  0.4488 -1.3852
 7747TIP3   OH244731   5.565   3.496   4.361 -0.6378  0.0580  0.3863
 7747TIP3    H144732   5.567   3.589   4.385 -0.0603 -0.0230  0.6748
 7747TIP3    H244733   5.497   3.458   4.416  0.5682 -0.0991  1.8303
 7748TIP3   OH244734   5.426   5.161  15.940 -0.0907  0.0147 -0.3093
 7748TIP3    H144735   5.465   5.088  15.892  1.9586  0.4372  0.5746
 7748TIP3    H244736   5.409   5.125  16.027  0.4510  0.4162 -0.0281
 7749TIP3   OH244737   4.416   4.324  16.515  0.0847 -0.1427 -0.0549
 7749TIP3    H144738   4.388   4.283  16.433  1.8816 -0.8051 -0.3812
 7749TIP3    H244739   4.481   4.263  16.551  1.0175  1.2497  0.6886
 7750TIP3   OH244740   4.806   1.358   2.922 -0.1083  0.0965  0.2675
 7750TIP3    H144741   4.816   1.265   2.902 -0.2285  0.4056 -1.3344
 7750TIP3    H244742   4.728   1.362   2.977  0.7350 -0.8835  1.6076
 7751TIP3   OH244743   1.718   3.469   0.963  0.3733 -0.4071  0.2038
 7751TIP3    H144744   1.701   3.434   0.875 -1.6940 -0.8608  0.7295
 7751TIP3    H244745   1.631   3.484   1.000  1.2038  0.0746  2.0772
 7752TIP3   OH244746   3.671   1.425   4.459  0.1194  0.2621  0.3080
 7752TIP3    H144747   3.689   1.447   4.551  0.1039  0.1345  0.3420
 7752TIP3    H244748   3.682   1.330   4.455  1.3374  0.4027 -0.0857
 7753TIP3   OH244749   1.925   1.251  16.901 -0.3924 -0.0145 -0.3847
 7753TIP3    H144750   2.015   1.265  16.871 -0.3708 -0.3843 -0.5009
 7753TIP3    H244751   1.870   1.280  16.828 -0.3564 -0.1074 -0.4494
 7754TIP3   OH244752   4.411   4.953  10.259  0.3333 -0.4984 -0.1797
 7754TIP3    H144753   4.447   4.872  10.295 -1.3574 -0.9417  0.6618
 7754TIP3    H244754   4.355   4.925  10.187  1.4239  0.1387 -1.3033
 7755TIP3   OH244755   1.927   0.459  15.496  0.2635 -0.1049 -0.2234
 7755TIP3    H144756   1.932   0.455  15.591 -0.0640 -0.3251 -0.2139
 7755TIP3    H244757   1.858   0.523  15.478  1.0114  0.6803 -0.3212
 7756TIP3   OH244758   3.537   4.814   0.203  0.1100  0.0387  0.0482
 7756TIP3    H144759   3.472   4.879   0.230 -0.3171 -0.9244  1.4416
 7756TIP3    H244760   3.602   4.815   0.273  0.2961 -0.7558 -0.0988
 7757TIP3   OH244761   4.757   0.340   0.530 -0.3792  0.2527  0.1336
 7757TIP3    H144762   4.800   0.276   0.587  1.5688  0.2434 -1.2567
 7757TIP3    H244763   4.765   0.423   0.577  0.7837  0.1693  0.1076
 7758TIP3   OH244764   1.921   6.610   0.744  0.3260  0.1454  0.2126
 7758TIP3    H144765   1.895   6.701   0.760  2.5814  0.6989  1.1227
 7758TIP3    H244766   1.859   6.558   0.795  0.3676  1.3094  1.5274
 7759TIP3   OH244767   6.098   2.000  16.275 -0.1454 -0.1764 -0.1082
 7759TIP3    H144768   6.174   1.947  16.299 -0.0513  0.3624  0.8182
 7759TIP3    H244769   6.059   2.026  16.359 -1.0572 -0.0218 -0.5660
 7760TIP3   OH244770   4.215   1.875   5.070 -0.7849 -0.5111  0.1052
 7760TIP3    H144771   4.169   1.841   4.993 -0.0923  2.0132 -1.5640
 7760TIP3    H244772   4.306   1.850   5.056 -0.3944  1.2151 -0.7727
 7761TIP3   OH244773   5.104   1.388   5.146 -0.2748  0.4579 -0.3287
 7761TIP3    H144774   5.013   1.410   5.130 -0.3087  1.9351  1.4766
 7761TIP3    H244775   5.137   1.461   5.198  1.1117 -1.4301  1.6198
 7762TIP3   OH244776   3.609   6.224  14.282 -0.1090  0.0469 -0.4437
 7762TIP3    H144777   3.696   6.198  14.251  0.4872  0.8996  0.4452
 7762TIP3    H244778   3.596   6.173  14.362 -1.5885 -2.0629 -1.9273
 7763TIP3   OH244779   4.011   2.399  14.395  0.0917  0.2353 -0.3464
 7763TIP3    H144780   3.987   2.349  14.317  1.0646  0.0804 -0.5620
 7763TIP3    H244781   3.991   2.490  14.372  0.0959  0.1555 -0.6737
 7764TIP3   OH244782   5.519   5.160   1.178  0.0563  0.3217  0.0362
 7764TIP3    H144783   5.605   5.186   1.210 -0.0947  0.2461  0.5110
 7764TIP3    H244784   5.531   5.148   1.084  0.1553  2.0451 -0.2037
 7765TIP3   OH244785   0.131   2.592   4.981 -0.4227  0.5015  0.2426
 7765TIP3    H144786   0.148   2.684   5.000 -1.9357  0.8037  0.1966
 7765TIP3    H244787   0.071   2.593   4.906 -1.2942 -0.4801  0.8963
 7766TIP3   OH244788   4.156   0.393   5.681 -0.5759  0.0090 -0.2768
 7766TIP3    H144789   4.149   0.398   5.586 -2.6481 -0.1639 -0.1851
 7766TIP3    H244790   4.237   0.440   5.702 -0.3320  0.4669 -2.0728
 7767TIP3   OH244791   3.220   6.362  16.029 -0.2151  0.3813 -0.1127
 7767TIP3    H144792   3.286   6.351  15.960 -0.0118  0.7969  0.0121
 7767TIP3    H244793   3.214   6.456  16.042 -0.6034  0.3278  0.1038
 7768TIP3   OH244794   1.430   5.349  16.124  0.4751  0.3888 -0.3777
 7768TIP3    H144795   1.463   5.385  16.206 -0.5043 -1.1543  0.7409
 7768TIP3    H244796   1.496   5.284  16.098  1.6365  2.0174 -1.7652
 7769TIP3   OH244797   1.709   6.659   1.271 -0.3119  0.0627  0.3693
 7769TIP3    H144798   1.678   6.637   1.359 -0.3707 -1.5122  0.0021
 7769TIP3    H244799   1.803   6.640   1.273 -0.2463  0.3733  0.2046
 7770TIP3   OH244800   3.485   6.479   5.713 -0.0712 -0.6509 -0.1360
 7770TIP3    H144801   3.419   6.455   5.648 -0.0299 -1.9488  0.2698
 7770TIP3    H244802   3.476   6.413   5.782 -1.6696  1.9062  2.3503
 7771TIP3   OH244803   2.050   5.892   0.630  0.7285  0.5135  0.1052
 7771TIP3    H144804   2.123   5.918   0.687  2.0274  0.4975 -1.4427
 7771TIP3    H244805   2.086   5.900   0.541 -2.1292  3.7631 -0.9985
 7772TIP3   OH244806   3.093   4.402  16.620  0.1861  0.6790  0.2860
 7772TIP3    H144807   3.010   4.443  16.595 -0.9350 -0.9081  1.2265
 7772TIP3    H244808   3.128   4.368  16.537 -0.9527 -0.0684  0.0809
 7773TIP3   OH244809   1.470   3.288   1.346 -0.2181  0.1127 -0.0090
 7773TIP3    H144810   1.426   3.359   1.299 -1.0666 -0.9756 -0.9108
 7773TIP3    H244811   1.559   3.288   1.311  0.3004  1.7418  1.1715
 7774TIP3   OH244812   4.134   5.110  16.132 -1.2444 -0.0644 -0.7539
 7774TIP3    H144813   4.141   5.148  16.219 -0.7834 -0.3488 -0.6631
 7774TIP3    H244814   4.140   5.016  16.145 -1.2354 -0.1135 -1.0878
 7775TIP3   OH244815   2.117   3.190  12.985 -0.2897  0.5945  0.0965
 7775TIP3    H144816   2.046   3.252  12.999 -0.1008  1.0840 -1.0590
 7775TIP3    H244817   2.192   3.244  12.960 -0.4827 -0.1424 -2.3529
 7776TIP3   OH244818   2.181   3.888   0.008 -0.4120  0.0969  0.0345
 7776TIP3    H144819   2.164   3.794   0.014  0.0091  0.0433  0.4484
 7776TIP3    H244820   2.217   3.900  -0.079  0.5047 -0.2922  0.3422
 7777TIP3   OH244821   4.731   2.293   4.986 -0.0475  0.3236 -0.0092
 7777TIP3    H144822   4.654   2.338   4.951 -0.7382 -0.2162  0.7709
 7777TIP3    H244823   4.697   2.240   5.058  1.1079  0.2964  0.5370
 7778TIP3   OH244824   5.936   5.202   0.216  0.5281 -0.1994 -0.4540
 7778TIP3    H144825   5.954   5.108   0.227  0.1961 -0.5205 -2.2801
 7778TIP3    H244826   5.870   5.222   0.282  0.0809 -1.4361 -0.4940
 7779TIP3   OH244827   5.719   4.418  13.702  0.5038 -0.6594  0.8131
 7779TIP3    H144828   5.703   4.512  13.699  1.4104 -0.5253 -1.3238
 7779TIP3    H244829   5.805   4.409  13.743 -0.0527 -0.6579  2.0196
 7780TIP3   OH244830   1.149   4.601   1.055 -0.1298 -0.4672  0.2697
 7780TIP3    H144831   1.214   4.650   1.104  1.1487 -1.4954 -0.3335
 7780TIP3    H244832   1.067   4.647   1.070  0.3683 -0.2675  2.6466
 7781TIP3   OH244833   3.840   0.560  13.090  0.2360  0.2838  0.0992
 7781TIP3    H144834   3.768   0.606  13.132  0.5148  1.3208 -0.5122
 7781TIP3    H244835   3.843   0.596  13.001 -0.1555 -1.6395 -0.7387
 7782TIP3   OH244836   6.309   5.700   4.803  0.4160 -0.9566 -0.0260
 7782TIP3    H144837   6.236   5.732   4.856  0.1901 -0.4619 -0.6199
 7782TIP3    H244838   6.371   5.665   4.866  1.4933  2.2226  0.8453
 7783TIP3   OH244839   2.475   0.710   0.881  0.1064  0.1529  0.4925
 7783TIP3    H144840   2.488   0.723   0.975  1.0865 -0.1180  0.4055
 7783TIP3    H244841   2.560   0.678   0.849 -0.8032 -1.8529 -0.1171
 7784TIP3   OH244842   0.729   1.366   2.736  0.1642  0.0243  0.1397
 7784TIP3    H144843   0.635   1.363   2.752 -0.2917  1.0946 -1.8720
 7784TIP3    H244844   0.737   1.416   2.654  2.3791 -1.3988 -0.6012
 7785TIP3   OH244845   5.273   0.813  11.022 -0.0843 -0.8975 -0.1897
 7785TIP3    H144846   5.320   0.766  11.091 -0.5269 -0.6796  0.2685
 7785TIP3    H244847   5.218   0.876  11.069 -0.2186 -0.5862 -0.7544
 7786TIP3   OH244848   3.219   2.520  11.727 -0.9709 -0.1895 -0.8138
 7786TIP3    H144849   3.206   2.515  11.632 -1.7110  2.0318 -0.8778
 7786TIP3    H244850   3.180   2.440  11.761  0.5363 -1.7076 -2.4645
 7787TIP3   OH244851   4.482   3.782   4.256  0.1659 -0.0695 -0.0176
 7787TIP3    H144852   4.415   3.731   4.302  0.0834 -2.5676 -2.6240
 7787TIP3    H244853   4.563   3.732   4.268  1.2683  1.9367  1.5392
 7788TIP3   OH244854   1.116   0.817  13.977  0.1197  0.1747  0.8383
 7788TIP3    H144855   1.200   0.771  13.976 -1.4463 -2.9728  1.3483
 7788TIP3    H244856   1.075   0.790  14.059 -1.6915  1.0812  0.2824
 7789TIP3   OH244857   2.706   1.408  16.948 -0.7029 -0.1870  0.2307
 7789TIP3    H144858   2.757   1.334  16.915 -0.2791  0.2324 -0.0779
 7789TIP3    H244859   2.741   1.424  17.035  1.0993  1.3450 -0.7113
 7790TIP3   OH244860   3.789   3.156   3.391  0.1827 -0.1150 -0.0347
 7790TIP3    H144861   3.869   3.198   3.360  0.2580 -0.8807 -0.9345
 7790TIP3    H244862   3.755   3.111   3.314 -2.3745  2.0573 -0.3425
 7791TIP3   OH244863   6.070   0.695   2.490 -0.4850 -1.1452  0.0485
 7791TIP3    H144864   6.063   0.613   2.440  2.1474 -0.7561 -1.1141
 7791TIP3    H244865   6.152   0.687   2.539 -0.0350  0.8764 -0.2752
 7792TIP3   OH244866   6.123   0.870   3.325 -0.5037 -0.4811 -0.5850
 7792TIP3    H144867   6.119   0.965   3.316  1.4674 -0.4679 -1.9733
 7792TIP3    H244868   6.108   0.854   3.419 -0.0311  1.2507 -0.1811
 7793TIP3   OH244869   3.346   2.438  12.507  0.0776  0.1359  0.4356
 7793TIP3    H144870   3.421   2.484  12.471 -0.2347  0.6689  0.4648
 7793TIP3    H244871   3.311   2.497  12.574  1.5231 -1.4039  2.7263
 7794TIP3   OH244872   1.687   3.844  12.533  0.5083 -0.3593  0.1527
 7794TIP3    H144873   1.728   3.803  12.456 -0.5535 -0.2845 -0.4670
 7794TIP3    H244874   1.594   3.828  12.521  0.4140 -1.7207  2.2298
 7795TIP3   OH244875   1.809   2.353   1.579  0.2214 -0.5877  0.5149
 7795TIP3    H144876   1.901   2.355   1.607  1.0033  3.3753 -1.5485
 7795TIP3    H244877   1.811   2.304   1.496  1.1808  1.8440 -1.0157
 7796TIP3   OH244878   1.187   2.513   5.036  0.5000 -0.0506  0.2778
 7796TIP3    H144879   1.229   2.446   5.090 -0.2847 -1.2449 -0.5579
 7796TIP3    H244880   1.106   2.534   5.081  0.4414 -0.1264  0.2073
 7797TIP3   OH244881   2.748   4.083  11.196 -0.1127 -0.1861  0.3106
 7797TIP3    H144882   2.690   4.103  11.122 -0.4722  1.2864  0.9688
 7797TIP3    H244883   2.690   4.078  11.272  0.3862 -0.6588  0.6683
 7798TIP3   OH244884   0.047   5.854   4.521 -0.4618  0.1227 -0.0318
 7798TIP3    H144885  -0.018   5.920   4.497  0.8026  1.7766  0.9528
 7798TIP3    H244886   0.003   5.801   4.588 -1.8165 -0.6953 -1.4882
 7799TIP3   OH244887   0.103   2.444  12.165  0.2281 -0.0817  0.1573
 7799TIP3    H144888   0.118   2.379  12.097 -1.5978  1.1890 -1.5883
 7799TIP3    H244889   0.061   2.396  12.236  2.9555 -1.6147  0.9040
 7800TIP3   OH244890   5.415   5.907   5.531 -0.9859 -0.0408  0.3267
 7800TIP3    H144891   5.401   6.000   5.551 -1.3958 -0.0303 -0.0051
 7800TIP3    H244892   5.350   5.861   5.585 -1.6215 -0.0544 -0.4276
 7801TIP3   OH244893   5.905   5.481   2.660  0.1006  0.5910  0.4914
 7801TIP3    H144894   5.935   5.397   2.695 -2.8068 -1.1549 -0.8070
 7801TIP3    H244895   5.941   5.484   2.572 -1.4203 -0.3461 -0.1985
 7802TIP3   OH244896   5.950   0.048  15.741  0.2008  0.2147  0.5634
 7802TIP3    H144897   6.035   0.061  15.699 -0.4297 -1.4811 -1.3434
 7802TIP3    H244898   5.926   0.135  15.772  1.3289  1.3036 -1.4110
 7803TIP3   OH244899   2.593   6.118  12.820  0.1454 -0.3626  0.7283
 7803TIP3    H144900   2.514   6.071  12.793  1.2654 -1.8912 -0.0373
 7803TIP3    H244901   2.631   6.151  12.738 -0.1146  1.1001  1.1667
 7804TIP3   OH244902   4.959   3.505  11.521  0.0784  0.6600  0.1532
 7804TIP3    H144903   5.049   3.473  11.525 -0.0455  0.1946 -0.6723
 7804TIP3    H244904   4.966   3.591  11.479 -0.0867 -0.4097 -2.2284
 7805TIP3   OH244905   5.045   5.668   2.941 -0.2499  0.3004  0.5189
 7805TIP3    H144906   5.001   5.751   2.923 -0.3042  0.3251  0.7655
 7805TIP3    H244907   4.981   5.617   2.990 -0.9215 -0.6183 -1.2381
 7806TIP3   OH244908   6.372   1.317   4.867 -1.0341  0.6771 -0.6423
 7806TIP3    H144909   6.447   1.271   4.904 -0.0407  1.9552 -1.0004
 7806TIP3    H244910   6.367   1.399   4.916 -1.8646  0.8474 -0.9956
 7807TIP3   OH244911   1.814   4.352   0.243  0.1265 -0.0265  0.4303
 7807TIP3    H144912   1.881   4.305   0.192 -0.6106 -0.2846 -0.3228
 7807TIP3    H244913   1.778   4.416   0.182 -1.7052 -1.2238  0.1552
 7808TIP3   OH244914   2.142   4.297   5.159 -0.0583 -0.0996 -0.3323
 7808TIP3    H144915   2.066   4.355   5.163 -0.4789 -0.4497 -2.2110
 7808TIP3    H244916   2.217   4.356   5.154 -0.4893  0.3350 -2.3419
 7809TIP3   OH244917   4.251   4.065   3.411 -0.6760 -0.8758  0.2621
 7809TIP3    H144918   4.194   4.109   3.348 -0.0715  0.0729  0.3567
 7809TIP3    H244919   4.201   4.066   3.493 -1.3081 -1.7787 -0.0927
 7810TIP3   OH244920   0.886   4.009  16.426 -0.3629 -0.3859  0.4235
 7810TIP3    H144921   0.824   3.953  16.472 -2.3573  0.5489 -0.9941
 7810TIP3    H244922   0.833   4.080  16.390  1.3006 -0.2122 -1.9589
 7811TIP3   OH244923   2.403   5.089  14.909  0.1321 -0.6625  0.0476
 7811TIP3    H144924   2.497   5.084  14.893 -0.0732 -1.7671 -0.9685
 7811TIP3    H244925   2.393   5.077  15.004  1.0554  0.3694  0.2869
 7812TIP3   OH244926   6.188   5.318   3.840 -0.4964 -0.4039  0.3513
 7812TIP3    H144927   6.195   5.255   3.911  0.7929 -1.2498 -0.4887
 7812TIP3    H244928   6.278   5.342   3.819 -0.8979  0.6345 -0.2993
 7813TIP3   OH244929   2.460   0.830  10.686  0.2542  0.0218  0.8278
 7813TIP3    H144930   2.517   0.814  10.610  0.8041 -0.4797  1.3383
 7813TIP3    H244931   2.371   0.814  10.653  0.5684 -1.2316  0.5506
 7814TIP3   OH244932   2.374   2.659  11.290  0.6723 -0.1923 -0.0323
 7814TIP3    H144933   2.420   2.599  11.349  0.0900 -0.4430  0.1797
 7814TIP3    H244934   2.375   2.743  11.336 -1.3939 -0.7839  1.2617
 7815TIP3   OH244935   1.455   6.384  15.103  0.3313  0.5426 -0.0379
 7815TIP3    H144936   1.483   6.311  15.157  1.0910  0.6110 -0.3276
 7815TIP3    H244937   1.528   6.399  15.042  0.1675  1.4992 -0.0220
 7816TIP3   OH244938   0.841   6.571   4.625 -0.6682 -0.7694 -0.2217
 7816TIP3    H144939   0.888   6.572   4.541  0.0110  1.9969  0.1009
 7816TIP3    H244940   0.911   6.580   4.690 -1.4423  1.3839  0.3738
 7817TIP3   OH244941   4.891   6.379   2.523 -0.0565 -0.1464 -0.4874
 7817TIP3    H144942   4.976   6.378   2.479  0.3094  1.1272  0.1495
 7817TIP3    H244943   4.845   6.302   2.489  1.1643 -0.5785 -1.1990
 7818TIP3   OH244944   6.581   0.559   5.993 -0.0216  0.3359  0.4721
 7818TIP3    H144945   6.496   0.526   6.023 -0.0768 -0.5949 -0.6340
 7818TIP3    H244946   6.562   0.646   5.957 -0.8636 -0.5468 -1.3452
 7819TIP3   OH244947   5.944   6.231  17.126  0.1252 -0.2557 -0.4971
 7819TIP3    H144948   6.010   6.212  17.193  0.3681 -1.4313 -1.0354
 7819TIP3    H244949   5.886   6.295  17.167  3.3588  3.4301 -1.0651
 7820TIP3   OH244950   3.049   0.590   3.377 -0.5115 -0.4359  0.7863
 7820TIP3    H144951   3.117   0.633   3.323 -0.0765 -1.9267  0.0825
 7820TIP3    H244952   3.054   0.635   3.461  0.2899  0.5248  0.2594
 7821TIP3   OH244953   4.003   5.253   5.519 -0.1209  0.3448 -0.0040
 7821TIP3    H144954   4.013   5.333   5.468  2.7697 -0.3944 -0.7759
 7821TIP3    H244955   4.083   5.248   5.572 -0.5976 -1.6272  0.6029
 7822TIP3   OH244956   5.050   3.639  16.867  0.0473  0.3135 -0.6079
 7822TIP3    H144957   4.997   3.654  16.946  0.9183  1.5143 -0.2297
 7822TIP3    H244958   5.138   3.626  16.900  0.3764  0.5799 -1.3674
 7823TIP3   OH244959   3.284   4.188  13.621  0.1435  0.2872 -0.5620
 7823TIP3    H144960   3.188   4.188  13.616  0.1449  1.0298 -0.6461
 7823TIP3    H244961   3.310   4.103  13.585 -0.4698  0.2231 -0.8647
 7824TIP3   OH244962   1.751   2.225   1.334 -0.0061 -0.0089  0.5210
 7824TIP3    H144963   1.660   2.248   1.355 -1.1684 -2.7069 -1.0400
 7824TIP3    H244964   1.760   2.246   1.241  0.2738 -1.5770  0.1650
 7825TIP3   OH244965   1.117   5.622  14.725 -0.0722 -0.0609  0.0990
 7825TIP3    H144966   1.106   5.582  14.811 -1.9246  1.0272  0.4240
 7825TIP3    H244967   1.145   5.551  14.668 -1.1166 -1.3252  1.1119
 7826TIP3   OH244968   3.797   2.115  16.877  0.2743 -0.0685  0.1681
 7826TIP3    H144969   3.871   2.064  16.911  0.2276 -1.1206 -1.2495
 7826TIP3    H244970   3.828   2.206  16.877  1.4627 -0.4607 -0.1367
 7827TIP3   OH244971   2.469   5.819  15.030  0.4093 -0.6130  0.6087
 7827TIP3    H144972   2.508   5.887  15.085 -2.2356  1.2241  0.4300
 7827TIP3    H244973   2.431   5.867  14.956 -0.1918 -2.4819 -0.3664
 7828TIP3   OH244974   5.439   1.508  10.690  0.3588  0.5215 -0.1702
 7828TIP3    H144975   5.435   1.504  10.785  0.4342  1.6219 -0.1072
 7828TIP3    H244976   5.351   1.536  10.664 -1.3252 -4.3615 -0.7959
 7829TIP3   OH244977   4.614   1.735   4.213  0.1661  0.1728  0.6272
 7829TIP3    H144978   4.702   1.736   4.177 -0.5805 -0.0853 -1.3417
 7829TIP3    H244979   4.601   1.823   4.247  1.7319 -0.2535  2.5058
 7830TIP3   OH244980   4.805   4.274  14.405  0.0325  0.4381 -0.4461
 7830TIP3    H144981   4.866   4.219  14.454 -1.4310  1.5073  2.8472
 7830TIP3    H244982   4.743   4.213  14.366 -0.5194 -0.4049  1.6459
 7831TIP3   OH244983   3.665   2.144  16.110  0.8968  0.1285 -0.6258
 7831TIP3    H144984   3.581   2.188  16.115  1.0635  0.5763 -1.5776
 7831TIP3    H244985   3.644   2.051  16.106  0.4607  0.2290 -0.6362
 7832TIP3   OH244986   2.979   0.651  15.878  0.3959  0.5017 -0.0367
 7832TIP3    H144987   2.962   0.625  15.969 -0.1929  0.7881 -0.0620
 7832TIP3    H244988   2.937   0.736  15.869 -1.4882 -0.5039 -1.2158
 7833TIP3   OH244989   1.063   3.485  15.210  0.2083 -0.1380  0.1725
 7833TIP3    H144990   0.991   3.490  15.272  1.1969 -1.4244  1.4998
 7833TIP3    H244991   1.049   3.558  15.150 -1.0069  0.9028  1.6652
 7834TIP3   OH244992   5.012   3.513  13.489 -0.0641 -0.1932 -0.0973
 7834TIP3    H144993   4.964   3.438  13.454 -2.9003  1.6761 -0.4927
 7834TIP3    H244994   5.032   3.567  13.413  0.5609  0.2305  0.3515
 7835TIP3   OH244995   2.881   6.577   3.504 -0.4418  0.6248  0.0301
 7835TIP3    H144996   2.946   6.509   3.490  0.3350  1.4693 -0.6016
 7835TIP3    H244997   2.820   6.540   3.568  1.7824  0.5360  2.2487
 7836TIP3   OH244998   2.608   5.076  15.368  0.4882 -0.7556  0.0277
 7836TIP3    H144999   2.623   5.157  15.417  1.5660 -1.2885  0.6122
 7836TIP3    H245000   2.685   5.022  15.386 -0.2086 -1.9185 -0.3509
 7837TIP3   OH245001   6.141   5.175  15.452  0.0661 -0.0473  0.3446
 7837TIP3    H145002   6.085   5.225  15.511  0.0912 -0.3952  0.6665
 7837TIP3    H245003   6.083   5.148  15.381  0.2117  1.0693 -0.2276
 7838TIP3   OH245004   5.021   6.497  16.862 -0.2249  0.9890  0.4164
 7838TIP3    H145005   5.082   6.569  16.844  0.0495  0.9626  1.1649
 7838TIP3    H245006   5.046   6.428  16.800  1.1602  0.6185  1.3273
 7839TIP3   OH245007   5.670   6.775  15.723 -0.0170 -0.4031 -0.2254
 7839TIP3    H145008   5.763   6.797  15.718  0.1663 -0.6556  1.4973
 7839TIP3    H245009   5.665   6.704  15.787 -1.2519 -1.3943 -1.3572
 7840TIP3   OH245010   5.639   3.431  15.674 -0.2554  0.1191 -0.0580
 7840TIP3    H145011   5.689   3.510  15.653 -1.1246  0.4760 -0.8600
 7840TIP3    H245012   5.627   3.388  15.590 -1.0760 -0.0901  0.1622
 7841TIP3   OH245013   0.552   4.293   5.943 -0.0056 -0.4304 -0.3388
 7841TIP3    H145014   0.506   4.309   6.025 -1.3884 -0.3197 -1.1112
 7841TIP3    H245015   0.590   4.378   5.920 -0.6665 -0.1580 -0.4369
 7842TIP3   OH245016   0.459   2.171  16.097  0.0281  0.3213  0.4981
 7842TIP3    H145017   0.505   2.114  16.035  0.2599  0.6904  0.3278
 7842TIP3    H245018   0.451   2.119  16.177 -3.4345 -1.5813 -0.8710
 7843TIP3   OH245019   3.417   1.966  10.573 -0.0412  0.2443 -0.1950
 7843TIP3    H145020   3.323   1.973  10.559 -0.1217 -0.1003  0.1336
 7843TIP3    H245021   3.428   1.980  10.668  0.1884 -0.1684 -0.1593
 7844TIP3   OH245022   4.116   6.591   0.574  0.1082  0.7280 -0.1583
 7844TIP3    H145023   4.107   6.501   0.544  0.2777 -0.2687  2.5242
 7844TIP3    H245024   4.121   6.643   0.494  0.2367 -1.6490 -1.7769
 7845TIP3   OH245025   4.818   1.981   4.531 -0.0196 -0.0906  0.0196
 7845TIP3    H145026   4.819   2.032   4.612  1.4220 -0.4710  0.2786
 7845TIP3    H245027   4.852   2.040   4.464  0.2252 -0.2355  0.0126
 7846TIP3   OH245028   1.815   5.227  16.723 -0.3289 -0.1436 -0.6953
 7846TIP3    H145029   1.899   5.196  16.689  0.7898  0.3253  1.4745
 7846TIP3    H245030   1.761   5.239  16.645  1.9525  0.5696 -2.2775
 7847TIP3   OH245031   2.510   2.960   3.367  0.1961  0.4311 -0.8086
 7847TIP3    H145032   2.473   2.923   3.287 -0.3863 -1.3649  0.2460
 7847TIP3    H245033   2.445   2.942   3.435  0.9545  1.3516  0.2094
 7848TIP3   OH245034   0.109   0.902   3.159 -0.1121 -0.5619  0.1333
 7848TIP3    H145035   0.101   0.816   3.117 -0.4196 -0.5116  0.0921
 7848TIP3    H245036   0.125   0.962   3.086  0.0664 -0.5775  0.1589
 7849TIP3   OH245037   4.096   5.766  15.464 -0.3809 -0.3504  0.1176
 7849TIP3    H145038   4.079   5.688  15.412 -0.9624 -0.2530  0.1566
 7849TIP3    H245039   4.170   5.742  15.520  0.0000 -0.5780 -0.4774
 7850TIP3   OH245040   6.363   5.746  12.647 -0.4800 -0.1442  0.0228
 7850TIP3    H145041   6.294   5.801  12.685  0.1807 -0.1665  1.3128
 7850TIP3    H245042   6.342   5.657  12.676  0.1670 -0.1308  0.5377
 7851TIP3   OH245043   2.559   4.672   5.839  0.1791 -0.4608 -0.0349
 7851TIP3    H145044   2.525   4.714   5.918 -0.4016 -0.6748 -0.1681
 7851TIP3    H245045   2.543   4.736   5.769  1.2621 -0.0065  0.1147
 7852TIP3   OH245046   1.317   0.586   1.410  0.3786 -0.6484 -0.2905
 7852TIP3    H145047   1.363   0.528   1.349  0.6031 -0.1905 -0.5603
 7852TIP3    H245048   1.229   0.595   1.373  0.3395 -0.8274 -0.2412
 7853TIP3   OH245049   5.851   4.167   4.373 -0.4635  0.2755  0.5053
 7853TIP3    H145050   5.946   4.171   4.360  0.3260 -1.4096  4.4081
 7853TIP3    H245051   5.826   4.254   4.404  0.0158  0.3571  0.6580
 7854TIP3   OH245052   6.201   4.587   4.631 -0.3559  0.4161  0.1631
 7854TIP3    H145053   6.275   4.606   4.574  0.0829 -1.6124 -0.0089
 7854TIP3    H245054   6.241   4.568   4.716 -0.9603  2.7421  1.0613
 7855TIP3   OH245055   0.329   0.171  16.391  0.1917  0.3435 -0.2105
 7855TIP3    H145056   0.392   0.230  16.350 -0.1712  0.7141 -0.2479
 7855TIP3    H245057   0.320   0.099  16.329  1.4591 -0.3086  0.3317
 7856TIP3   OH245058   5.037   5.498   2.691 -0.2775 -1.2096  0.0720
 7856TIP3    H145059   4.964   5.555   2.717  0.2456  0.4704 -1.8708
 7856TIP3    H245060   5.095   5.499   2.767 -0.4646  0.5957  0.2385
 7857TIP3   OH245061   5.894   2.564   5.578 -0.5852 -0.1014  0.2423
 7857TIP3    H145062   5.971   2.591   5.628  0.9737 -1.7082 -1.1377
 7857TIP3    H245063   5.821   2.574   5.639  0.7416  1.1411  1.7188
 7858TIP3   OH245064   4.599   2.420  11.423  0.6329  0.6112 -0.3541
 7858TIP3    H145065   4.584   2.334  11.462  1.6160  0.5196 -0.1498
 7858TIP3    H245066   4.647   2.402  11.342  1.1346  0.9859 -0.1425
 7859TIP3   OH245067   5.427   2.392  12.549 -0.2296  0.2544  0.5611
 7859TIP3    H145068   5.466   2.476  12.528  0.4940  0.2354  1.7637
 7859TIP3    H245069   5.500   2.330  12.548 -0.4886 -0.0729  1.2750
 7860TIP3   OH245070   5.903   1.700  15.102  0.2677  0.0267  0.7844
 7860TIP3    H145071   5.916   1.781  15.150  0.3803  0.2424  0.3949
 7860TIP3    H245072   5.990   1.661  15.097  0.1567 -0.2838  1.2629
 7861TIP3   OH245073   5.282   5.047  11.964 -0.2486  0.1786 -0.1118
 7861TIP3    H145074   5.242   5.134  11.973 -0.3662  0.0243  0.9412
 7861TIP3    H245075   5.358   5.062  11.908  0.9163  1.3791  1.6704
 7862TIP3   OH245076   4.614   0.124  10.735  0.2816 -0.1535 -0.0500
 7862TIP3    H145077   4.654   0.059  10.678 -0.2902 -0.6503  0.1004
 7862TIP3    H245078   4.524   0.131  10.704  0.0307 -0.2578  0.6358
 7863TIP3   OH245079   4.239   2.314  15.318  0.3931  0.0550  0.5515
 7863TIP3    H145080   4.195   2.240  15.360  1.4073 -0.8363  0.1030
 7863TIP3    H245081   4.224   2.302  15.224  0.0511  0.7714  0.5060
 7864TIP3   OH245082   4.253   6.683   0.833 -0.3811  0.5214  0.3316
 7864TIP3    H145083   4.204   6.640   0.763  0.9057  0.5944 -0.6567
 7864TIP3    H245084   4.243   6.777   0.815 -1.8772  0.6274  1.5636
 7865TIP3   OH245085   3.325   1.272  14.059  0.2190  0.1089  0.3757
 7865TIP3    H145086   3.312   1.322  14.140  0.7069 -0.2145  0.6624
 7865TIP3    H245087   3.375   1.195  14.087 -2.9411 -2.0659  0.4793
 7866TIP3   OH245088   6.311   2.686  15.654 -0.2650  0.2328  0.1585
 7866TIP3    H145089   6.387   2.654  15.606  0.8814  0.2571  1.8423
 7866TIP3    H245090   6.312   2.781  15.641  2.3484  0.7954  3.1421
 7867TIP3   OH245091   3.943   0.984  16.030 -0.2601  0.1671  0.2721
 7867TIP3    H145092   3.915   0.909  16.083  0.9024 -1.1667 -0.8795
 7867TIP3    H245093   3.924   1.060  16.084 -2.7071 -0.8328  0.9697
 7868TIP3   OH245094   1.935   0.961   5.052  0.7294 -0.7028 -0.9300
 7868TIP3    H145095   1.867   1.027   5.038  1.4828 -0.1101 -1.9210
 7868TIP3    H245096   1.913   0.890   4.993 -0.2085 -1.4673  0.3007
 7869TIP3   OH245097   3.553   5.192  15.856 -0.3299 -0.0739 -0.1944
 7869TIP3    H145098   3.629   5.174  15.912 -1.5246  0.2635  1.6387
 7869TIP3    H245099   3.522   5.105  15.829  0.1866 -0.2480 -0.2347
 7870TIP3   OH245100   6.232   5.785   4.559 -0.1602  0.3844 -0.1388
 7870TIP3    H145101   6.145   5.749   4.579 -0.0134 -0.2318 -0.5672
 7870TIP3    H245102   6.281   5.775   4.640 -0.2057 -0.1550 -0.1722
 7871TIP3   OH245103   5.273   4.003   4.176 -0.1117  0.0082  0.0131
 7871TIP3    H145104   5.188   4.036   4.145 -0.3595 -0.1075  0.5633
 7871TIP3    H245105   5.296   3.934   4.113  0.1288  0.8006 -0.8028
 7872TIP3   OH245106   5.162   2.203   2.729  0.0469  0.9162 -0.0249
 7872TIP3    H145107   5.073   2.171   2.740 -0.5382  2.7152  0.9323
 7872TIP3    H245108   5.216   2.143   2.781 -0.8153  0.6762  0.6087
 7873TIP3   OH245109   1.442   3.412   1.066  0.0035 -0.4320 -0.4660
 7873TIP3    H145110   1.353   3.445   1.077  0.6712  1.8143 -1.2486
 7873TIP3    H245111   1.432   3.317   1.063 -2.1584 -0.3344  1.0965
 7874TIP3   OH245112   1.502   6.236   2.576  0.2996 -0.2077 -0.2844
 7874TIP3    H145113   1.573   6.172   2.582  0.5177  0.1441  2.5096
 7874TIP3    H245114   1.545   6.321   2.578 -0.1205  0.0049  0.9547
 7875TIP3   OH245115   4.047   0.230  17.232  0.0405  0.5280 -0.2310
 7875TIP3    H145116   3.990   0.198  17.301 -0.3220  1.3009 -0.1680
 7875TIP3    H245117   4.004   0.308  17.198  0.3190  0.2902 -1.1855
 7876TIP3   OH245118   4.088   3.481  13.643  0.0441 -1.2761 -0.1503
 7876TIP3    H145119   4.119   3.549  13.703  0.2145  1.2390 -2.8306
 7876TIP3    H245120   4.168   3.450  13.600 -0.2480 -1.7158 -0.3755
 7877TIP3   OH245121   5.745   3.017   5.523  0.5159  0.7126 -0.0941
 7877TIP3    H145122   5.828   2.989   5.485  0.5231 -0.1990  0.5594
 7877TIP3    H245123   5.749   2.988   5.614 -0.8387 -0.0669 -0.2481
 7878TIP3   OH245124   5.596   2.294   5.255  0.1541 -0.2807 -0.0128
 7878TIP3    H145125   5.655   2.285   5.330 -0.1906 -0.2293  0.2683
 7878TIP3    H245126   5.616   2.219   5.199 -2.3472 -2.6922  2.0455
 7879TIP3   OH245127   6.046   2.212   2.698 -0.1245 -0.2347 -0.1100
 7879TIP3    H145128   6.031   2.227   2.791  0.8506  2.8724 -0.3356
 7879TIP3    H245129   5.964   2.237   2.656 -0.5064 -1.4694 -0.1237
 7880TIP3   OH245130   1.479   6.459   5.173  0.1557  0.3974  0.5935
 7880TIP3    H145131   1.457   6.516   5.248  1.6586  0.0837  1.2967
 7880TIP3    H245132   1.522   6.518   5.110  2.7605 -0.0826  1.7991
 7881TIP3   OH245133   0.805   2.041  16.150  0.2367  0.6696  0.0232
 7881TIP3    H145134   0.851   2.019  16.069  0.6781 -0.8809  0.6632
 7881TIP3    H245135   0.831   1.973  16.212 -2.2992  0.1654  0.6507
 7882TIP3   OH245136   5.884   5.693  12.867  0.4271  0.1249 -0.3092
 7882TIP3    H145137   5.895   5.647  12.950 -1.0012  0.9200  0.3667
 7882TIP3    H245138   5.893   5.786  12.891  0.6899  0.3257 -1.1693
 7883TIP3   OH245139   4.423   3.752  13.558  0.3107  0.4208  0.2326
 7883TIP3    H145140   4.443   3.665  13.592 -0.9885  0.2816  0.6952
 7883TIP3    H245141   4.340   3.776  13.600 -1.3532  0.3000 -2.6749
 7884TIP3   OH245142   1.188   4.619  11.560 -0.2161 -0.4069  0.0866
 7884TIP3    H145143   1.129   4.687  11.526 -0.4491 -1.2598 -1.3128
 7884TIP3    H245144   1.252   4.667  11.612 -1.0225  0.7590  0.0534
 7885TIP3   OH245145   3.249   2.141  15.171 -0.1630 -0.2330 -0.1576
 7885TIP3    H145146   3.330   2.145  15.120 -0.0049 -2.2589 -0.1605
 7885TIP3    H245147   3.180   2.159  15.108  0.1190 -1.4315 -0.8338
 7886TIP3   OH245148   6.318   1.763   1.387  0.1569  0.0753  0.0568
 7886TIP3    H145149   6.228   1.765   1.419  0.0700  0.3207 -0.1995
 7886TIP3    H245150   6.344   1.671   1.394 -0.7508 -0.3615 -1.5919
 7887TIP3   OH245151   5.787   1.488   2.800  0.1631  0.5875  0.0297
 7887TIP3    H145152   5.745   1.566   2.764 -1.8856 -1.1187 -1.6172
 7887TIP3    H245153   5.713   1.430   2.822  1.5936 -0.8520  1.2584
 7888TIP3   OH245154   5.115   4.916   1.415 -0.3301  0.0358  0.0722
 7888TIP3    H145155   5.096   4.981   1.482  2.6446 -0.3987  1.4997
 7888TIP3    H245156   5.200   4.941   1.380 -0.4896 -1.4148 -1.4816
 7889TIP3   OH245157   3.349   6.566   5.086 -0.8113  0.4160 -0.4194
 7889TIP3    H145158   3.277   6.508   5.058 -0.4303 -0.3267  0.1287
 7889TIP3    H245159   3.347   6.563   5.181 -0.0525  0.3909 -0.3985
 7890TIP3   OH245160   4.178   1.970  14.923  0.7953 -0.0151  0.4560
 7890TIP3    H145161   4.090   1.997  14.948  1.2536 -0.7998  3.3415
 7890TIP3    H245162   4.165   1.907  14.852 -0.7912  1.3270 -0.4978
 7891TIP3   OH245163   6.450   5.665  11.056 -0.5935  0.6987  0.2280
 7891TIP3    H145164   6.518   5.732  11.054 -1.7060  1.8570 -1.5389
 7891TIP3    H245165   6.462   5.616  10.975  0.6177 -1.8010  1.7647
 7892TIP3   OH245166   0.886   6.728   1.090 -0.0551  0.7289 -0.9358
 7892TIP3    H145167   0.958   6.755   1.033  0.2695 -0.0635 -0.9101
 7892TIP3    H245168   0.833   6.670   1.035  1.1246 -1.3507 -0.0195
 7893TIP3   OH245169   6.589   0.852  16.768  0.6820  0.3770  0.4974
 7893TIP3    H145170   6.664   0.897  16.806  1.6138 -0.6378 -0.0794
 7893TIP3    H245171   6.587   0.881  16.677 -1.0843  2.2123  1.0501
 7894TIP3   OH245172   3.135   5.155  15.223  0.3160 -0.2746 -0.1202
 7894TIP3    H145173   3.209   5.104  15.254 -0.9228 -2.0158  0.1200
 7894TIP3    H245174   3.109   5.112  15.141 -1.6440 -0.9835  0.8171
 7895TIP3   OH245175   4.221   3.825  10.620 -0.2340  0.5660 -0.0926
 7895TIP3    H145176   4.242   3.892  10.555  0.5208  1.0551  0.6435
 7895TIP3    H245177   4.305   3.791  10.648 -0.4574 -4.3207 -3.9876
 7896TIP3   OH245178   2.321   2.697  11.581 -0.8854  0.7534  0.2468
 7896TIP3    H145179   2.340   2.650  11.661  0.9964  0.3691 -0.3777
 7896TIP3    H245180   2.270   2.636  11.528  2.0381 -0.9429 -0.8072
 7897TIP3   OH245181   5.730   2.849  14.793  0.3435  0.1386  0.3906
 7897TIP3    H145182   5.826   2.858  14.791  0.4089  0.0091  1.7994
 7897TIP3    H245183   5.712   2.802  14.875 -0.7395 -2.5997 -1.3086
 7898TIP3   OH245184   3.579   4.720  17.064  0.1988  0.0597  0.3833
 7898TIP3    H145185   3.570   4.660  17.138 -0.3507  0.8819  1.0095
 7898TIP3    H245186   3.528   4.797  17.089 -0.6875  0.0454 -1.1931
 7899TIP3   OH245187   4.080   0.502  14.605  0.3722  0.0974 -0.1527
 7899TIP3    H145188   4.078   0.554  14.526  2.5630  0.3615 -0.0748
 7899TIP3    H245189   4.167   0.517  14.643 -0.0350 -1.2478  1.4621
 7900TIP3   OH245190   5.096   5.267  17.057 -0.4968  0.5218  0.3798
 7900TIP3    H145191   5.004   5.289  17.044 -0.4468  0.3708 -0.2529
 7900TIP3    H245192   5.137   5.285  16.972 -0.0607 -0.0080  0.4725
 7901TIP3   OH245193   2.978   6.635   4.148  0.3780 -0.4317  0.0435
 7901TIP3    H145194   3.007   6.725   4.134 -1.8637  0.3075 -0.1738
 7901TIP3    H245195   3.007   6.614   4.237 -1.0501  1.3521  0.9932
 7902TIP3   OH245196   1.723   2.804  16.817 -0.2042 -0.0852 -0.0821
 7902TIP3    H145197   1.651   2.861  16.843 -1.2778 -1.0353 -0.8989
 7902TIP3    H245198   1.751   2.837  16.732  0.1575  0.1115  0.1087
 7903TIP3   OH245199   4.220   3.444  15.131 -0.3037 -0.1590 -0.3819
 7903TIP3    H145200   4.137   3.485  15.155  0.4391  1.6927 -0.8254
 7903TIP3    H245201   4.280   3.469  15.202  0.5881  1.0096 -1.5025
 7904TIP3   OH245202   3.422   1.265   0.183  0.5170  0.2964 -0.4943
 7904TIP3    H145203   3.375   1.343   0.213  0.7216 -0.0644  0.8318
 7904TIP3    H245204   3.421   1.206   0.258  0.4336 -0.9569 -1.4513
 7905TIP3   OH245205   4.267   0.130   0.862  0.1052  1.1225 -0.2904
 7905TIP3    H145206   4.286   0.222   0.877 -0.9222  1.5259 -1.3168
 7905TIP3    H245207   4.211   0.129   0.785 -0.0578 -0.3516 -0.1889
 7906TIP3   OH245208   6.105   1.481   4.542 -0.6747  0.1477 -0.3085
 7906TIP3    H145209   6.144   1.447   4.461 -0.8283 -1.0046  0.0811
 7906TIP3    H245210   6.017   1.507   4.517 -0.5084  0.3990 -0.6450
 7907TIP3   OH245211   3.620   6.422  11.701  0.2719  0.0309 -0.1289
 7907TIP3    H145212   3.715   6.430  11.691  0.0100  0.4094 -3.5512
 7907TIP3    H245213   3.607   6.335  11.740  1.9946  0.2678  1.0862
 7908TIP3   OH245214   0.043   4.868  14.059 -0.9043 -0.4402 -0.2314
 7908TIP3    H145215  -0.045   4.829  14.059 -0.9172 -0.4586 -1.3655
 7908TIP3    H245216   0.082   4.836  13.978 -0.3754  0.7238 -0.4491
 7909TIP3   OH245217   4.558   0.780  12.270 -0.1448 -0.6396 -0.2613
 7909TIP3    H145218   4.558   0.755  12.362 -2.1432 -0.2584 -0.1085
 7909TIP3    H245219   4.647   0.808  12.252  0.6183 -2.0250  1.1785
 7910TIP3   OH245220   5.166   0.524   3.426  0.4367  0.4299  0.0855
 7910TIP3    H145221   5.136   0.433   3.424 -1.0390  0.7854  2.3760
 7910TIP3    H245222   5.261   0.518   3.436  0.4383 -0.8203 -0.4479
 7911TIP3   OH245223   2.040   1.783  14.585  0.0897  0.4506  0.6810
 7911TIP3    H145224   1.960   1.739  14.613  0.2193 -1.4392 -1.5682
 7911TIP3    H245225   2.010   1.861  14.538 -0.2311  1.7257  2.8939
 7912TIP3   OH245226   4.732   4.948  13.561 -0.3985  0.1728  0.0024
 7912TIP3    H145227   4.759   4.930  13.652 -0.9276 -1.2281 -0.0930
 7912TIP3    H245228   4.637   4.943  13.563 -0.4121  0.1498 -0.6256
 7913TIP3   OH245229   1.038   2.639  11.237  0.0477  0.4759  0.1025
 7913TIP3    H145230   0.967   2.617  11.298  0.9023  0.2774  1.0584
 7913TIP3    H245231   1.076   2.719  11.273  0.8590  0.1013  0.0928
 7914TIP3   OH245232   0.050   3.387  12.893  0.6224 -0.2722  0.4909
 7914TIP3    H145233   0.126   3.414  12.945 -1.3483  1.3877  2.7166
 7914TIP3    H245234  -0.019   3.371  12.957 -1.2658 -0.5997 -1.5041
 7915TIP3   OH245235   6.237   0.105  12.663 -0.0977 -0.2942 -0.0968
 7915TIP3    H145236   6.300   0.169  12.628 -0.6043  0.6884  0.7313
 7915TIP3    H245237   6.278   0.074  12.744  0.0449 -0.8774 -0.3846
 7916TIP3   OH245238   6.607   2.579  12.552  0.0286  0.0182 -0.1539
 7916TIP3    H145239   6.665   2.582  12.628  0.5161 -3.3078 -0.2504
 7916TIP3    H245240   6.519   2.577  12.590  0.1202  1.1866  0.1605
 7917TIP3   OH245241   6.157   3.734  16.383 -0.0093  0.5417 -0.0422
 7917TIP3    H145242   6.117   3.820  16.400  1.3068  1.4288 -1.2325
 7917TIP3    H245243   6.127   3.710  16.295  2.3657  1.4768 -1.1970
 7918TIP3   OH245244   0.358   6.280  15.404  0.0198  0.0894 -0.1350
 7918TIP3    H145245   0.348   6.196  15.450  0.5847  1.0874  1.9276
 7918TIP3    H245246   0.391   6.340  15.471  1.5869  1.4913 -2.0463
 7919TIP3   OH245247   4.631   0.769  14.154 -0.1242 -0.0312  0.1185
 7919TIP3    H145248   4.714   0.762  14.200  1.1436 -0.7371 -2.1049
 7919TIP3    H245249   4.589   0.846  14.191  1.8349  0.7597  0.8239
 7920TIP3   OH245250   6.360   2.257   4.151 -0.0985 -0.3468 -0.0506
 7920TIP3    H145251   6.401   2.268   4.066 -1.8249 -0.8770 -0.9985
 7920TIP3    H245252   6.267   2.274   4.136 -0.2676  0.9890  2.0367
 7921TIP3   OH245253   4.568   0.331   0.318  0.0725  0.3758  1.1351
 7921TIP3    H145254   4.546   0.239   0.334 -0.3568  0.1993 -0.3033
 7921TIP3    H245255   4.645   0.347   0.372  2.1265 -1.7777 -0.8846
 7922TIP3   OH245256   2.406   5.598  11.994 -0.0808  0.4027 -0.1892
 7922TIP3    H145257   2.396   5.505  12.014 -0.3308  0.8060  1.6690
 7922TIP3    H245258   2.497   5.617  12.014  0.1826  0.4140 -1.3136
 7923TIP3   OH245259   4.415   3.286   0.605  0.1193  0.1030 -0.4926
 7923TIP3    H145260   4.346   3.226   0.631 -0.8280  0.7635 -1.4047
 7923TIP3    H245261   4.491   3.230   0.586 -1.1339 -0.9616 -2.6599
 7924TIP3   OH245262   4.636   1.382  12.329  0.1371  0.3031 -0.0440
 7924TIP3    H145263   4.542   1.379  12.347  0.3683 -1.5110  1.1402
 7924TIP3    H245264   4.642   1.393  12.234 -1.2973 -1.0772 -0.3405
 7925TIP3   OH245265   5.078   4.004   2.911 -0.1014  0.1005  0.5019
 7925TIP3    H145266   5.029   4.086   2.913 -0.4295 -0.0902  0.4757
 7925TIP3    H245267   5.014   3.939   2.880  0.7691  0.2509 -1.7958
 7926TIP3   OH245268   5.594   4.335   0.995  0.2749 -0.7511  0.3131
 7926TIP3    H145269   5.676   4.343   0.946 -0.8696 -0.3821 -1.6434
 7926TIP3    H245270   5.610   4.264   1.057  2.3498 -0.1009  0.5986
 7927TIP3   OH245271   5.968   5.730  14.014 -0.1052 -0.4249 -0.4206
 7927TIP3    H145272   6.040   5.751  13.955  1.5987  1.0173  2.0149
 7927TIP3    H245273   5.916   5.810  14.017  0.3926 -0.1312  0.7621
 7928TIP3   OH245274   1.085   3.772   1.089  0.6105 -0.3465  0.1522
 7928TIP3    H145275   1.071   3.749   1.180  1.6380 -0.1353  0.3710
 7928TIP3    H245276   0.996   3.779   1.052  0.1859 -0.2155  1.1746
 7929TIP3   OH245277   5.258   5.299  13.796 -0.2071  0.2490 -0.4151
 7929TIP3    H145278   5.226   5.209  13.797 -1.5456  0.7097  0.4344
 7929TIP3    H245279   5.207   5.344  13.864  0.2917  1.6931 -0.9492
 7930TIP3   OH245280   5.789   4.470   3.521 -0.7136  0.0424 -0.0544
 7930TIP3    H145281   5.824   4.505   3.603  1.0221  1.4498 -1.3139
 7930TIP3    H245282   5.839   4.515   3.453 -2.3377 -0.8248 -1.9096
 7931TIP3   OH245283   1.559   5.491  14.248 -0.2218 -1.0219  0.2687
 7931TIP3    H145284   1.603   5.569  14.214 -1.0794  0.2649  1.9629
 7931TIP3    H245285   1.533   5.515  14.337  0.5634 -3.6860  1.3029
 7932TIP3   OH245286   1.851   0.685   0.124 -0.1655 -0.4154  0.4231
 7932TIP3    H145287   1.888   0.762   0.081  0.5396 -0.5883  0.7108
 7932TIP3    H245288   1.855   0.616   0.057  1.2097 -0.7645  0.8316
 7933TIP3   OH245289   2.042   2.516  11.954  0.1727 -0.2021  0.4690
 7933TIP3    H145290   2.104   2.470  12.011  0.2705 -0.8928 -0.1717
 7933TIP3    H245291   1.984   2.564  12.013  0.5077 -0.6041  1.1246
 7934TIP3   OH245292   6.263   4.337   4.373  0.1449 -0.0078  0.1202
 7934TIP3    H145293   6.307   4.405   4.323 -1.2704  1.5483  0.8825
 7934TIP3    H245294   6.170   4.358   4.365 -0.2632 -1.2411  1.2645
 7935TIP3   OH245295   4.482   4.912  11.904 -0.7173 -0.0478 -0.0631
 7935TIP3    H145296   4.511   4.985  11.849  0.2820 -1.2839 -1.2404
 7935TIP3    H245297   4.421   4.952  11.966  0.6755  1.9968  0.0980
 7936TIP3   OH245298   2.356   5.466  12.769  0.0745  0.3130  0.5928
 7936TIP3    H145299   2.414   5.541  12.759 -0.4681  0.5965 -0.6821
 7936TIP3    H245300   2.327   5.469  12.860 -0.2040  1.8539  0.4780
 7937TIP3   OH245301   6.282   5.266  11.695  0.5797  0.2803 -0.2406
 7937TIP3    H145302   6.328   5.261  11.778  0.8950 -1.1680 -0.4698
 7937TIP3    H245303   6.241   5.180  11.685 -1.3351  1.1766 -0.5369
 7938TIP3   OH245304   5.349   5.593   0.548  0.1699 -0.4425  0.0804
 7938TIP3    H145305   5.290   5.668   0.551  0.5339 -0.1277 -0.4226
 7938TIP3    H245306   5.425   5.620   0.600  0.1750 -0.5735  0.1415
 7939TIP3   OH245307   4.864   2.039   3.806 -0.5484 -0.5167  0.5422
 7939TIP3    H145308   4.823   1.957   3.779 -0.2271 -1.3205  2.3669
 7939TIP3    H245309   4.945   2.013   3.849  0.8625  0.9306 -1.1054
 7940TIP3   OH245310   1.718   4.926  13.301 -0.1313 -0.4510  0.3494
 7940TIP3    H145311   1.785   4.871  13.341  0.2314 -1.1215 -1.1400
 7940TIP3    H245312   1.691   4.879  13.222 -0.9528  0.7471 -0.1169
 7941TIP3   OH245313   0.410   2.135   3.570  0.0946 -0.2504  0.2100
 7941TIP3    H145314   0.440   2.060   3.520  0.4809 -0.0493  0.1417
 7941TIP3    H245315   0.479   2.201   3.560 -0.5792  0.3949 -0.3531
 7942TIP3   OH245316   2.146   2.137   0.752 -0.1615  0.2243 -0.2857
 7942TIP3    H145317   2.131   2.043   0.745 -0.0710  0.0679  1.2382
 7942TIP3    H245318   2.080   2.168   0.815 -0.0931  1.1582 -0.6480
 7943TIP3   OH245319   3.303   2.715   5.826  0.1827 -0.1897 -0.0746
 7943TIP3    H145320   3.260   2.654   5.886 -0.1933  1.3839  1.3216
 7943TIP3    H245321   3.372   2.756   5.878 -0.0161  1.0632 -0.7566
 7944TIP3   OH245322   2.208   3.392  15.264 -0.1092  0.7228  0.1291
 7944TIP3    H145323   2.137   3.375  15.326  0.1954  0.4504  0.4005
 7944TIP3    H245324   2.259   3.462  15.305 -0.6041  1.3971 -0.3781
 7945TIP3   OH245325   5.215   6.657   0.731  0.5458 -0.0002 -0.1756
 7945TIP3    H145326   5.237   6.606   0.653  1.9839 -0.5042  0.5236
 7945TIP3    H245327   5.246   6.604   0.804 -1.0073  0.3506  0.7686
 7946TIP3   OH245328   2.937   1.982  11.865  0.0442  0.1169 -0.5143
 7946TIP3    H145329   2.895   2.068  11.869  1.5111  0.8467  0.1222
 7946TIP3    H245330   2.867   1.920  11.882 -0.8935  1.2374 -0.1576
 7947TIP3   OH245331   5.704   3.698  12.331 -0.2571  0.2537 -0.2805
 7947TIP3    H145332   5.743   3.751  12.401  1.0818 -0.4603 -0.4470
 7947TIP3    H245333   5.642   3.757  12.288 -0.8450  0.8303  1.2556
 7948TIP3   OH245334   6.452   4.797   2.975  0.6692 -0.1511 -0.0365
 7948TIP3    H145335   6.435   4.889   2.956 -1.1862 -0.2440  0.9634
 7948TIP3    H245336   6.542   4.796   3.008  0.3904  1.4842  0.8936
 7949TIP3   OH245337   6.049   4.428  13.543  0.0735  0.2126  0.3177
 7949TIP3    H145338   5.957   4.408  13.527  0.6827 -1.7861 -1.0279
 7949TIP3    H245339   6.086   4.346  13.575  1.7586  0.3842 -1.0410
 7950TIP3   OH245340   3.656   4.128   3.577  0.2882 -0.8512 -0.0882
 7950TIP3    H145341   3.687   4.048   3.534 -0.2546 -0.5005 -1.1633
 7950TIP3    H245342   3.697   4.126   3.664  0.6064 -2.0882 -0.2456
 7951TIP3   OH245343   6.320   0.585  14.425  0.1386 -0.0128 -0.0375
 7951TIP3    H145344   6.339   0.587  14.518 -1.3267 -1.7550  0.3655
 7951TIP3    H245345   6.266   0.507  14.413  1.6579 -0.8195 -2.6094
 7952TIP3   OH245346   3.190   0.624   4.522  0.4559  0.2774 -0.2583
 7952TIP3    H145347   3.195   0.601   4.430 -1.4991 -0.2889 -0.2608
 7952TIP3    H245348   3.103   0.596   4.550  1.1021  0.1318  1.8446
 7953TIP3   OH245349   5.314   0.064   0.343  0.5331  0.0732 -0.0080
 7953TIP3    H145350   5.241   0.091   0.399  1.0897 -0.5147  1.0246
 7953TIP3    H245351   5.292   0.100   0.257 -0.3980  0.9013  0.5485
 7954TIP3   OH245352   5.510   1.693  13.187  0.5097 -0.3686  0.4208
 7954TIP3    H145353   5.509   1.696  13.091  1.3436  0.7107  0.4146
 7954TIP3    H245354   5.579   1.630  13.208  0.0435 -0.9128  0.3115
 7955TIP3   OH245355   2.443   5.900  13.937  0.5415  0.2062  0.2904
 7955TIP3    H145356   2.453   5.888  14.031  0.1514  0.5577  0.3799
 7955TIP3    H245357   2.432   5.994  13.926 -0.0347  0.1064 -0.0421
 7956TIP3   OH245358   4.822   0.305   1.188 -0.0567 -0.7706 -0.1309
 7956TIP3    H145359   4.856   0.391   1.215 -0.8031 -0.3098 -0.6182
 7956TIP3    H245360   4.900   0.256   1.161  0.2852  0.1517 -0.8924
 7957TIP3   OH245361   4.646   0.649  12.937  0.2236  0.0107  0.1909
 7957TIP3    H145362   4.623   0.556  12.937 -1.8492  0.4607  1.3388
 7957TIP3    H245363   4.639   0.674  12.845  0.6014 -0.9201 -0.1057
 7958TIP3   OH245364   4.552   6.617  15.438 -0.0163 -0.7358 -0.2689
 7958TIP3    H145365   4.609   6.637  15.512  0.5503 -0.3851 -0.7901
 7958TIP3    H245366   4.502   6.698  15.423 -0.7269 -1.0714  0.2448
 7959TIP3   OH245367   5.093   0.852  14.768  0.6304 -0.0823  0.0592
 7959TIP3    H145368   5.003   0.883  14.773  0.1183 -1.2369 -1.3681
 7959TIP3    H245369   5.141   0.907  14.830 -0.9400  0.9283  0.4227
 7960TIP3   OH245370   1.397   1.331   4.625  0.4451  0.1239 -0.4222
 7960TIP3    H145371   1.321   1.286   4.589 -0.4797  0.6653  0.7737
 7960TIP3    H245372   1.364   1.418   4.649  2.2444  1.6395 -2.9703
 7961TIP3   OH245373   0.783   0.111   0.811  0.1451  0.0167  0.6278
 7961TIP3    H145374   0.856   0.141   0.757  0.0899  1.5277  1.3434
 7961TIP3    H245375   0.709   0.105   0.751  0.0463  1.8048  0.5161
 7962TIP3   OH245376   5.992   1.724  13.250  0.1704 -0.1230  0.2499
 7962TIP3    H145377   6.024   1.636  13.268 -1.2204 -0.3220  1.9462
 7962TIP3    H245378   5.974   1.724  13.156  0.9991 -1.3590  0.0709
 7963TIP3   OH245379   3.130   0.894  15.378 -0.2297 -0.5085  0.1781
 7963TIP3    H145380   3.123   0.888  15.473 -0.2897 -2.4255  0.1014
 7963TIP3    H245381   3.200   0.957  15.362  0.4242 -0.8640  1.5306
 7964TIP3   OH245382   4.980   4.806  15.322  0.1574 -0.4184 -0.2256
 7964TIP3    H145383   5.041   4.869  15.284  1.0890 -1.5024 -0.5847
 7964TIP3    H245384   4.904   4.808  15.265 -0.2054  1.0005  0.2625
 7965TIP3   OH245385   4.613   3.386   2.909  0.7743 -0.5059  0.5825
 7965TIP3    H145386   4.645   3.332   2.837  1.2565 -1.8677  1.7933
 7965TIP3    H245387   4.587   3.324   2.977  1.0027  0.7643  1.8801
 7966TIP3   OH245388   1.389   2.691  11.622 -0.2898 -0.2342  0.1789
 7966TIP3    H145389   1.397   2.776  11.666 -1.3322  0.2297 -0.4980
 7966TIP3    H245390   1.295   2.675  11.617 -0.2228 -0.2674 -1.8581
 7967TIP3   OH245391   1.884   3.058   3.644  0.3384 -0.1602  0.2950
 7967TIP3    H145392   1.800   3.034   3.681  0.2679 -2.2692 -1.0486
 7967TIP3    H245393   1.949   3.021   3.704  0.3693  1.8361  1.5611
 7968TIP3   OH245394   3.403   4.012  13.034  0.3144  0.2992 -0.2692
 7968TIP3    H145395   3.404   4.032  12.940  0.2746 -0.1875 -0.3738
 7968TIP3    H245396   3.482   3.961  13.049 -0.0712 -0.2846 -0.1894
 7969TIP3   OH245397   5.033   4.989  10.755 -0.2459  0.0029 -0.2130
 7969TIP3    H145398   4.994   4.903  10.769 -0.8823  0.2392 -0.4379
 7969TIP3    H245399   5.127   4.975  10.761 -0.3832 -0.4994  0.8517
 7970TIP3   OH245400   3.281   1.349   1.444  0.0414  0.2076 -0.3528
 7970TIP3    H145401   3.301   1.258   1.423  0.3867 -0.3540  2.0954
 7970TIP3    H245402   3.349   1.375   1.506 -1.5073  1.2809  0.9901
 7971TIP3   OH245403   4.480   4.034  16.969  0.1059 -0.8280 -0.6306
 7971TIP3    H145404   4.519   3.986  17.042 -0.6852 -0.6058 -0.0442
 7971TIP3    H245405   4.390   4.000  16.963 -0.9758  1.5613  0.7688
 7972TIP3   OH245406   3.041   4.890  16.637  0.2705  0.1376 -0.2227
 7972TIP3    H145407   3.074   4.884  16.548  0.0215  0.1453 -0.3145
 7972TIP3    H245408   3.111   4.935  16.685  0.5772 -0.2267 -0.3218
 7973TIP3   OH245409   2.530   3.062   5.581  0.0820  0.0170  0.3413
 7973TIP3    H145410   2.592   2.988   5.583 -0.1204 -0.1491  1.6001
 7973TIP3    H245411   2.463   3.038   5.645 -1.5312  0.0101 -1.2655
 7974TIP3   OH245412   4.128   2.374  13.271 -0.0534  0.4549 -0.5049
 7974TIP3    H145413   4.186   2.446  13.246 -0.7957  0.3693 -2.6339
 7974TIP3    H245414   4.179   2.295  13.253  0.1263  0.3975  0.2045
 7975TIP3   OH245415   4.279   0.023   0.497  0.3195  0.1552  0.3575
 7975TIP3    H145416   4.214  -0.008   0.434  0.0840  0.1914  0.5791
 7975TIP3    H245417   4.227   0.054   0.572  0.6256 -1.0948  1.1248
 7976TIP3   OH245418   2.296   5.746  10.119 -0.1808 -0.2651 -0.9130
 7976TIP3    H145419   2.215   5.747  10.170  0.2156 -2.3009 -0.1646
 7976TIP3    H245420   2.307   5.654  10.093  2.8968 -0.4930  0.7019
 7977TIP3   OH245421   4.631   2.080  13.208 -0.5496  0.2002 -0.0742
 7977TIP3    H145422   4.700   2.143  13.189  0.0189 -1.0608 -2.6118
 7977TIP3    H245423   4.580   2.121  13.278  0.0251  3.3040 -1.2924
 7978TIP3   OH245424   2.984   3.389   5.913 -0.0529 -0.8910  0.0262
 7978TIP3    H145425   2.899   3.411   5.951 -0.2122 -0.7364 -0.4114
 7978TIP3    H245426   3.022   3.327   5.975 -0.8301 -1.5896 -0.1614
 7979TIP3   OH245427   0.131   2.514   0.260  0.6478  0.0395  1.0338
 7979TIP3    H145428   0.206   2.461   0.287  0.2329 -1.1134  0.0608
 7979TIP3    H245429   0.147   2.531   0.167  0.5784  1.3268  1.2469
 7980TIP3   OH245430   4.955   3.368  12.415 -0.4097 -0.2143 -0.1883
 7980TIP3    H145431   5.018   3.299  12.393  0.1430  0.5149 -0.9388
 7980TIP3    H245432   4.874   3.341  12.373 -0.3808 -0.7495  0.0955
 7981TIP3   OH245433   0.867   6.277  15.453  0.2904  0.6006  0.1079
 7981TIP3    H145434   0.878   6.289  15.547  0.5183  1.0453  0.0264
 7981TIP3    H245435   0.950   6.305  15.415  0.6492 -0.7417 -0.1401
 7982TIP3   OH245436   1.008   0.061  16.957 -0.1339  0.4632  0.4751
 7982TIP3    H145437   1.034   0.017  16.876 -3.7328  1.7881 -1.6627
 7982TIP3    H245438   1.070   0.133  16.966  0.6360  0.0058 -0.8431
 7983TIP3   OH245439   2.914   4.349   1.043 -0.5219 -0.2899  0.3342
 7983TIP3    H145440   2.860   4.388   0.974 -0.3147  0.4204  0.5676
 7983TIP3    H245441   2.915   4.255   1.022 -1.1658 -0.2005 -0.1379
 7984TIP3   OH245442   4.469   3.550  13.173  0.3397 -0.0745  0.3683
 7984TIP3    H145443   4.556   3.510  13.172 -0.2156 -1.3209 -0.3331
 7984TIP3    H245444   4.436   3.538  13.084 -1.3144 -1.4054  1.1018
 7985TIP3   OH245445   5.936   1.940   2.153 -0.3676  0.0482  0.2565
 7985TIP3    H145446   5.919   1.887   2.231 -0.4246 -1.0662 -0.4922
 7985TIP3    H245447   6.015   1.990   2.175  1.1691 -2.1803  0.1259
 7986TIP3   OH245448   4.021   5.613   6.562  0.4112 -0.0609 -0.1191
 7986TIP3    H145449   4.074   5.632   6.640  0.7441  1.4720 -0.7017
 7986TIP3    H245450   3.935   5.650   6.581 -0.1500 -1.4978  0.3285
 7987TIP3   OH245451   3.755   0.743  13.463 -0.0212 -0.2146 -0.1985
 7987TIP3    H145452   3.728   0.722  13.374  2.7025  0.0926 -1.1935
 7987TIP3    H245453   3.763   0.839  13.463 -2.0738  0.0309  1.1107
 7988TIP3   OH245454   1.706   6.466   0.835 -0.2909  0.0092 -0.4056
 7988TIP3    H145455   1.691   6.374   0.816  0.5612 -0.0913 -0.6269
 7988TIP3    H245456   1.618   6.502   0.850 -0.6744 -0.7214 -0.8337
 7989TIP3   OH245457   1.128   3.678  11.789 -0.6588 -0.5378  0.0179
 7989TIP3    H145458   1.192   3.654  11.856 -0.1742 -2.5251 -1.0787
 7989TIP3    H245459   1.132   3.774  11.786  0.5740 -0.4940  1.5791
 7990TIP3   OH245460   1.950   4.355  16.016  0.2115 -0.0155 -0.4739
 7990TIP3    H145461   1.955   4.445  15.983  0.3400 -0.0944 -0.6734
 7990TIP3    H245462   1.920   4.364  16.106  1.3238  0.3089 -0.1164
 7991TIP3   OH245463   2.518   4.865  11.814 -0.2696  0.0145 -0.1625
 7991TIP3    H145464   2.557   4.946  11.847 -0.5127  0.1018 -0.0823
 7991TIP3    H245465   2.505   4.880  11.720  1.9189 -0.8371 -0.6487
 7992TIP3   OH245466   6.249   3.921  16.072  0.5124 -0.0210  0.0936
 7992TIP3    H145467   6.333   3.961  16.049 -0.8188  3.1359  0.1112
 7992TIP3    H245468   6.213   3.891  15.989  0.9502  0.1649 -0.1661
 7993TIP3   OH245469   2.566   5.662  15.275  0.7874 -0.1057 -0.2396
 7993TIP3    H145470   2.495   5.599  15.288  0.7058 -0.0130 -0.2303
 7993TIP3    H245471   2.531   5.724  15.210  2.0452 -1.9156 -2.8344
 7994TIP3   OH245472   4.876   2.693   0.172 -0.6608 -0.4000 -0.4505
 7994TIP3    H145473   4.956   2.653   0.208 -0.3034  0.5035 -0.1957
 7994TIP3    H245474   4.897   2.711   0.080  0.0467  1.2952 -0.0024
 7995TIP3   OH245475   5.623   5.342  13.853  0.0704 -0.0432 -0.0406
 7995TIP3    H145476   5.673   5.414  13.893  1.6409 -1.1844  0.1234
 7995TIP3    H245477   5.599   5.286  13.927 -0.1676 -0.2718 -0.2927
 7996TIP3   OH245478   1.177   2.554  15.751  0.4151 -0.0226 -0.1417
 7996TIP3    H145479   1.109   2.494  15.781  0.9598 -0.9627 -0.7432
 7996TIP3    H245480   1.228   2.574  15.829  0.0718 -0.1112  0.1112
 7997TIP3   OH245481   5.917   5.288   3.859  0.3702  0.3165 -0.7882
 7997TIP3    H145482   5.879   5.355   3.915 -1.0032 -0.7257 -0.4097
 7997TIP3    H245483   6.008   5.315   3.846 -0.3879  2.7284 -1.4452
 7998TIP3   OH245484   3.063   0.529   2.790  0.8240  0.6037 -0.5343
 7998TIP3    H145485   3.145   0.545   2.836 -0.6258 -1.0196  3.0002
 7998TIP3    H245486   3.013   0.610   2.802  1.2964  1.0490 -1.4218
 7999TIP3   OH245487   5.422   0.303   1.871  0.3212  0.0146 -0.3372
 7999TIP3    H145488   5.362   0.241   1.914  0.2840 -0.1577 -0.6291
 7999TIP3    H245489   5.504   0.293   1.918 -0.2266  1.2340  0.9582
 8000TIP3   OH245490   0.333   1.318   5.483 -0.5821 -0.0462  0.0339
 8000TIP3    H145491   0.385   1.360   5.414 -1.6922  2.3727  0.5556
 8000TIP3    H245492   0.390   1.321   5.560 -0.2330 -0.5829 -0.1949
 8001TIP3   OH245493   3.994   0.911   6.184  0.5326 -0.5057 -0.1013
 8001TIP3    H145494   3.951   0.883   6.265 -1.3709  0.3127 -0.7652
 8001TIP3    H245495   3.990   1.006   6.187  0.4505 -0.4670 -1.1394
 8002TIP3   OH245496   5.200   0.565   2.620  0.0370  0.0122  0.6830
 8002TIP3    H145497   5.216   0.630   2.689  0.4922  1.4846 -0.7328
 8002TIP3    H245498   5.287   0.550   2.581  0.1309 -2.3092  1.6634
 8003TIP3   OH245499   5.613   5.902  14.783  0.4330  0.5207 -0.5698
 8003TIP3    H145500   5.563   5.915  14.864  0.5512  1.2819 -0.6060
 8003TIP3    H245501   5.634   5.809  14.783 -0.3068  0.3393 -0.1583
 8004TIP3   OH245502   5.575   5.939   2.190  0.9626 -0.2589 -0.3481
 8004TIP3    H145503   5.650   5.951   2.248  0.0860  0.8974  0.6031
 8004TIP3    H245504   5.517   6.012   2.210 -0.6300 -1.3457 -0.7324
 8005TIP3   OH245505   2.002   3.506  12.399 -0.5986  0.4453  0.1275
 8005TIP3    H145506   1.973   3.435  12.456  1.0868  0.0478  0.5530
 8005TIP3    H245507   1.957   3.491  12.316 -1.8868  0.1310  0.8663
 8006TIP3   OH245508   6.629   6.635   0.577 -0.3713  0.1393  0.1608
 8006TIP3    H145509   6.600   6.694   0.508 -2.3078 -0.5313  0.3296
 8006TIP3    H245510   6.622   6.548   0.538  2.0549 -0.0549  0.0468
 8007TIP3   OH245511   2.601   2.842  11.106 -0.2893  0.2854  0.7983
 8007TIP3    H145512   2.644   2.808  11.185 -1.5112 -0.7665  1.0462
 8007TIP3    H245513   2.566   2.764  11.063  2.5706  0.4909 -2.2377
 8008TIP3   OH245514   2.473   4.149  15.074 -0.7945 -0.2262  0.6472
 8008TIP3    H145515   2.541   4.193  15.126 -1.2428  1.6801 -0.3142
 8008TIP3    H245516   2.393   4.198  15.092 -1.4758 -1.0961  0.0747
 8009TIP3   OH245517   6.529   0.585  16.824  0.3144 -0.3850  0.2859
 8009TIP3    H145518   6.510   0.594  16.918  1.7406  0.8529  0.5025
 8009TIP3    H245519   6.571   0.668  16.801  1.6093 -1.3806 -1.0387
 8010TIP3   OH245520   4.553   5.041  13.088  0.0628  0.8014 -0.8368
 8010TIP3    H145521   4.540   5.092  13.168 -0.5710 -1.8881  0.9280
 8010TIP3    H245522   4.646   5.052  13.068  0.3648  1.1197  0.6183
 8011TIP3   OH245523   5.802   4.805  17.044  0.0692  0.3573  0.0603
 8011TIP3    H145524   5.893   4.796  17.016  0.3191  1.1622  0.6019
 8011TIP3    H245525   5.795   4.748  17.121 -0.5610 -1.6764 -1.3862
 8012TIP3   OH245526   6.807   1.422   0.234  0.2757  0.0232 -0.3171
 8012TIP3    H145527   6.837   1.361   0.301  0.5554  0.1839 -0.2958
 8012TIP3    H245528   6.717   1.394   0.215  0.3729 -0.3456 -0.2500
 8013TIP3   OH245529   4.494   0.235  13.220 -0.1214  0.0900 -0.2104
 8013TIP3    H145530   4.418   0.273  13.263 -0.6189  0.1084 -1.0791
 8013TIP3    H245531   4.458   0.185  13.146  0.6853 -0.1425 -0.4633
 8014TIP3   OH245532   4.613   3.426  16.682 -0.2390  0.6125  0.0687
 8014TIP3    H145533   4.618   3.364  16.755  0.1582 -1.0222 -1.2655
 8014TIP3    H245534   4.550   3.492  16.710 -0.2252 -0.0586  1.8048
 8015TIP3   OH245535   4.205   0.801   6.036  0.1411  0.8073 -0.1793
 8015TIP3    H145536   4.131   0.855   6.063 -0.0954  1.3620 -1.8567
 8015TIP3    H245537   4.279   0.834   6.087  0.1856  3.2950 -1.6999
 8016TIP3   OH245538   2.523   2.203   2.810 -0.2429  0.2208  0.0025
 8016TIP3    H145539   2.453   2.250   2.765  0.6137  1.8771  0.3183
 8016TIP3    H245540   2.562   2.147   2.742 -0.4708  0.9308 -0.7317
 8017TIP3   OH245541   4.375   1.373   4.739 -0.4602 -0.3983 -0.6222
 8017TIP3    H145542   4.308   1.352   4.804  1.2785  1.7325  2.0746
 8017TIP3    H245543   4.442   1.306   4.751 -0.5695 -0.5578 -0.9016
 8018TIP3   OH245544   0.960   5.206   3.514  0.3562  0.2472 -0.0341
 8018TIP3    H145545   0.986   5.294   3.487 -0.3567  0.6993  0.7282
 8018TIP3    H245546   0.994   5.197   3.602  0.0869 -0.0950  0.0359
 8019TIP3   OH245547   0.857   3.084  17.226 -0.1665  0.2026 -0.3820
 8019TIP3    H145548   0.862   2.994  17.192 -0.4337  0.5664 -1.4198
 8019TIP3    H245549   0.780   3.121  17.184 -0.3703  0.7646  0.4590
 8020TIP3   OH245550   6.615   5.815  13.690  0.1075 -0.7075  0.3309
 8020TIP3    H145551   6.597   5.740  13.746  0.1836  0.0886  1.4544
 8020TIP3    H245552   6.529   5.846  13.663 -0.0168 -0.0884  1.3911
 8021TIP3   OH245553   3.134   3.705  13.910  0.0541  0.8041  0.1089
 8021TIP3    H145554   3.230   3.712  13.904  0.0803  0.0521 -0.6235
 8021TIP3    H245555   3.120   3.657  13.992  0.2873  1.2624  0.4184
 8022TIP3   OH245556   2.109   3.050  12.069 -0.8018 -0.2141  0.1596
 8022TIP3    H145557   2.113   3.057  11.973  2.2325  1.6952  0.2889
 8022TIP3    H245558   2.103   2.956  12.085 -1.7249 -0.5752 -1.8747
 8023TIP3   OH245559   3.837   5.859  15.361  0.2620  0.0675 -0.6459
 8023TIP3    H145560   3.906   5.840  15.425 -1.3522 -0.0887  1.1177
 8023TIP3    H245561   3.771   5.792  15.377 -0.6577  0.6771 -1.7662
 8024TIP3   OH245562   2.484   2.893  13.947 -0.0989  0.9798 -0.6017
 8024TIP3    H145563   2.491   2.891  14.042 -1.1788  2.1119 -0.4683
 8024TIP3    H245564   2.391   2.881  13.929  0.2386 -0.3664 -1.5870
 8025TIP3   OH245565   4.209   6.553   5.222  0.1281  0.5502  0.2158
 8025TIP3    H145566   4.208   6.615   5.149  0.1706  0.3627  0.0525
 8025TIP3    H245567   4.136   6.579   5.278  1.1272  1.7448  1.0019
 8026TIP3   OH245568   4.412   0.623  15.065  0.6234  0.8221 -0.4713
 8026TIP3    H145569   4.341   0.574  15.107  0.7263  0.4813 -0.6914
 8026TIP3    H245570   4.367   0.682  15.005  0.4415  1.6934  0.4849
 8027TIP3   OH245571   1.341   5.848  14.119  0.2042  0.2913 -0.1845
 8027TIP3    H145572   1.356   5.760  14.084  1.1621  0.8245 -1.1858
 8027TIP3    H245573   1.337   5.904  14.041 -1.9480  0.9415  0.3394
 8028TIP3   OH245574   1.447   1.684  13.057  0.3010 -0.0824  0.1386
 8028TIP3    H145575   1.531   1.658  13.019  0.2158 -1.9139  1.1010
 8028TIP3    H245576   1.457   1.665  13.150 -2.6409 -4.8574 -0.2183
 8029TIP3   OH245577   4.997   2.534  15.889  0.2604 -0.5884 -0.3174
 8029TIP3    H145578   4.977   2.446  15.923  1.8501 -1.0733 -0.5288
 8029TIP3    H245579   5.091   2.531  15.871  0.3693  1.2227 -0.1924
 8030TIP3   OH245580   4.043   6.221   5.034  0.0085 -0.3089 -0.1190
 8030TIP3    H145581   3.988   6.145   5.017 -0.3730 -0.2067  0.6361
 8030TIP3    H245582   4.039   6.272   4.953 -0.8706 -0.3855 -0.1289
 8031TIP3   OH245583   3.299   3.617  10.558  1.0185 -0.4107 -0.4993
 8031TIP3    H145584   3.314   3.671  10.480 -0.5525  1.3017  0.3082
 8031TIP3    H245585   3.203   3.618  10.569  1.1829 -0.9078  1.2413
 8032TIP3   OH245586   4.215   5.795  11.830 -0.5460 -0.3220 -0.3867
 8032TIP3    H145587   4.261   5.873  11.799 -0.5900  0.1014  0.5821
 8032TIP3    H245588   4.281   5.726  11.830 -0.0900  0.0979  0.2548
 8033TIP3   OH245589   1.877   1.151  13.119  0.3251  0.1823 -0.0045
 8033TIP3    H145590   1.917   1.183  13.200 -0.0939  1.2368 -0.1990
 8033TIP3    H245591   1.891   1.221  13.056 -1.4429  0.4074 -0.1939
 8034TIP3   OH245592   2.377   4.617  12.134  0.0027  0.3110  0.3761
 8034TIP3    H145593   2.374   4.542  12.076 -1.3510  0.7259 -0.1339
 8034TIP3    H245594   2.314   4.596  12.203  0.3595  0.5451  0.7786
 8035TIP3   OH245595   1.602   4.067  16.856 -0.1039 -0.0661  0.3401
 8035TIP3    H145596   1.596   4.020  16.939 -1.4944 -1.9713 -0.7671
 8035TIP3    H245597   1.623   3.999  16.792 -1.2569  0.9533 -1.1872
 8036TIP3   OH245598   5.098   0.525   5.798 -0.2800  0.0886 -0.1792
 8036TIP3    H145599   5.056   0.541   5.883 -0.8197  0.5708 -0.5317
 8036TIP3    H245600   5.190   0.506   5.820 -0.2684  0.8478  0.4635
 8037TIP3   OH245601   2.534   4.875  16.224 -0.3583  0.3860 -0.1242
 8037TIP3    H145602   2.521   4.969  16.229 -0.0973  0.6237 -2.6156
 8037TIP3    H245603   2.562   4.849  16.312  1.4921  2.9424  0.1548
 8038TIP3   OH245604   4.506   4.992  10.855  0.0284 -0.5341 -0.5753
 8038TIP3    H145605   4.586   5.020  10.900  0.3668 -1.7960 -0.3572
 8038TIP3    H245606   4.533   4.920  10.799 -1.0494 -1.4183 -0.0151
 8039TIP3   OH245607   3.855   0.061  16.542 -0.2033 -0.5051  0.4588
 8039TIP3    H145608   3.949   0.075  16.540 -0.3877  0.9194  0.0383
 8039TIP3    H245609   3.843  -0.018  16.595  1.2533 -1.1556 -0.1390
 8040TIP3   OH245610   6.076   4.944   6.134 -0.2966 -0.3335 -0.1009
 8040TIP3    H145611   6.108   4.855   6.115  1.9277 -0.0405  1.7860
 8040TIP3    H245612   6.060   4.982   6.048 -0.0314 -2.1275 -1.0030
 8041TIP3   OH245613   6.228   6.244  12.451  0.4440 -0.0605 -0.1187
 8041TIP3    H145614   6.316   6.209  12.435 -0.6732 -2.9272 -0.6323
 8041TIP3    H245615   6.234   6.337  12.428  3.5095  0.0308  0.6764
 8042TIP3   OH245616   1.157   5.325   3.041  0.2608  0.4534 -0.2126
 8042TIP3    H145617   1.078   5.373   3.065  0.2924  0.5624 -0.3262
 8042TIP3    H245618   1.162   5.253   3.104  0.7879  1.2160  0.6243
 8043TIP3   OH245619   5.448   5.576  16.855 -0.3957 -0.2534 -0.2709
 8043TIP3    H145620   5.539   5.600  16.838 -0.3601 -1.2539 -1.6798
 8043TIP3    H245621   5.398   5.620  16.786 -0.8790 -0.3962 -0.0197
 8044TIP3   OH245622   5.191   3.807   3.917  0.1874  0.1021 -0.4221
 8044TIP3    H145623   5.227   3.735   3.865 -1.5678  0.0467 -1.6112
 8044TIP3    H245624   5.177   3.878   3.854 -1.1670  0.3332  0.1128
 8045TIP3   OH245625   5.879   3.065  17.273  0.4143 -0.6043  0.0729
 8045TIP3    H145626   5.957   3.063  17.218 -0.0425 -0.7600 -0.5817
 8045TIP3    H245627   5.910   3.092  17.359  1.1856 -0.6625 -0.1875
 8046TIP3   OH245628   5.991   6.147   5.091  0.6427  0.0631 -0.2734
 8046TIP3    H145629   5.982   6.200   5.171  0.4094 -0.9982  0.4210
 8046TIP3    H245630   5.955   6.062   5.115  2.9839 -1.1053 -0.6935
 8047TIP3   OH245631   3.863   0.392   5.085  0.5933 -0.3027  0.5793
 8047TIP3    H145632   3.833   0.320   5.141 -2.1006  1.0562  0.9856
 8047TIP3    H245633   3.955   0.404   5.110 -0.0350 -0.8769  3.4819
 8048TIP3   OH245634   6.231   5.186  16.425  0.0872 -0.5331 -0.3156
 8048TIP3    H145635   6.264   5.096  16.429  0.1940 -0.4830 -0.0591
 8048TIP3    H245636   6.225   5.205  16.332  0.3298 -0.7096 -0.3675
 8049TIP3   OH245637   4.594   0.054   5.207 -0.1977 -0.2649 -0.1373
 8049TIP3    H145638   4.606   0.043   5.301 -0.9730 -0.1996 -0.0227
 8049TIP3    H245639   4.604  -0.034   5.171  0.4982 -0.2291 -0.0474
 8050TIP3   OH245640   1.617   0.500  14.193 -0.2332  0.6590 -0.1458
 8050TIP3    H145641   1.655   0.585  14.216  1.8740 -0.0476 -0.7512
 8050TIP3    H245642   1.674   0.437  14.237 -0.5551 -0.4887 -1.3363
 8051TIP3   OH245643   3.049   1.584  13.122  0.1012 -0.2152  0.3913
 8051TIP3    H145644   3.002   1.552  13.046  0.4040  0.3665 -0.0513
 8051TIP3    H245645   2.982   1.596  13.189 -0.3590  0.4251 -0.1684
 8052TIP3   OH245646   2.894   5.814  15.857  0.1370 -0.3392 -0.4691
 8052TIP3    H145647   2.954   5.754  15.812 -0.5125 -0.8883 -0.6253
 8052TIP3    H245648   2.942   5.897  15.862  1.5818 -1.2102  0.9297
 8053TIP3   OH245649   4.135   5.803  15.849 -0.1704  0.3418 -0.4973
 8053TIP3    H145650   4.095   5.890  15.852 -0.9000  0.0558 -1.5362
 8053TIP3    H245651   4.064   5.743  15.870  0.4257  0.0026  0.6127
 8054TIP3   OH245652   5.960   2.229  15.160 -0.0222  0.0589  0.5493
 8054TIP3    H145653   5.864   2.225  15.164 -0.1067 -1.2913 -1.2130
 8054TIP3    H245654   5.981   2.322  15.158 -1.3720  0.3710 -0.0618
 8055TIP3   OH245655   0.590   3.215  14.777  0.0769 -0.0758  0.1274
 8055TIP3    H145656   0.674   3.253  14.803  0.2725  0.2703 -0.9776
 8055TIP3    H245657   0.614   3.141  14.721 -0.3566  0.0671 -0.2456
 8056TIP3   OH245658   2.057   4.899  17.229 -0.5669 -0.1231  0.1317
 8056TIP3    H145659   2.093   4.987  17.217 -0.2948 -0.0937  1.1095
 8056TIP3    H245660   1.999   4.907  17.306 -1.2015 -0.6053 -0.2833
 8057TIP3   OH245661   1.162   3.623   1.931  0.0194  0.2820  0.1089
 8057TIP3    H145662   1.204   3.622   2.017 -0.8714 -0.5315  0.5519
 8057TIP3    H245663   1.104   3.699   1.935 -0.9758 -0.4794  0.7279
 8058TIP3   OH245664   1.009   4.574   6.098  0.6877 -0.1013  0.0480
 8058TIP3    H145665   1.021   4.480   6.085 -0.5200 -0.0636 -1.7793
 8058TIP3    H245666   1.080   4.600   6.156  2.7046 -1.6648 -1.5447
 8059TIP3   OH245667   3.172   2.296  16.255  0.4331  0.6679 -0.0112
 8059TIP3    H145668   3.151   2.243  16.332 -3.0225 -0.0894 -1.2950
 8059TIP3    H245669   3.183   2.385  16.289 -0.8419  0.3239  1.4294
 8060TIP3   OH245670   4.503   4.777   2.730 -0.2941  0.4601 -0.5311
 8060TIP3    H145671   4.583   4.826   2.750  1.5224 -2.2703 -0.5675
 8060TIP3    H245672   4.495   4.782   2.635  0.1726  0.3274 -0.5822
 8061TIP3   OH245673   0.356   4.039   1.814 -0.1483  0.2217  0.1406
 8061TIP3    H145674   0.264   4.061   1.796 -0.0970  0.9452  0.7291
 8061TIP3    H245675   0.395   4.029   1.727 -0.6507  0.4773 -0.1224
 8062TIP3   OH245676   2.845   6.751   1.738 -0.3999 -0.0363  0.1941
 8062TIP3    H145677   2.790   6.683   1.777 -0.5781 -0.9978 -1.6073
 8062TIP3    H245678   2.895   6.705   1.670  0.0936  1.4764 -0.5175
 8063TIP3   OH245679   1.173   0.155   4.555  0.0303 -0.3164  0.1971
 8063TIP3    H145680   1.138   0.243   4.544  1.0046  0.0427 -0.0971
 8063TIP3    H245681   1.100   0.104   4.590 -0.3651  0.7448  0.9605
 8064TIP3   OH245682   6.781   0.575   2.648  0.3923  0.0751  0.9751
 8064TIP3    H145683   6.803   0.667   2.657 -3.2279  1.0605  1.1865
 8064TIP3    H245684   6.824   0.548   2.566  1.1992  2.0109  0.7062
 8065TIP3   OH245685   0.240   4.373   5.270  0.7210 -0.0708 -0.3365
 8065TIP3    H145686   0.266   4.452   5.318 -2.2554 -0.3789  2.0068
 8065TIP3    H245687   0.306   4.308   5.294  3.0218  1.4424 -2.0319
 8066TIP3   OH245688   5.287   1.173   3.569 -0.0402 -0.5969 -0.1398
 8066TIP3    H145689   5.230   1.166   3.646  1.8039 -1.4146  1.2162
 8066TIP3    H245690   5.316   1.264   3.569  1.2882 -0.9926  1.1666
 8067TIP3   OH245691   3.164   3.195   0.592  0.1198 -0.0218 -0.1085
 8067TIP3    H145692   3.260   3.198   0.590  0.1755 -0.0842  1.2114
 8067TIP3    H245693   3.144   3.122   0.650 -0.6804  1.2914  1.3400
 8068TIP3   OH245694   3.484   0.689   4.548 -0.0857 -0.0843  0.3655
 8068TIP3    H145695   3.412   0.627   4.535  1.2182 -1.8675  1.3003
 8068TIP3    H245696   3.473   0.721   4.637 -1.7975  2.5457 -0.6626
 8069TIP3   OH245697   6.749   4.255  14.135 -0.5761 -0.1613  0.1348
 8069TIP3    H145698   6.763   4.196  14.209  2.0516 -0.5500 -0.5708
 8069TIP3    H245699   6.705   4.201  14.069  1.4035 -1.3051 -0.3371
 8070TIP3   OH245700   0.137   3.710   0.717  0.3108  0.0405 -0.4163
 8070TIP3    H145701   0.163   3.765   0.643  0.5514 -1.3202 -1.3764
 8070TIP3    H245702   0.219   3.692   0.763  0.1369  1.0395  0.3213
 8071TIP3   OH245703   6.557   4.075  10.800  0.8303  0.1907 -0.2205
 8071TIP3    H145704   6.587   4.149  10.853  2.3072 -0.5582  0.0395
 8071TIP3    H245705   6.630   4.056  10.741  0.0581 -0.3956 -1.0203
 8072TIP3   OH245706   3.597   0.075   3.247  0.2511  0.3066  0.0388
 8072TIP3    H145707   3.595   0.039   3.336 -0.5353  2.3246  0.9102
 8072TIP3    H245708   3.603  -0.001   3.190  0.7767 -1.0514  1.8230
 8073TIP3   OH245709   3.382   0.800  15.606  0.3373 -0.3834 -0.7117
 8073TIP3    H145710   3.376   0.884  15.560 -0.1133  0.1838  0.3346
 8073TIP3    H245711   3.475   0.783  15.614  0.5366  1.2288  1.1230
 8074TIP3   OH245712   0.618   5.522  11.842 -0.1358  0.1592 -0.0843
 8074TIP3    H145713   0.627   5.506  11.748 -1.8597  0.4023 -0.3141
 8074TIP3    H245714   0.566   5.602  11.849 -1.3291 -0.6706  1.0613
 8075TIP3   OH245715   6.134   1.231   5.011  0.2585  0.0832 -0.0473
 8075TIP3    H145716   6.193   1.277   4.952  0.6994  0.1807  0.4593
 8075TIP3    H245717   6.083   1.174   4.954  0.6043  0.2527 -0.5351
 8076TIP3   OH245718   0.663   5.728   6.049 -0.3278  0.3154  0.0598
 8076TIP3    H145719   0.658   5.651   6.106  1.0348  0.7349  0.7805
 8076TIP3    H245720   0.735   5.779   6.084 -0.3483  1.2713 -1.2299
 8077TIP3   OH245721   1.449   5.958   6.204  0.3613  0.3394  0.4522
 8077TIP3    H145722   1.477   5.896   6.137  0.1941 -1.1461  1.7070
 8077TIP3    H245723   1.474   6.043   6.169  3.8574 -0.6334  0.1459
 8078TIP3   OH245724   1.493   2.141  15.515  0.2253 -0.5100  0.0741
 8078TIP3    H145725   1.410   2.111  15.553 -0.2602  0.5096 -0.1688
 8078TIP3    H245726   1.481   2.130  15.420  0.4777 -0.6407  0.0577
 8079TIP3   OH245727   0.887   1.768   2.064  0.6206  0.3652  0.0661
 8079TIP3    H145728   0.850   1.855   2.053  0.8798  0.4230 -0.3676
 8079TIP3    H245729   0.811   1.710   2.073  0.3757  0.3403 -1.8515
 8080TIP3   OH245730   1.703   0.529  13.103 -0.0666 -0.0748 -0.2563
 8080TIP3    H145731   1.749   0.454  13.063 -0.4652 -0.1723 -0.5384
 8080TIP3    H245732   1.670   0.579  13.028 -0.0124  0.2519 -0.0613
 8081TIP3   OH245733   4.022   4.931  11.775 -0.2021 -0.0566  0.2576
 8081TIP3    H145734   4.014   4.862  11.710  0.7851  0.0736 -0.0278
 8081TIP3    H245735   4.049   5.008  11.725 -0.6647  0.3720  0.6558
 8082TIP3   OH245736   0.697   0.833  16.754 -0.0905  0.4547  0.5519
 8082TIP3    H145737   0.736   0.883  16.825  1.5034  0.8877 -0.5828
 8082TIP3    H245738   0.627   0.890  16.720  1.8082  2.0697 -0.8381
 8083TIP3   OH245739   6.547   1.852   2.704  0.0604  0.0109  0.2017
 8083TIP3    H145740   6.574   1.907   2.777  1.5201 -0.1510 -0.1916
 8083TIP3    H245741   6.629   1.822   2.664 -0.6611 -2.3230  0.3085
 8084TIP3   OH245742   6.590   6.518  10.823 -0.0177  0.6054 -0.1549
 8084TIP3    H145743   6.497   6.500  10.835  0.0346  1.0882  1.1193
 8084TIP3    H245744   6.596   6.613  10.818  0.3569  0.5552 -0.7015
 8085TIP3   OH245745   3.858   1.350  11.850  0.0007  0.2359 -0.2517
 8085TIP3    H145746   3.791   1.321  11.787  0.3685  1.1260 -1.0803
 8085TIP3    H245747   3.855   1.446  11.846  0.4617  0.2998  0.6471
 8086TIP3   OH245748   3.546   0.395  13.743  0.9091 -0.2036 -0.1871
 8086TIP3    H145749   3.530   0.303  13.765  2.2406 -0.5789 -0.6832
 8086TIP3    H245750   3.582   0.392  13.654 -0.9247  0.9734 -1.0196
 8087TIP3   OH245751   3.515   0.762  10.524 -0.0671 -0.1022 -0.3922
 8087TIP3    H145752   3.586   0.719  10.571 -0.2277 -0.6248 -0.6191
 8087TIP3    H245753   3.550   0.847  10.499  0.0697  0.1261  0.5469
 8088TIP3   OH245754   1.210   2.759   4.116  0.7337  0.1199  0.6019
 8088TIP3    H145755   1.264   2.713   4.053  1.2550 -1.8330  2.3623
 8088TIP3    H245756   1.229   2.717   4.200 -2.5475  0.1794  1.5294
 8089TIP3   OH245757   1.707   0.603   2.754 -0.1895 -0.5803 -0.5077
 8089TIP3    H145758   1.690   0.697   2.758 -0.4464 -0.6458  0.0509
 8089TIP3    H245759   1.681   0.570   2.840 -0.1139 -1.1650 -0.7020
 8090TIP3   OH245760   3.014   6.103   5.526  0.7530 -0.9854 -0.0637
 8090TIP3    H145761   3.102   6.122   5.493  1.0940  0.6470  1.6615
 8090TIP3    H245762   3.002   6.162   5.600 -0.9886 -2.6703  1.1028
 8091TIP3   OH245763   5.609   4.180  15.671  0.2769  0.4585 -0.2601
 8091TIP3    H145764   5.689   4.145  15.634  0.7418 -1.7526  2.5293
 8091TIP3    H245765   5.638   4.236  15.743 -0.6452  0.0535  0.4469
 8092TIP3   OH245766   1.926   1.042  16.688  0.3761  0.0631  0.1354
 8092TIP3    H145767   1.908   1.059  16.780 -1.9228 -0.9165 -0.0699
 8092TIP3    H245768   1.853   1.082  16.641  0.4182 -1.2014 -1.0897
 8093TIP3   OH245769   2.370   3.788  15.053 -0.4389 -0.3895 -0.3164
 8093TIP3    H145770   2.276   3.795  15.071 -0.2710  1.0897  0.0636
 8093TIP3    H245771   2.380   3.817  14.963 -0.2205  0.5454  0.0009
 8094TIP3   OH245772   4.397   6.579   6.133  0.1252  0.4742 -0.0538
 8094TIP3    H145773   4.412   6.500   6.081 -0.2871 -0.1640  0.7642
 8094TIP3    H245774   4.340   6.633   6.078  0.4025  0.2056 -0.6174
 8095TIP3   OH245775   3.668   5.586  15.938  0.6696 -0.2200 -0.5550
 8095TIP3    H145776   3.705   5.577  16.026  1.3324 -0.4605 -0.8461
 8095TIP3    H245777   3.743   5.611  15.883  0.8512 -2.5658 -1.5110
 8096TIP3   OH245778   6.748   5.999   4.043 -1.0609 -0.2840 -0.5507
 8096TIP3    H145779   6.703   6.058   3.982 -1.1975  0.6286  0.4100
 8096TIP3    H245780   6.699   6.007   4.124 -0.0647 -0.4325  0.0793
 8097TIP3   OH245781   4.289   2.028   3.525 -0.1268 -0.3203 -0.3670
 8097TIP3    H145782   4.320   1.971   3.596  0.3689 -2.7527 -2.3794
 8097TIP3    H245783   4.196   2.039   3.543  0.4475  1.3318  2.0137
 8098TIP3   OH245784   1.168   2.727   1.299 -0.1547  0.2170 -0.1363
 8098TIP3    H145785   1.235   2.687   1.355 -0.0669 -0.4012 -0.6775
 8098TIP3    H245786   1.148   2.810   1.342  0.1472 -0.1015  0.6362
 8099TIP3   OH245787   2.628   0.649  13.859  0.6089  0.1333 -0.4353
 8099TIP3    H145788   2.559   0.635  13.794  0.1549  0.9824 -0.1506
 8099TIP3    H245789   2.610   0.583  13.927 -0.3970  0.8272  0.0062
 8100TIP3   OH245790   5.579   6.658  14.270 -0.0742 -0.0933 -0.7439
 8100TIP3    H145791   5.660   6.608  14.280 -0.5237 -1.3932 -3.0010
 8100TIP3    H245792   5.608   6.748  14.259  0.9687 -0.3352 -0.0864
 8101TIP3   OH245793   6.517   3.142   4.590 -0.1994 -0.1281 -0.4779
 8101TIP3    H145794   6.426   3.158   4.616 -0.0955  0.4269 -0.4379
 8101TIP3    H245795   6.546   3.225   4.552  0.7458  0.2014  0.8564
 8102TIP3   OH245796   4.166   6.484   1.868 -0.3690  0.6461  0.1732
 8102TIP3    H145797   4.239   6.427   1.842  0.3431  1.4339  0.3990
 8102TIP3    H245798   4.187   6.569   1.830 -1.0305  0.9536  0.4856
 8103TIP3   OH245799   2.698   4.786  11.434  0.3955 -0.0524 -1.0300
 8103TIP3    H145800   2.754   4.770  11.358  0.8178 -1.0608 -0.5176
 8103TIP3    H245801   2.717   4.714  11.494 -2.3164 -1.1204 -1.3191
 8104TIP3   OH245802   0.234   0.938   4.362 -0.5849  0.0898  0.4477
 8104TIP3    H145803   0.321   0.974   4.380  0.2893 -0.1326 -2.7409
 8104TIP3    H245804   0.176   1.014   4.355 -0.3462  0.3361  1.1063
 8105TIP3   OH245805   0.699   1.421  16.383  0.2002  1.0069 -0.3362
 8105TIP3    H145806   0.752   1.348  16.414 -0.8186  0.7570  0.9061
 8105TIP3    H245807   0.741   1.449  16.302  0.0578 -1.6322 -1.4210
 8106TIP3   OH245808   4.819   4.439  12.271  0.5006 -0.3153 -0.3437
 8106TIP3    H145809   4.744   4.418  12.215  0.1812  0.6588 -0.3148
 8106TIP3    H245810   4.802   4.529  12.299 -0.4213 -1.4231  3.0369
 8107TIP3   OH245811   4.101   3.223   6.085  0.0321  0.1264  0.7913
 8107TIP3    H145812   4.138   3.143   6.046 -2.8855 -0.6368 -0.7483
 8107TIP3    H245813   4.109   3.289   6.016 -0.6025  0.1823  0.7631
 8108TIP3   OH245814   6.783   3.737   5.315 -0.5576  0.8654 -0.1141
 8108TIP3    H145815   6.706   3.755   5.369 -0.3673  2.2930 -0.2915
 8108TIP3    H245816   6.761   3.774   5.229 -0.2909 -0.1239 -0.6264
 8109TIP3   OH245817   2.713   5.243  17.140 -0.3141 -0.0757 -0.2180
 8109TIP3    H145818   2.725   5.312  17.074  0.1485 -0.4343 -0.5040
 8109TIP3    H245819   2.621   5.218  17.132 -0.8957  1.5008  0.8625
 8110TIP3   OH245820   5.857   2.652  17.168  0.0251 -0.1727 -0.0579
 8110TIP3    H145821   5.811   2.623  17.089 -1.2180  1.5433 -0.0212
 8110TIP3    H245822   5.921   2.715  17.136  0.3388 -0.3529  0.2079
 8111TIP3   OH245823   4.714   1.498  16.813  0.2063 -0.6109  1.0361
 8111TIP3    H145824   4.655   1.550  16.759 -0.8817 -0.9444  1.8703
 8111TIP3    H245825   4.658   1.433  16.855  1.1989 -1.0822  1.6815
 8112TIP3   OH245826   2.204   5.342   1.659  0.7284  0.0096 -0.0334
 8112TIP3    H145827   2.228   5.418   1.712 -0.5813  1.5452 -1.4963
 8112TIP3    H245828   2.245   5.268   1.703  2.4771  1.6069  1.1964
 8113TIP3   OH245829   6.723   4.389  12.003 -0.2553 -0.1458 -0.1229
 8113TIP3    H145830   6.737   4.402  11.909 -0.3703 -0.5516 -0.2005
 8113TIP3    H245831   6.637   4.349  12.009 -0.1763 -0.2801  0.1433
 8114TIP3   OH245832   3.631   0.467   3.744 -0.8644  0.3991 -0.2379
 8114TIP3    H145833   3.688   0.464   3.667 -1.2500  0.2732 -0.5274
 8114TIP3    H245834   3.547   0.498   3.709 -0.1349  3.8585  0.7002
 8115TIP3   OH245835   5.956   6.252  15.179  0.5557  0.3111  0.1377
 8115TIP3    H145836   5.876   6.245  15.127 -1.1483  1.1539  2.4905
 8115TIP3    H245837   5.960   6.344  15.205  0.4494 -0.3443  2.7262
 8116TIP3   OH245838   4.147   1.519  15.643 -0.2126 -0.2970 -0.1946
 8116TIP3    H145839   4.070   1.513  15.699  0.5848  0.1529  0.9980
 8116TIP3    H245840   4.119   1.482  15.559 -1.8501  0.2962  0.0518
 8117TIP3   OH245841   3.931   6.371  13.792 -0.2087  0.1013 -0.4798
 8117TIP3    H145842   3.957   6.291  13.838 -0.9707 -0.2264 -0.5866
 8117TIP3    H245843   3.844   6.391  13.828 -0.1333  0.7310 -0.6479
 8118TIP3   OH245844   0.888   1.211   3.487 -0.1761  0.5122  0.2202
 8118TIP3    H145845   0.854   1.260   3.562 -1.0574  1.3423 -0.6921
 8118TIP3    H245846   0.851   1.255   3.411  0.1545 -0.7340 -0.6904
 8119TIP3   OH245847   3.809   1.445  12.573 -0.3836  0.2325 -0.2276
 8119TIP3    H145848   3.874   1.415  12.636 -0.2365  0.3629 -0.3188
 8119TIP3    H245849   3.818   1.385  12.499  0.3959  0.9300 -0.7095
 8120TIP3   OH245850   1.921   1.896  11.720  0.5664  0.5736 -0.1548
 8120TIP3    H145851   1.888   1.969  11.772  2.1126  2.3122 -1.4788
 8120TIP3    H245852   1.959   1.836  11.784 -3.0165 -0.4928  1.2137
 8121TIP3   OH245853   1.939   4.455   1.891 -0.4883  0.0961  0.0731
 8121TIP3    H145854   1.849   4.424   1.884 -0.7548  0.9753 -0.4284
 8121TIP3    H245855   1.964   4.479   1.802  0.3715 -0.4749  0.1411
 8122TIP3   OH245856   0.146   6.776  13.520 -0.0928 -0.1238 -0.1113
 8122TIP3    H145857   0.150   6.865  13.484  0.4449  0.2630  0.8681
 8122TIP3    H245858   0.236   6.744  13.517  0.2179  0.3783  1.9379
 8123TIP3   OH245859   6.446   5.898  12.222  0.3125  0.8831 -0.0055
 8123TIP3    H145860   6.373   5.845  12.254  0.5647  0.9871  0.7495
 8123TIP3    H245861   6.414   5.936  12.140 -0.4498  0.8684  0.2805
 8124TIP3   OH245862   3.120   0.410  12.055 -0.2233  0.9650  0.8144
 8124TIP3    H145863   3.204   0.456  12.061  1.0687 -1.0296 -0.6829
 8124TIP3    H245864   3.141   0.319  12.076 -2.4925  0.7570  2.6331
 8125TIP3   OH245865   4.415   5.981   1.062  0.0851  0.2615  0.1719
 8125TIP3    H145866   4.453   6.068   1.075  0.5291  0.0941  0.0284
 8125TIP3    H245867   4.333   5.983   1.111  0.6069  0.3974  1.0602
 8126TIP3   OH245868   4.889   5.921   2.887  0.0761 -0.2672 -0.1323
 8126TIP3    H145869   4.796   5.926   2.908 -0.3128  0.8371 -1.8821
 8126TIP3    H245870   4.931   5.984   2.945 -0.1377 -1.2491  1.1337
 8127TIP3   OH245871   2.942   2.708  13.677  0.6863  0.0715  0.4469
 8127TIP3    H145872   2.910   2.715  13.767  1.6196 -2.3844  1.0290
 8127TIP3    H245873   2.866   2.729  13.623 -0.2740  0.1772  1.7899
 8128TIP3   OH245874   1.801   2.583  16.935 -0.4199 -0.3657  0.0198
 8128TIP3    H145875   1.743   2.582  17.011 -1.5082  0.6581 -0.7560
 8128TIP3    H245876   1.802   2.675  16.907 -0.8598 -0.8562 -1.7806
 8129TIP3   OH245877   2.509   3.514  14.413 -0.2785  0.4071  0.0057
 8129TIP3    H145878   2.442   3.460  14.371  0.2139  0.6058 -1.0701
 8129TIP3    H245879   2.462   3.590  14.446 -0.6684  0.2811 -0.2550
 8130TIP3   OH245880   1.112   4.199  14.606 -0.0597 -0.2705  0.4228
 8130TIP3    H145881   1.193   4.149  14.592 -0.4616 -0.6204 -0.8262
 8130TIP3    H245882   1.078   4.166  14.689  0.3143 -1.2277  0.2175
 8131TIP3   OH245883   4.952   0.077   3.576  0.2271  0.0010 -0.0942
 8131TIP3    H145884   4.910   0.152   3.534  1.5419 -0.2791 -2.0494
 8131TIP3    H245885   5.021   0.115   3.630  1.6626  0.2462 -1.9853
 8132TIP3   OH245886   6.281   5.116  10.084  0.1728 -0.8379 -0.2413
 8132TIP3    H145887   6.293   5.057  10.009  1.1946 -2.5029  1.1656
 8132TIP3    H245888   6.257   5.058  10.156  0.9400  0.5054  1.1395
 8133TIP3   OH245889   3.982   0.040   6.267  0.5236  0.5692 -0.1100
 8133TIP3    H145890   3.930   0.012   6.343  1.7953  0.4014  0.7260
 8133TIP3    H245891   3.919   0.085   6.210 -0.3796  1.0453  1.2166
 8134TIP3   OH245892   4.050   3.229  15.549 -0.5217 -0.1696  0.3054
 8134TIP3    H145893   3.957   3.222  15.527 -0.1604 -1.2469 -1.0040
 8134TIP3    H245894   4.068   3.154  15.606 -0.3070 -0.3543 -0.0044
 8135TIP3   OH245895   5.948   6.241   5.337  0.0327  0.1144 -0.4360
 8135TIP3    H145896   5.959   6.322   5.386 -0.7126 -0.2071  0.2960
 8135TIP3    H245897   5.888   6.189   5.391 -0.4948 -0.4090 -1.5043
 8136TIP3   OH245898   1.302   5.724  12.384 -0.2030  0.6564  0.1548
 8136TIP3    H145899   1.381   5.679  12.414  0.9000  2.0342 -0.5510
 8136TIP3    H245900   1.302   5.806  12.433 -0.0926  1.5377 -1.2857
 8137TIP3   OH245901   3.005   5.440  14.620 -0.0597 -0.3179 -0.0356
 8137TIP3    H145902   3.100   5.446  14.609  0.1443 -1.0952  1.1573
 8137TIP3    H245903   2.976   5.383  14.548  0.0608  1.5536 -1.6714
 8138TIP3   OH245904   0.622   3.011  15.547 -0.3091 -0.0399 -0.0533
 8138TIP3    H145905   0.645   3.092  15.501 -2.7926  0.0164 -1.3880
 8138TIP3    H245906   0.534   2.990  15.516  0.0556 -3.0301  0.6086
 8139TIP3   OH245907   1.051   3.669  12.887  0.7087  0.5320  0.3235
 8139TIP3    H145908   1.005   3.749  12.859 -0.9416 -0.4916 -0.0315
 8139TIP3    H245909   1.090   3.635  12.806 -1.1694 -0.5945 -0.1775
 8140TIP3   OH245910   1.601   6.465  12.435  0.4835  0.2082 -0.2975
 8140TIP3    H145911   1.552   6.445  12.515 -0.4225  2.4042 -0.2364
 8140TIP3    H245912   1.538   6.453  12.364  0.8756 -0.3179 -0.5654
 8141TIP3   OH245913   3.221   0.056   3.391 -0.5252  0.5760 -0.2002
 8141TIP3    H145914   3.186   0.133   3.436 -1.9697  1.2253 -2.2337
 8141TIP3    H245915   3.269   0.092   3.316 -0.0316 -0.4809 -0.4097
 8142TIP3   OH245916   0.518   6.781  16.870 -0.6612 -0.6428  0.5611
 8142TIP3    H145917   0.585   6.721  16.838 -2.2233 -1.9133 -0.4399
 8142TIP3    H245918   0.524   6.857  16.812  0.5237 -0.3078  1.0862
 8143TIP3   OH245919   1.505   3.664   5.583  0.0620  0.2781 -0.0763
 8143TIP3    H145920   1.476   3.751   5.556 -1.0924 -0.0317  0.1474
 8143TIP3    H245921   1.580   3.645   5.526 -0.7030  0.7281 -1.2677
 8144TIP3   OH245922   3.963   5.099   2.774  0.2685 -0.3858 -0.5301
 8144TIP3    H145923   3.984   5.142   2.691  0.1346  1.8731  0.5282
 8144TIP3    H245924   3.874   5.066   2.763 -0.5323  1.6453 -0.7157
 8145TIP3   OH245925   5.308   0.028   3.390 -0.0994 -0.7480  0.0790
 8145TIP3    H145926   5.334   0.020   3.299 -1.1506 -0.2318 -0.2826
 8145TIP3    H245927   5.334  -0.055   3.430  5.3469  0.8487  0.6783
 8146TIP3   OH245928   2.244   3.956  11.738  0.5331  0.5920 -0.3498
 8146TIP3    H145929   2.152   3.974  11.721  0.4838 -0.9519 -2.0387
 8146TIP3    H245930   2.291   4.001  11.668  0.8697 -0.3353 -0.7420
 8147TIP3   OH245931   5.585   0.142  14.535  0.1863  0.9641  0.1220
 8147TIP3    H145932   5.547   0.101  14.613  0.7906 -2.6446 -1.2657
 8147TIP3    H245933   5.675   0.161  14.559  1.1786 -2.5354 -0.2363
 8148TIP3   OH245934   0.502   2.835  15.776  0.7196  0.2348  0.8070
 8148TIP3    H145935   0.532   2.924  15.756  1.0408  0.3822  1.8533
 8148TIP3    H245936   0.503   2.789  15.692 -0.6418  1.5631  0.0293
 8149TIP3   OH245937   1.669   0.891  14.098  0.3914  0.0887 -0.1805
 8149TIP3    H145938   1.703   0.854  14.179  0.7740 -1.0249 -0.8271
 8149TIP3    H245939   1.739   0.948  14.067  0.3069  0.3971  0.1842
 8150TIP3   OH245940   3.594   1.797  14.458  0.4729 -0.0081 -0.0827
 8150TIP3    H145941   3.565   1.862  14.522 -0.1646 -0.2233 -0.1401
 8150TIP3    H245942   3.587   1.842  14.373 -0.9134 -0.4386 -0.2231
 8151TIP3   OH245943   4.629   1.570   1.164  0.3364 -0.8454 -0.0353
 8151TIP3    H145944   4.576   1.557   1.086  1.0459 -0.1007 -0.6710
 8151TIP3    H245945   4.634   1.484   1.206 -1.9557 -0.8011  0.4649
 8152TIP3   OH245946   5.880   3.701  11.136  0.0178 -0.2878 -0.5098
 8152TIP3    H145947   5.900   3.632  11.200  1.6523 -0.8544 -1.5522
 8152TIP3    H245948   5.907   3.782  11.179 -0.1133 -0.5159  0.0078
 8153TIP3   OH245949   2.594   0.163   4.305 -0.0910  0.2973 -0.1824
 8153TIP3    H145950   2.644   0.229   4.355 -1.6043  1.1811  0.2319
 8153TIP3    H245951   2.529   0.131   4.367 -1.4406  0.7736 -1.2972
 8154TIP3   OH245952   0.391   5.169  16.771  0.8020  0.5670  0.1954
 8154TIP3    H145953   0.481   5.187  16.800  0.3601  1.4232  1.0930
 8154TIP3    H245954   0.343   5.250  16.791  0.2049  0.7930 -1.9284
 8155TIP3   OH245955   0.805   0.366   5.886  0.6907 -0.6868 -0.2515
 8155TIP3    H145956   0.814   0.272   5.874  0.1943 -0.8282  0.4337
 8155TIP3    H245957   0.729   0.390   5.833 -0.7760 -1.1187  1.5363
 8156TIP3   OH245958   6.591   0.841  13.845  0.1232  0.5425  0.2802
 8156TIP3    H145959   6.552   0.837  13.933  0.4294  0.0234  0.3942
 8156TIP3    H245960   6.604   0.750  13.821  1.0307  0.7076  0.1306
 8157TIP3   OH245961   3.196   3.925   5.488  0.1208 -0.0013 -0.1308
 8157TIP3    H145962   3.128   3.869   5.524 -0.6989  0.3305 -1.1272
 8157TIP3    H245963   3.260   3.933   5.558 -0.2619 -1.3182  0.3948
 8158TIP3   OH245964   5.688   0.731  15.440 -0.1873 -0.1696 -0.3647
 8158TIP3    H145965   5.706   0.689  15.356  2.1139 -0.0915  0.0343
 8158TIP3    H245966   5.761   0.791  15.454  0.0634 -0.9388  2.1605
 8159TIP3   OH245967   0.442   4.136   2.877  0.1646  0.5055 -0.0811
 8159TIP3    H145968   0.410   4.049   2.853  1.3059  0.4050 -1.2644
 8159TIP3    H245969   0.521   4.120   2.928 -0.3432  0.8388  0.8572
 8160TIP3   OH245970   3.881   2.284  11.000 -0.3938 -0.2591  0.2719
 8160TIP3    H145971   3.882   2.190  11.019 -2.1658 -0.5091 -0.7186
 8160TIP3    H245972   3.789   2.308  11.003 -0.3436  0.7249 -2.7992
 8161TIP3   OH245973   3.799   2.027  13.974  0.6826  0.7684  0.7488
 8161TIP3    H145974   3.892   2.049  13.979  0.9007 -0.0103  0.3229
 8161TIP3    H245975   3.797   1.931  13.977  0.0100  0.7074 -0.7622
 8162TIP3   OH245976   5.972   0.456   0.003 -0.5687  0.2405  0.0355
 8162TIP3    H145977   5.934   0.511  -0.066 -2.5447 -0.8782  0.1606
 8162TIP3    H245978   5.998   0.375  -0.042  1.2591  0.7805  0.0516
 8163TIP3   OH245979   3.102   6.045   3.913  0.4197 -0.0675 -0.0826
 8163TIP3    H145980   3.057   6.044   3.828  0.5862 -1.6426 -0.1893
 8163TIP3    H245981   3.170   5.978   3.904  0.2614 -0.4399  1.3920
 8164TIP3   OH245982   6.305   0.115   4.121 -0.2842 -0.5050 -0.3479
 8164TIP3    H145983   6.274   0.026   4.103 -0.3977 -0.3348 -1.0225
 8164TIP3    H245984   6.226   0.164   4.145 -0.6677  0.0500 -2.5446
 8165TIP3   OH245985   4.138   6.340   3.579  0.5411  0.1788 -0.1300
 8165TIP3    H145986   4.068   6.281   3.550  1.1009 -0.1411 -0.8609
 8165TIP3    H245987   4.104   6.428   3.563  0.2137  0.0286 -0.2638
 8166TIP3   OH245988   4.885   4.569   0.467 -0.2071 -0.0569 -0.4270
 8166TIP3    H145989   4.806   4.621   0.475 -0.3865 -0.0960 -1.6760
 8166TIP3    H245990   4.892   4.521   0.549 -0.7499  0.9383  0.2163
 8167TIP3   OH245991   4.366   5.450   4.182 -0.0846 -0.3219  0.3762
 8167TIP3    H145992   4.361   5.395   4.104 -1.0083  0.3196 -0.0222
 8167TIP3    H245993   4.417   5.526   4.155  0.6135 -0.6374  0.7459
 8168TIP3   OH245994   6.359   1.522   4.624 -0.0990  0.1305 -0.4310
 8168TIP3    H145995   6.357   1.461   4.699 -1.0358  1.3757  0.5934
 8168TIP3    H245996   6.271   1.518   4.588 -0.1150  0.7407 -0.4628
 8169TIP3   OH245997   5.875   5.463   0.931  0.2222  0.3953 -0.2768
 8169TIP3    H145998   5.910   5.386   0.976 -0.2871  0.0060 -0.5417
 8169TIP3    H245999   5.861   5.527   1.000  3.1067  1.2347 -0.3133
 8170TIP3   OH246000   1.597   3.814  15.949  0.4559  0.2510 -0.5067
 8170TIP3    H146001   1.518   3.764  15.928  0.1568  1.1157 -1.5610
 8170TIP3    H246002   1.575   3.863  16.028  0.0831  0.1512 -0.5471
 8171TIP3   OH246003   5.176   2.309   5.828 -0.4154 -0.8384 -0.5613
 8171TIP3    H146004   5.211   2.244   5.888  2.6451  3.0517  2.4543
 8171TIP3    H246005   5.248   2.328   5.768 -0.9575  0.2571 -0.8906
 8172TIP3   OH246006   4.572   5.781  11.539 -0.2124 -0.4321  0.1490
 8172TIP3    H146007   4.558   5.740  11.453 -1.0088  0.2767 -0.0777
 8172TIP3    H246008   4.586   5.874  11.519  0.2098 -0.3642  0.7475
 8173TIP3   OH246009   6.509   3.330   2.160 -0.1450 -0.0552  0.1931
 8173TIP3    H146010   6.545   3.309   2.073 -0.5592 -1.9466  0.4293
 8173TIP3    H246011   6.417   3.304   2.155 -0.8662  2.2300  0.4405
 8174TIP3   OH246012   1.062   2.035  11.427  0.8172 -0.6156  0.4887
 8174TIP3    H146013   1.157   2.049  11.435  0.8188 -0.9218  1.0546
 8174TIP3    H246014   1.049   2.013  11.335  1.5365 -2.2489  0.7463
 8175TIP3   OH246015   2.643   3.932  12.729  0.3280  0.1107 -0.2161
 8175TIP3    H146016   2.626   3.987  12.652  1.8511  1.8623  0.6130
 8175TIP3    H246017   2.645   3.994  12.802  0.0552 -1.3563  1.0932
 8176TIP3   OH246018   3.511   6.752   5.008  0.2252 -0.5604 -0.5304
 8176TIP3    H146019   3.449   6.680   4.994 -2.0157  1.2837 -0.6641
 8176TIP3    H246020   3.536   6.745   5.100  1.7500 -2.7132 -1.0298
 8177TIP3   OH246021   5.842   5.305   6.444  0.4021  0.2392 -0.5956
 8177TIP3    H146022   5.889   5.359   6.507 -0.1188 -0.1446  0.1344
 8177TIP3    H246023   5.839   5.359   6.364  1.4762  0.5309 -0.4523
 8178TIP3   OH246024   4.516   5.805   2.972 -0.1325 -0.9514  0.4675
 8178TIP3    H146025   4.564   5.865   3.030 -0.6141  0.8611 -0.9073
 8178TIP3    H246026   4.424   5.821   2.992 -0.4343  1.2080 -2.0143
 8179TIP3   OH246027   1.852   5.917   3.789  0.3802 -0.8196 -0.3274
 8179TIP3    H146028   1.832   5.899   3.881  1.4296  0.3270  0.1657
 8179TIP3    H246029   1.913   5.848   3.764 -0.9819 -1.9493 -0.6061
 8180TIP3   OH246030   4.853   5.513  13.790  0.4772  0.3253 -0.5959
 8180TIP3    H146031   4.787   5.457  13.833  0.9122  0.1091 -0.2009
 8180TIP3    H246032   4.930   5.457  13.783  1.2461  1.1671  0.7189
 8181TIP3   OH246033   4.868   5.942  12.542  0.1335  0.5691 -0.0182
 8181TIP3    H146034   4.801   5.986  12.595  0.3304  0.0343  0.6906
 8181TIP3    H246035   4.832   5.854  12.528  0.8084  0.1787  0.6247
 8182TIP3   OH246036   2.115   2.857  13.490  0.3691  0.0344 -0.3375
 8182TIP3    H146037   2.069   2.846  13.406  0.3670 -1.3561 -0.1873
 8182TIP3    H246038   2.189   2.797  13.484  0.5375  0.1458  0.5362
 8183TIP3   OH246039   3.478   5.022  14.284 -0.0178 -1.2173 -0.0901
 8183TIP3    H146040   3.566   4.987  14.294  1.2518  1.4710 -1.0073
 8183TIP3    H246041   3.464   5.023  14.189 -1.2223 -1.9021  0.0524
 8184TIP3   OH246042   0.239   6.347  17.016 -0.5951 -0.4843  0.0559
 8184TIP3    H146043   0.163   6.317  16.966  0.0178  1.0447 -1.8902
 8184TIP3    H246044   0.219   6.438  17.037  1.4924  0.6504 -2.3366
 8185TIP3   OH246045   6.098   4.095  15.333  0.6841  0.2737 -0.5947
 8185TIP3    H146046   6.003   4.100  15.343  0.8329  0.3214  1.3163
 8185TIP3    H246047   6.121   4.008  15.367  1.2792  0.0746 -1.4957
 8186TIP3   OH246048   1.668   2.259   2.227  0.3244 -0.0897 -0.2208
 8186TIP3    H146049   1.594   2.249   2.167 -0.2450  0.6939  0.3235
 8186TIP3    H246050   1.704   2.171   2.236 -1.3798 -0.7490  0.5336
 8187TIP3   OH246051   3.426   3.785  15.113  0.0469  0.3505  0.2506
 8187TIP3    H146052   3.343   3.740  15.126  1.0007 -1.4590  0.3672
 8187TIP3    H246053   3.427   3.853  15.181 -0.7050 -0.5303  1.1712
 8188TIP3   OH246054   1.616   3.452  14.361  0.3120  0.4241 -0.1148
 8188TIP3    H146055   1.596   3.486  14.448  0.3293  0.2210 -0.0305
 8188TIP3    H246056   1.693   3.501  14.333 -0.4155  1.3620 -0.5305
 8189TIP3   OH246057   3.685   5.131   0.269 -0.7325 -0.1036  0.1685
 8189TIP3    H146058   3.746   5.057   0.267  0.2342  0.6810 -0.9157
 8189TIP3    H246059   3.610   5.098   0.318 -0.1912 -1.6859  0.0192
 8190TIP3   OH246060   1.993   3.660   4.756  0.4738 -0.1917  0.1491
 8190TIP3    H146061   2.060   3.728   4.757  0.3305 -0.0488  0.6890
 8190TIP3    H246062   1.950   3.668   4.841  0.4258 -0.9312  0.2029
 8191TIP3   OH246063   0.205   5.471   2.746 -0.3820 -0.6917  0.2421
 8191TIP3    H146064   0.285   5.516   2.774 -0.7540 -0.3845  0.8330
 8191TIP3    H246065   0.213   5.465   2.651  0.6997 -1.3561  0.3571
 8192TIP3   OH246066   2.273   5.950  10.357  0.4642 -0.3237 -0.2364
 8192TIP3    H146067   2.342   5.959  10.291  0.7587  1.9230  0.3108
 8192TIP3    H246068   2.202   5.904  10.312  0.3405  1.8221 -2.3937
 8193TIP3   OH246069   2.171   0.211  12.135 -0.5086  0.0316 -0.1445
 8193TIP3    H146070   2.193   0.119  12.121 -1.4073 -0.5016  1.6117
 8193TIP3    H246071   2.218   0.258  12.066 -0.4264 -1.7749 -1.4016
 8194TIP3   OH246072   6.111   1.296  16.442  0.0365  0.0755 -0.1533
 8194TIP3    H146073   6.135   1.231  16.377 -1.2679  1.0104 -1.6276
 8194TIP3    H246074   6.032   1.337  16.408  0.1904  1.6825  1.2604
 8195TIP3   OH246075   0.002   0.519   5.151 -0.3542 -0.1652  0.2860
 8195TIP3    H146076   0.071   0.463   5.114 -0.9550 -1.9488  1.7642
 8195TIP3    H246077   0.040   0.607   5.147  1.8431 -1.0130  0.5969
 8196TIP3   OH246078   0.552   3.639   3.768  0.1053  0.1504 -0.3344
 8196TIP3    H146079   0.480   3.628   3.706  0.9596  0.3438 -1.4080
 8196TIP3    H246080   0.614   3.569   3.745 -1.1992 -2.3086  2.8447
 8197TIP3   OH246081   3.101   3.595   1.984  0.0213  0.3516 -0.3380
 8197TIP3    H146082   3.119   3.610   1.891  0.6363  0.5425 -0.1915
 8197TIP3    H246083   3.180   3.551   2.017  0.3431  1.4287  0.3750
 8198TIP3   OH246084   5.819   2.957  15.435 -0.1208 -0.4961  0.0588
 8198TIP3    H146085   5.805   2.998  15.521 -1.1410 -0.0138 -0.3271
 8198TIP3    H246086   5.913   2.940  15.432  0.3943  1.9709  0.2041
 8199TIP3   OH246087   4.067   4.085   4.979 -0.2364  0.6017 -0.3413
 8199TIP3    H146088   4.040   3.994   4.992  0.4233  0.5051  0.3976
 8199TIP3    H246089   4.015   4.114   4.904  0.2823 -0.7020 -1.2514
 8200TIP3   OH246090   2.445   5.206  12.881  0.5329  0.0269 -0.3016
 8200TIP3    H146091   2.422   5.229  12.971  0.2591 -1.6206  0.0882
 8200TIP3    H246092   2.373   5.241  12.829 -0.0943 -0.3063  0.3098
 8201TIP3   OH246093   3.390   4.826   3.452  0.0960 -0.2985  0.2359
 8201TIP3    H146094   3.359   4.750   3.502 -1.4050  2.4067  3.8710
 8201TIP3    H246095   3.485   4.825   3.463  0.1855 -1.9229 -0.3425
 8202TIP3   OH246096   1.749   5.498  13.154  0.1977 -0.4322  0.3720
 8202TIP3    H146097   1.806   5.489  13.230  1.2741  1.3087 -0.1729
 8202TIP3    H246098   1.702   5.580  13.168  1.0450  0.3760 -1.1870
 8203TIP3   OH246099   6.777   5.567  13.111 -0.2490  0.5824  0.4267
 8203TIP3    H146100   6.687   5.588  13.088  0.0845  0.9454 -0.6311
 8203TIP3    H246101   6.827   5.590  13.033  0.5600 -1.0831  0.4109
 8204TIP3   OH246102   3.281   6.618  15.996 -0.3075 -0.3783  0.0297
 8204TIP3    H146103   3.346   6.574  15.940 -0.6383  1.4638 -1.9459
 8204TIP3    H246104   3.333   6.675  16.052 -0.0654 -1.0478  0.4980
 8205TIP3   OH246105   1.346   1.103   0.300 -0.3331 -0.3136 -0.0383
 8205TIP3    H146106   1.441   1.092   0.294 -0.2858 -0.6853  1.0162
 8205TIP3    H246107   1.322   1.149   0.221  0.7297 -0.2391 -0.3391
 8206TIP3   OH246108   2.004   3.387   0.779  0.0453  0.1443 -0.1574
 8206TIP3    H146109   1.969   3.300   0.795 -0.1935  0.3097  0.2348
 8206TIP3    H246110   2.075   3.373   0.716  0.0573 -0.3417 -0.0419
 8207TIP3   OH246111   0.188   2.440  12.734 -0.5025 -0.4783 -0.3753
 8207TIP3    H146112   0.203   2.407  12.823  0.5143  0.3850 -0.2142
 8207TIP3    H246113   0.159   2.530  12.746 -2.8167 -1.0832 -0.8352
 8208TIP3   OH246114   3.270   1.993   3.295  0.0617  0.5012  0.1287
 8208TIP3    H146115   3.210   2.028   3.360 -1.4887 -0.2023 -0.8852
 8208TIP3    H246116   3.237   2.025   3.211 -0.1795 -1.5871 -0.6378
 8209TIP3   OH246117   3.107   2.853   3.388  0.2908 -0.3735  0.3964
 8209TIP3    H146118   3.122   2.776   3.333 -0.7059 -0.1028 -0.2741
 8209TIP3    H246119   3.062   2.915   3.331 -1.8147 -0.5013  1.7758
 8210TIP3   OH246120   5.926   3.645   0.637 -0.3994  1.0423 -0.7717
 8210TIP3    H146121   5.865   3.692   0.694  0.2779  0.4894  0.4643
 8210TIP3    H246122   6.012   3.665   0.674 -0.1176 -1.9904  0.5510
 8211TIP3   OH246123   2.244   6.214   1.109  0.1037 -0.8844 -0.0028
 8211TIP3    H146124   2.318   6.158   1.132 -0.2218 -1.1980  0.2927
 8211TIP3    H246125   2.188   6.158   1.055 -0.1860 -0.8244  0.2343
 8212TIP3   OH246126   4.303   6.365  14.064  0.2545 -0.1808 -0.2322
 8212TIP3    H146127   4.277   6.451  14.033  1.7853  0.4897  0.2761
 8212TIP3    H246128   4.395   6.374  14.088  0.0197 -1.5300  1.3698
 8213TIP3   OH246129   0.093   1.844  11.039 -0.3760 -0.1492  0.2662
 8213TIP3    H146130   0.015   1.877  10.996 -0.3640  0.4024  0.6604
 8213TIP3    H246131   0.133   1.921  11.080  1.2807 -0.0952 -1.3159
 8214TIP3   OH246132   6.420   5.634   2.606 -0.1742 -0.7056  0.1218
 8214TIP3    H146133   6.450   5.701   2.544 -1.0411  0.8978  1.3466
 8214TIP3    H246134   6.494   5.575   2.615  1.6430  1.5154  0.8969
 8215TIP3   OH246135   5.221   0.314  16.248  0.2017  0.3734 -0.1562
 8215TIP3    H146136   5.314   0.308  16.229  0.2040 -1.0020  0.1481
 8215TIP3    H246137   5.193   0.396  16.208  1.3635  0.3857 -0.9933
 8216TIP3   OH246138   4.970   1.655  12.593  0.6981 -0.6720 -0.1510
 8216TIP3    H146139   4.970   1.626  12.684 -1.4172 -0.5362 -0.0642
 8216TIP3    H246140   5.046   1.612  12.554  0.9704 -1.6586  1.3804
 8217TIP3   OH246141   1.552   5.029  13.074 -0.0528  0.2915 -0.3130
 8217TIP3    H146142   1.507   5.020  13.158  0.1933  1.5253 -0.0255
 8217TIP3    H246143   1.559   5.124  13.060 -0.6987  0.1183 -2.0633
 8218TIP3   OH246144   3.042   5.909   1.545  0.1241 -0.6639 -0.5784
 8218TIP3    H146145   2.961   5.960   1.529 -0.2088 -0.5005  1.4254
 8218TIP3    H246146   3.112   5.968   1.518 -0.3356  0.1385 -0.0542
 8219TIP3   OH246147   0.462   1.360  14.433 -0.4588  0.6445 -0.1712
 8219TIP3    H146148   0.511   1.398  14.361 -1.2464  1.3331 -0.3589
 8219TIP3    H246149   0.465   1.266  14.418 -1.0283  0.8067 -1.3864
 8220TIP3   OH246150   2.097   4.164   2.637  0.0086 -0.5666  0.4974
 8220TIP3    H146151   2.079   4.104   2.709 -0.7173  0.6579  1.3875
 8220TIP3    H246152   2.103   4.108   2.559  0.7082 -1.9055  1.4732
 8221TIP3   OH246153   2.063   4.535  13.375  0.3725  0.5229 -0.0298
 8221TIP3    H146154   1.995   4.487  13.328  0.6703  1.6609 -1.7095
 8221TIP3    H246155   2.144   4.489  13.355  0.4924  0.9763 -0.6084
 8222TIP3   OH246156   0.735   5.111  13.709 -0.1609 -0.3478 -0.4867
 8222TIP3    H146157   0.757   5.018  13.716  0.6624 -0.0447  2.0776
 8222TIP3    H246158   0.686   5.130  13.789  0.4945  1.6077 -0.4928
 8223TIP3   OH246159   3.340   4.018   4.178 -0.0406  0.1239  0.4712
 8223TIP3    H146160   3.306   4.069   4.252  1.4179  1.2966  0.3648
 8223TIP3    H246161   3.404   4.075   4.137  3.1163 -2.4040  1.4501
 8224TIP3   OH246162   5.137   4.643   0.387  0.9296 -0.2870  0.2890
 8224TIP3    H146163   5.171   4.674   0.471  1.4433 -1.4602  0.5310
 8224TIP3    H246164   5.046   4.620   0.405  1.2919 -1.4151  0.7810
 8225TIP3   OH246165   3.296   3.367  12.934  0.8037 -0.1151 -0.5439
 8225TIP3    H146166   3.265   3.423  13.005  0.9743 -0.3563 -0.2791
 8225TIP3    H246167   3.267   3.412  12.854 -0.6069 -0.5424 -0.3018
 8226TIP3   OH246168   2.620   1.405   0.302  0.1142 -0.4426  0.5568
 8226TIP3    H146169   2.543   1.462   0.312 -0.2848 -0.6546 -1.0446
 8226TIP3    H246170   2.690   1.465   0.277  0.2525 -0.3825  1.0642
 8227TIP3   OH246171   6.622   4.400   2.870  0.2476  0.0183  0.3352
 8227TIP3    H146172   6.564   4.458   2.822  0.6095 -0.1853 -0.3547
 8227TIP3    H246173   6.588   4.312   2.853  1.9352 -0.3009 -1.7989
 8228TIP3   OH246174   2.182   2.180   1.552 -0.5808  0.5516  0.2910
 8228TIP3    H146175   2.137   2.221   1.625 -1.4790 -0.8697  0.5768
 8228TIP3    H246176   2.174   2.086   1.568  1.0344  0.2319 -0.5473
 8229TIP3   OH246177   5.874   6.006   4.639  0.4089 -0.0922 -0.5933
 8229TIP3    H146178   5.866   6.064   4.714  1.2576  1.3756 -1.5830
 8229TIP3    H246179   5.838   5.922   4.669  0.3272  0.5709  1.2800
 8230TIP3   OH246180   4.493   5.609   5.672  0.2918 -0.4941 -0.5169
 8230TIP3    H146181   4.526   5.534   5.623  1.1551 -0.7398  0.4246
 8230TIP3    H246182   4.558   5.678   5.656  0.3302 -0.4321 -0.0974
 8231TIP3   OH246183   1.356   3.661  13.221 -1.2147  0.4833  0.0526
 8231TIP3    H146184   1.407   3.738  13.246 -1.2301  0.8013 -0.8489
 8231TIP3    H246185   1.385   3.641  13.132 -0.8990 -0.8172  0.4180
 8232TIP3   OH246186   4.008   3.553  10.811  0.1136  0.8778  0.2896
 8232TIP3    H146187   4.104   3.563  10.815  0.2489 -0.4647  3.3514
 8232TIP3    H246188   3.989   3.547  10.718  3.5923 -3.2044 -0.4805
 8233TIP3   OH246189   2.365   3.115   1.156  0.3916 -0.3763  0.3044
 8233TIP3    H146190   2.449   3.155   1.180 -0.4152  0.7854  1.3213
 8233TIP3    H246191   2.312   3.121   1.235 -1.6958  1.8009 -1.1207
 8234TIP3   OH246192   2.960   0.461   4.331  0.3102 -0.3563 -0.2743
 8234TIP3    H146193   2.924   0.452   4.419 -1.7935  0.9534 -0.9296
 8234TIP3    H246194   2.959   0.372   4.295 -3.2853 -0.3329 -0.5547
 8235TIP3   OH246195   1.218   0.321   3.918  0.7893 -0.8048 -0.0945
 8235TIP3    H146196   1.150   0.388   3.905  0.4326 -1.3120 -0.9662
 8235TIP3    H246197   1.217   0.304   4.012 -1.0201 -1.5226 -0.1935
 8236TIP3   OH246198   0.610   1.475   1.401 -0.1046 -0.3347 -0.4771
 8236TIP3    H146199   0.534   1.496   1.454  0.7211  1.2247  0.1523
 8236TIP3    H246200   0.624   1.381   1.415 -1.7306 -0.5848 -0.4111
 8237TIP3   OH246201   0.485   5.180   2.457  0.9912  0.2435  0.1502
 8237TIP3    H146202   0.432   5.232   2.397  0.6976 -0.5639 -0.3137
 8237TIP3    H246203   0.537   5.244   2.505  1.1580  0.9262 -0.8940
 8238TIP3   OH246204   2.973   2.192  12.306  0.1038 -0.1440  0.3805
 8238TIP3    H146205   3.067   2.206  12.293  0.1393 -0.3253  0.4309
 8238TIP3    H246206   2.965   2.165  12.397  0.0788 -0.7485  0.2067
 8239TIP3   OH246207   5.502   1.601   0.645 -0.3536  0.4543 -0.2290
 8239TIP3    H146208   5.418   1.580   0.687  0.1292 -0.0018  0.5223
 8239TIP3    H246209   5.556   1.636   0.716  0.5767 -0.6134 -0.3956
 8240TIP3   OH246210   2.079   4.980  12.840  0.0487  0.3241  0.3764
 8240TIP3    H146211   2.101   4.974  12.933 -0.3723  0.9395  0.5229
 8240TIP3    H246212   1.984   4.987  12.838 -0.0934 -1.3464 -0.2022
 8241TIP3   OH246213   3.274   6.577  14.586  0.0259 -0.8561 -0.0302
 8241TIP3    H146214   3.319   6.618  14.513 -1.8590  3.2129  0.8422
 8241TIP3    H246215   3.338   6.578  14.657  0.3979 -0.5283 -0.3623
 8242TIP3   OH246216   3.611   2.319  15.367  0.6727  0.1618  0.0406
 8242TIP3    H146217   3.627   2.371  15.446  1.2236 -1.4960  1.0855
 8242TIP3    H246218   3.518   2.331  15.350  0.1818 -0.6096  1.8676
 8243TIP3   OH246219   3.957   0.682   2.402 -0.0926  0.3329 -0.0717
 8243TIP3    H146220   3.946   0.763   2.352 -0.7830 -0.1293 -0.6799
 8243TIP3    H246221   3.994   0.620   2.339  2.1073  0.6446  0.8377
 8244TIP3   OH246222   5.306   3.857   5.402 -0.2029 -0.0126  0.5496
 8244TIP3    H146223   5.215   3.884   5.406 -0.5448 -1.2673  1.5546
 8244TIP3    H246224   5.319   3.800   5.478  0.6591 -2.1272 -1.0778
 8245TIP3   OH246225   4.362   1.727   2.629 -0.4196  0.4152  0.6830
 8245TIP3    H146226   4.442   1.751   2.582 -0.9168  1.3334  0.2814
 8245TIP3    H246227   4.392   1.667   2.698  0.8572  1.9914  1.5681
 8246TIP3   OH246228   2.316   3.417  12.223  0.3462  0.1260  0.0877
 8246TIP3    H146229   2.290   3.353  12.290 -0.7504  1.9738  1.5510
 8246TIP3    H246230   2.410   3.429  12.236 -0.0338  1.3591  2.2468
 8247TIP3   OH246231   0.233   0.461   4.914 -0.5548 -0.1420  0.1613
 8247TIP3    H146232   0.209   0.390   4.973 -0.7952  0.4506  0.7880
 8247TIP3    H246233   0.287   0.519   4.967 -1.2150  0.6695 -0.0344
 8248TIP3   OH246234   4.297   4.412   0.847 -0.3769  0.1402  0.5845
 8248TIP3    H146235   4.300   4.367   0.931 -0.0695 -0.1005  0.4479
 8248TIP3    H246236   4.381   4.459   0.842 -1.4814  2.3480  1.5991
 8249TIP3   OH246237   3.322   4.332   4.400  0.0279 -0.4763 -0.1929
 8249TIP3    H146238   3.228   4.346   4.393  0.2077 -0.0986 -2.8529
 8249TIP3    H246239   3.331   4.260   4.463 -2.1917 -2.1092 -1.6215
 8250TIP3   OH246240   4.902   1.175   0.130 -0.2537 -0.1995 -0.2711
 8250TIP3    H146241   4.910   1.232   0.053 -1.4080  2.6273  1.5624
 8250TIP3    H246242   4.820   1.128   0.116 -0.8362  0.8441 -0.4503
 8251TIP3   OH246243   0.169   1.246  11.845 -0.8580  0.2777  0.1075
 8251TIP3    H146244   0.147   1.154  11.830 -0.9818  0.3690 -0.2884
 8251TIP3    H246245   0.109   1.274  11.915 -0.4119 -0.1003  0.6444
 8252TIP3   OH246246   1.963   4.081   5.832 -0.7329 -0.0694  0.4513
 8252TIP3    H146247   2.007   4.158   5.795  1.0222 -0.4723  1.5750
 8252TIP3    H246248   1.974   4.090   5.927 -2.0764 -0.8100  0.6974
 8253TIP3   OH246249   2.978   0.884   6.397 -0.1597 -0.5339  0.1826
 8253TIP3    H146250   3.051   0.911   6.452  0.1072  0.2099 -0.5125
 8253TIP3    H246251   2.909   0.859   6.458  0.4188 -0.5209  0.8449
 8254TIP3   OH246252   0.143   2.870  16.714 -0.2951 -0.3061  0.2481
 8254TIP3    H146253   0.049   2.852  16.711 -0.0472 -2.4220  2.3975
 8254TIP3    H246254   0.149   2.955  16.758 -1.1715 -0.9404  1.6613
 8255TIP3   OH246255   2.307   2.223   2.639  0.2846 -0.0496  0.1806
 8255TIP3    H146256   2.292   2.129   2.629 -1.7313  0.1354  0.9774
 8255TIP3    H246257   2.246   2.264   2.578  2.0390  0.7820 -1.1132
 8256TIP3   OH246258   0.570   3.695  14.783  0.4569 -0.2277  0.1827
 8256TIP3    H146259   0.648   3.696  14.839  1.2910  1.2386 -0.9512
 8256TIP3    H246260   0.589   3.758  14.714 -0.5790 -1.8539 -1.7059
 8257TIP3   OH246261   5.977   2.197   4.573  0.2896 -0.3766 -0.0686
 8257TIP3    H146262   5.991   2.287   4.545 -1.8056  0.0122  0.0104
 8257TIP3    H246263   5.887   2.177   4.548 -0.0802 -1.6505  2.0191
 8258TIP3   OH246264   6.715   6.256  14.837  0.5718 -0.6332  0.0202
 8258TIP3    H146265   6.724   6.222  14.926 -2.1210 -2.7905 -0.4047
 8258TIP3    H246266   6.746   6.186  14.780 -1.1169 -0.8121 -0.7644
 8259TIP3   OH246267   3.809   4.775  12.475  0.3863  0.4073 -0.5322
 8259TIP3    H146268   3.835   4.867  12.479  0.4097  0.5067 -2.2684
 8259TIP3    H246269   3.760   4.768  12.394  1.4132 -1.3585 -1.0470
 8260TIP3   OH246270   6.494   2.215  11.676  0.4087 -0.2477  0.2301
 8260TIP3    H146271   6.482   2.149  11.608  3.1526 -1.8062  1.1054
 8260TIP3    H246272   6.430   2.283  11.654 -3.6469 -3.6824  0.0561
 8261TIP3   OH246273   2.309   1.061   1.329  0.4800  0.4842  0.2282
 8261TIP3    H146274   2.242   1.129   1.342 -1.0549 -0.7688 -0.7588
 8261TIP3    H246275   2.353   1.087   1.247 -0.7385 -0.1629 -0.6624
 8262TIP3   OH246276   6.209   0.584   5.080 -0.2628 -0.3648 -0.1937
 8262TIP3    H146277   6.291   0.582   5.130  1.0969  2.2455 -2.0644
 8262TIP3    H246278   6.144   0.614   5.143  0.7908  0.0776  0.7313
 8263TIP3   OH246279   4.023   2.403  14.911  0.6371 -0.2963  0.9893
 8263TIP3    H146280   4.102   2.382  14.860  1.1283 -0.8622  1.9582
 8263TIP3    H246281   3.951   2.364  14.861  1.0289 -0.2569  0.3869
 8264TIP3   OH246282   1.282   5.687   3.434 -0.2718 -0.6292  0.4928
 8264TIP3    H146283   1.356   5.637   3.467 -0.8747 -1.0903  1.1568
 8264TIP3    H246284   1.285   5.675   3.339 -0.7941 -2.4796  0.6832
 8265TIP3   OH246285   4.100   5.459   0.391  0.1728 -0.4309  0.3008
 8265TIP3    H146286   4.005   5.450   0.381  0.1772  0.0837 -0.2525
 8265TIP3    H246287   4.135   5.372   0.374 -0.0477 -0.2074 -1.4475
 8266TIP3   OH246288   0.052   5.103  15.923  0.1101  0.3045 -0.1090
 8266TIP3    H146289   0.050   5.085  15.829 -2.5975 -0.4714  0.0296
 8266TIP3    H246290   0.125   5.164  15.933  1.6098 -0.9208 -2.4335
 8267TIP3   OH246291   3.468   5.952  15.143  0.3924 -0.4473 -0.4676
 8267TIP3    H146292   3.455   5.891  15.216  0.9128  0.2844  0.2631
 8267TIP3    H246293   3.563   5.961  15.137  0.3471  2.4071  1.2965
 8268TIP3   OH246294   0.955   6.125   2.412 -0.4088 -0.4179 -0.1782
 8268TIP3    H146295   0.864   6.105   2.392 -0.6221 -0.9057  1.1952
 8268TIP3    H246296   0.950   6.201   2.470  0.0524 -0.5170 -0.0067
 8269TIP3   OH246297   5.535   6.659  14.575  0.3106 -0.1355  0.2193
 8269TIP3    H146298   5.509   6.710  14.498  0.4562  0.3125  0.4610
 8269TIP3    H246299   5.452   6.635  14.617  0.2491  0.7060  0.6138
 8270TIP3   OH246300   5.680   1.229  11.420 -0.1484  0.1257 -0.2012
 8270TIP3    H146301   5.709   1.206  11.332  0.1321  1.9766 -0.6260
 8270TIP3    H246302   5.733   1.174  11.477 -1.0057 -1.7998 -1.1749
 8271TIP3   OH246303   2.829   4.006   3.939  0.0413  0.5511  0.4761
 8271TIP3    H146304   2.792   3.990   4.026  0.3689  1.7954  0.8737
 8271TIP3    H246305   2.826   4.102   3.929 -2.8205  0.3359 -2.1538
 8272TIP3   OH246306   2.802   0.477  13.284 -0.1570  0.3838 -0.2578
 8272TIP3    H146307   2.858   0.504  13.357  0.0457  2.4609 -1.1047
 8272TIP3    H246308   2.776   0.388  13.306 -0.2829  0.9863  2.4838
 8273TIP3   OH246309   0.514   4.324   0.312  0.2613  0.1674  0.2123
 8273TIP3    H146310   0.564   4.348   0.234 -0.3784 -1.1195 -0.6331
 8273TIP3    H246311   0.495   4.407   0.356 -0.3800  1.0412 -1.6414
 8274TIP3   OH246312   0.365   6.105  13.153 -0.0528 -0.0845 -0.3997
 8274TIP3    H146313   0.335   6.196  13.161  0.6095 -0.0273  3.0479
 8274TIP3    H246314   0.284   6.055  13.140 -0.8843  0.7562  1.1251
 8275TIP3   OH246315   5.786   0.049   5.496  0.5209 -0.2491 -0.3406
 8275TIP3    H146316   5.738  -0.005   5.559  1.1312 -0.4572 -0.0435
 8275TIP3    H246317   5.744   0.032   5.412 -0.7256  0.5170  0.0902
 8276TIP3   OH246318   1.599   5.293   4.919  0.0768 -0.4272 -0.0987
 8276TIP3    H146319   1.644   5.299   5.003  0.4552 -0.9435 -0.2603
 8276TIP3    H246320   1.521   5.241   4.937 -1.2165  1.5870  0.4805
 8277TIP3   OH246321   4.800   4.988  10.908  1.1059 -0.2309  0.1608
 8277TIP3    H146322   4.846   4.924  10.962 -1.3574 -2.3712 -0.0788
 8277TIP3    H246323   4.784   4.943  10.826 -2.1428 -0.0430  0.5486
 8278TIP3   OH246324   2.140   3.821   2.280  0.1639 -0.0239  0.7471
 8278TIP3    H146325   2.186   3.820   2.197 -1.7895 -0.6036 -0.3894
 8278TIP3    H246326   2.080   3.895   2.274 -0.0063 -0.0779  1.6224
 8279TIP3   OH246327   2.110   0.890   0.490  0.6662 -0.3947  0.3271
 8279TIP3    H146328   2.154   0.921   0.569  1.8415  0.7845 -0.7467
 8279TIP3    H246329   2.053   0.820   0.521  1.0874  0.0361  2.2157
 8280TIP3   OH246330   1.753   2.880  11.905 -0.0280 -0.0853  0.0176
 8280TIP3    H146331   1.671   2.856  11.949 -1.4735  2.4081 -1.0810
 8280TIP3    H246332   1.746   2.840  11.818  0.4830 -0.8108  0.3003
 8281TIP3   OH246333   1.432   6.462   0.792  0.7438  0.5249 -0.2070
 8281TIP3    H146334   1.369   6.532   0.774 -1.5542 -1.0484  1.1009
 8281TIP3    H246335   1.425   6.403   0.717  1.6997  0.9859 -0.6811
 8282TIP3   OH246336   5.179   0.047  13.065 -0.2533  0.4083 -0.3572
 8282TIP3    H146337   5.196   0.014  13.153  0.6447 -0.7446 -0.9324
 8282TIP3    H246338   5.263   0.037  13.019 -0.4923  1.6932 -1.1381
 8283TIP3   OH246339   6.264   6.491  11.059 -0.1974 -0.2688 -0.3619
 8283TIP3    H146340   6.313   6.548  11.118 -2.6484  1.1676  0.3915
 8283TIP3    H246341   6.228   6.423  11.116  2.3669 -2.5639 -1.1886
 8284TIP3   OH246342   0.117   6.514   1.137 -1.1650 -0.0951 -0.0205
 8284TIP3    H146343   0.120   6.503   1.232 -2.1334  2.1804  0.3303
 8284TIP3    H246344   0.064   6.440   1.107 -1.3368 -0.5320  1.2790
 8285TIP3   OH246345   3.560   2.600  11.830  0.3615 -0.2062  0.3287
 8285TIP3    H146346   3.511   2.677  11.801  0.8792 -0.1692 -0.4808
 8285TIP3    H246347   3.648   2.614  11.794  0.3914 -1.3045 -0.0303
 8286TIP3   OH246348   1.372   1.606  12.682  0.4103 -0.5813  0.3043
 8286TIP3    H146349   1.355   1.697  12.707 -1.3395 -0.4970 -1.0000
 8286TIP3    H246350   1.385   1.561  12.765 -1.0329  0.4349  1.1266
 8287TIP3   OH246351   0.695   2.237   6.678  0.5334  0.1353 -0.4871
 8287TIP3    H146352   0.632   2.212   6.746  0.9695  1.2412  0.3457
 8287TIP3    H246353   0.672   2.182   6.603  0.9518 -2.2136  0.9787
 8288TIP3   OH246354   1.470   1.659   5.199  0.7807  0.1981  0.1065
 8288TIP3    H146355   1.507   1.727   5.142 -0.2418  2.3944  1.9074
 8288TIP3    H246356   1.457   1.703   5.283 -1.3025 -1.8250  0.9394
 8289TIP3   OH246357   4.397   3.046  15.666 -0.3538 -0.2226 -0.4682
 8289TIP3    H146358   4.401   3.033  15.760  2.0510 -0.9690 -0.6174
 8289TIP3    H246359   4.399   3.141  15.654 -0.5003 -0.1338  0.2044
 8290TIP3   OH246360   0.848   6.316  16.645  0.4507  0.2832 -0.7849
 8290TIP3    H146361   0.764   6.313  16.691  0.1219  0.4258 -1.3629
 8290TIP3    H246362   0.909   6.352  16.708 -0.0885  0.8868 -0.6021
 8291TIP3   OH246363   0.230   3.553  17.153 -0.7024 -0.3943  0.2209
 8291TIP3    H146364   0.182   3.471  17.143  2.0487 -2.4560  2.3570
 8291TIP3    H246365   0.307   3.542  17.097 -0.4119  0.8604  0.3536
 8292TIP3   OH246366   5.075   4.141   4.887  0.0863  0.3605  0.2786
 8292TIP3    H146367   5.047   4.218   4.936 -0.4605 -0.2426  0.9370
 8292TIP3    H246368   5.018   4.140   4.810 -1.5712 -0.6559  1.4268
 8293TIP3   OH246369   4.601   6.348   0.796 -0.1372  0.0241  0.6859
 8293TIP3    H146370   4.680   6.305   0.762  0.3438  0.3683  1.3592
 8293TIP3    H246371   4.536   6.335   0.727  1.0239  1.3365 -0.7358
 8294TIP3   OH246372   3.975   1.760   4.325 -0.7643  0.4880 -0.5271
 8294TIP3    H146373   3.990   1.747   4.418 -1.4597 -0.3720 -0.5155
 8294TIP3    H246374   4.029   1.835   4.301  0.2515  0.0576  0.3439
 8295TIP3   OH246375   6.540   2.615  11.880  0.2841 -0.0590  0.6586
 8295TIP3    H146376   6.589   2.620  11.962  0.7117  0.4807  0.3751
 8295TIP3    H246377   6.592   2.665  11.818 -1.7747  2.6658  0.9195
 8296TIP3   OH246378   3.979   5.906   0.949  1.1496 -0.5035  0.2265
 8296TIP3    H146379   3.964   5.814   0.924  2.5828 -0.1634 -2.2714
 8296TIP3    H246380   3.946   5.956   0.874 -1.7938  1.2832  2.5113
 8297TIP3   OH246381   0.811   6.266   5.110 -0.1964 -0.6006  0.0008
 8297TIP3    H146382   0.783   6.239   5.198 -1.0634  0.4104  0.0522
 8297TIP3    H246383   0.772   6.201   5.052  0.4282 -1.3094  0.3498
 8298TIP3   OH246384   0.365   2.031  10.903  0.2465 -0.5791  0.0236
 8298TIP3    H146385   0.351   1.947  10.859 -2.8289 -1.4538  2.3512
 8298TIP3    H246386   0.433   2.012  10.968 -0.9795 -1.5985  1.0774
 8299TIP3   OH246387   2.716   6.116   5.254  0.1022 -0.1511 -0.1516
 8299TIP3    H146388   2.763   6.032   5.251 -1.2711 -0.9237 -2.3549
 8299TIP3    H246389   2.643   6.105   5.193 -1.4906  1.8793  1.2565
 8300TIP3   OH246390   4.150   6.088   1.082  0.2869 -0.2478  0.2541
 8300TIP3    H146391   4.105   6.007   1.055  0.5641  0.1974 -1.6940
 8300TIP3    H246392   4.117   6.105   1.170  1.3211 -3.2598  1.3658
 8301TIP3   OH246393   2.750   1.335  11.527 -0.3452  0.2911  0.2120
 8301TIP3    H146394   2.795   1.342  11.612 -0.6325 -2.0665  0.6398
 8301TIP3    H246395   2.814   1.294  11.469 -0.1663  1.8536 -0.7402
 8302TIP3   OH246396   1.453   6.425   5.728  0.1040  0.9786  0.5858
 8302TIP3    H146397   1.410   6.341   5.715 -0.6667  1.3085  0.9047
 8302TIP3    H246398   1.517   6.409   5.797 -0.0907  0.6678  0.6956
 8303TIP3   OH246399   4.969   3.667  14.367 -0.2374 -0.3181  0.0301
 8303TIP3    H146400   5.050   3.682  14.319 -0.3395  0.3727  0.0589
 8303TIP3    H246401   4.980   3.714  14.449 -1.3517  1.3213 -0.7090
 8304TIP3   OH246402   5.969   3.738  11.590  0.3791  0.4349  0.7748
 8304TIP3    H146403   5.886   3.769  11.626 -0.4316 -1.4522  0.6355
 8304TIP3    H246404   5.944   3.670  11.528  1.8995  1.6392 -1.2792
 8305TIP3   OH246405   0.730   4.292  10.360 -0.4884 -0.1971 -0.0253
 8305TIP3    H146406   0.769   4.205  10.356  3.6679  1.5111 -2.3243
 8305TIP3    H246407   0.651   4.286  10.306  2.1472 -1.6733 -4.1348
 8306TIP3   OH246408   4.416   0.272   0.594  0.4794 -0.0026 -0.3084
 8306TIP3    H146409   4.420   0.366   0.613 -0.3664 -0.0094 -0.0119
 8306TIP3    H246410   4.462   0.231   0.667 -1.0341  0.0832  0.7427
 8307TIP3   OH246411   4.591   0.542   5.098 -0.3872 -0.0345  0.1737
 8307TIP3    H146412   4.686   0.551   5.093 -0.4356  0.2556 -0.2515
 8307TIP3    H246413   4.567   0.490   5.022 -0.6518  0.5918 -0.1805
 8308TIP3   OH246414   4.621   0.787   3.324 -0.1390 -0.2780  0.2826
 8308TIP3    H146415   4.633   0.809   3.232  0.4230 -1.4033  0.0665
 8308TIP3    H246416   4.644   0.694   3.330 -0.1660 -0.2274  1.5570
 8309TIP3   OH246417   6.214   4.619  13.693  0.0213 -0.6205 -0.1646
 8309TIP3    H146418   6.136   4.565  13.679 -0.4191 -0.3938  1.3131
 8309TIP3    H246419   6.239   4.603  13.784  0.5321  0.8364 -0.0296
 8310TIP3   OH246420   1.239   0.791   1.167 -0.2303 -0.3702  0.2653
 8310TIP3    H146421   1.298   0.734   1.118 -0.9867  0.6267 -1.9570
 8310TIP3    H246422   1.285   0.875   1.172 -1.6869  0.7259 -2.3689
 8311TIP3   OH246423   2.130   4.554   2.627 -0.2235  0.4658 -0.3111
 8311TIP3    H146424   2.213   4.512   2.647 -0.5193 -0.2805 -0.6316
 8311TIP3    H246425   2.151   4.647   2.621  0.2153  0.5187  1.6232
 8312TIP3   OH246426   3.337   0.259   5.056  0.0616 -0.1562  0.3489
 8312TIP3    H146427   3.399   0.213   5.000 -0.8425 -0.5298 -0.3749
 8312TIP3    H246428   3.251   0.223   5.032 -0.2178 -1.8849  3.4524
 8313TIP3   OH246429   5.827   5.398  14.996  0.0982 -0.3129 -0.0392
 8313TIP3    H146430   5.886   5.404  14.921 -0.0063 -3.8797 -0.5862
 8313TIP3    H246431   5.743   5.428  14.962  0.6430  0.8417 -0.4505
 8314TIP3   OH246432   4.450   6.232   4.121  0.1248  0.6648  0.2832
 8314TIP3    H146433   4.460   6.203   4.030 -1.1893  1.2548 -0.0741
 8314TIP3    H246434   4.356   6.231   4.136  0.3838 -1.3119  2.2900
 8315TIP3   OH246435   2.789   0.953  11.903 -0.2907  0.5428 -0.1640
 8315TIP3    H146436   2.739   0.930  11.982 -0.7943  0.6024 -0.4597
 8315TIP3    H246437   2.865   0.896  11.905 -0.0678  0.8505  0.6008
 8316TIP3   OH246438   0.244   6.105  11.281 -0.0744  0.3999  0.0676
 8316TIP3    H146439   0.198   6.120  11.198 -1.0559 -2.1128  0.0422
 8316TIP3    H246440   0.211   6.173  11.340 -2.4445 -0.1316 -0.5273
 8317TIP3   OH246441   5.790   5.405   4.880  0.5308 -0.3712  0.1778
 8317TIP3    H146442   5.826   5.491   4.899  2.0877 -1.1381  0.9119
 8317TIP3    H246443   5.757   5.374   4.964 -1.0262 -0.0717 -0.3012
 8318TIP3   OH246444   0.482   3.971   1.513 -0.5216  0.1404  0.1522
 8318TIP3    H146445   0.566   4.017   1.517 -0.7389  0.6517 -0.9996
 8318TIP3    H246446   0.496   3.891   1.565  1.5219 -1.1001 -2.0956
 8319TIP3   OH246447   3.382   2.099   5.606  0.3358 -0.3001 -0.0617
 8319TIP3    H146448   3.361   2.013   5.570 -0.0877 -0.4051  0.4267
 8319TIP3    H246449   3.423   2.081   5.691 -3.2796 -0.0272  1.9749
 8320TIP3   OH246450   3.665   6.409   2.754 -0.4730  0.3605 -0.0673
 8320TIP3    H146451   3.707   6.483   2.798 -0.4885  0.1783  0.2600
 8320TIP3    H246452   3.727   6.382   2.686  0.2684 -0.3467  0.8546
 8321TIP3   OH246453   0.072   3.441  12.258 -0.6614  0.0573 -0.3093
 8321TIP3    H146454   0.142   3.506  12.244 -2.1512  1.3357 -2.6637
 8321TIP3    H246455   0.006   3.487  12.309 -1.7860  0.5637 -2.1002
 8322TIP3   OH246456   0.933   2.860  15.726  0.1136  0.2873 -0.1216
 8322TIP3    H146457   0.918   2.827  15.815 -0.4087 -0.1039 -0.3559
 8322TIP3    H246458   0.903   2.951  15.730  0.8525  0.5248  0.3150
 8323TIP3   OH246459   5.370   5.222   5.440  0.1895  0.1753  0.0262
 8323TIP3    H146460   5.300   5.156   5.440 -1.7269  2.0623 -1.3034
 8323TIP3    H246461   5.400   5.225   5.349  2.9230 -1.3656  0.7436
 8324TIP3   OH246462   4.794   5.650  15.344 -0.4260 -0.3080 -0.5509
 8324TIP3    H146463   4.781   5.733  15.299  0.2640 -0.3431 -0.8184
 8324TIP3    H246464   4.709   5.605  15.336 -1.3687  1.0600  1.0773
 8325TIP3   OH246465   6.529   1.967  15.088 -0.0264  0.1480  0.7327
 8325TIP3    H146466   6.455   1.969  15.149  0.9540  0.3866  1.9514
 8325TIP3    H246467   6.603   1.999  15.139  0.5623  1.7173 -0.9917
 8326TIP3   OH246468   1.798   2.314   5.419 -0.0386 -0.2651 -0.1682
 8326TIP3    H146469   1.824   2.243   5.478  1.1990 -1.1635 -1.6994
 8326TIP3    H246470   1.769   2.384   5.477  1.4696 -0.9604  1.5402
 8327TIP3   OH246471   0.816   0.658   5.800 -0.3096 -0.3312  0.4162
 8327TIP3    H146472   0.747   0.622   5.745  1.3519 -0.1827 -1.9313
 8327TIP3    H246473   0.808   0.612   5.883 -2.9737 -0.5542  0.1026
 8328TIP3   OH246474   2.033   5.583  11.105  0.1607  0.0198 -0.5617
 8328TIP3    H146475   2.067   5.609  11.190 -2.1022 -1.5867  0.9616
 8328TIP3    H246476   1.956   5.638  11.092  0.0424 -0.2848 -1.1937
 8329TIP3   OH246477   2.798   6.274   3.318 -0.1897 -0.1930 -0.5056
 8329TIP3    H146478   2.888   6.276   3.351 -0.5470  1.4689  0.5196
 8329TIP3    H246479   2.796   6.199   3.258  1.6594 -0.7250  0.0157
 8330TIP3   OH246480   4.776   5.034  12.247  0.2407  0.2623  0.0010
 8330TIP3    H146481   4.864   5.049  12.283  0.9108  0.6063 -1.6699
 8330TIP3    H246482   4.718   5.080  12.308  0.8893 -2.0362  2.5496
 8331TIP3   OH246483   0.599   2.746   1.416  0.0224  0.3275  0.3256
 8331TIP3    H146484   0.547   2.816   1.456  0.0574 -0.1124  1.1534
 8331TIP3    H246485   0.534   2.679   1.392  0.1984 -0.2984  1.5180
 8332TIP3   OH246486   4.203   5.254   3.146 -0.4843 -0.6643  0.0261
 8332TIP3    H146487   4.256   5.237   3.068 -1.2933  1.4243 -1.0367
 8332TIP3    H246488   4.121   5.288   3.112 -1.1072 -0.3236  1.7919
 8333TIP3   OH246489   5.718   4.680  12.224  0.0588  0.4364 -0.3690
 8333TIP3    H146490   5.751   4.652  12.138 -1.0038 -0.4633 -0.5172
 8333TIP3    H246491   5.741   4.608  12.283 -1.0287  0.0858 -0.3463
 8334TIP3   OH246492   2.771   6.725   0.848 -0.3026  0.0971  0.1645
 8334TIP3    H146493   2.755   6.661   0.917 -1.1296  1.2877  1.1335
 8334TIP3    H246494   2.815   6.676   0.779  0.8859 -1.0707  1.6683
 8335TIP3   OH246495   5.406   3.447  14.016 -0.3459 -0.1089 -0.4269
 8335TIP3    H146496   5.327   3.501  14.018  0.0680  0.5685 -1.5671
 8335TIP3    H246497   5.398   3.395  13.936 -0.4033 -1.2420  0.3005
 8336TIP3   OH246498   3.801   2.576  11.722  0.0571 -0.7598 -0.0769
 8336TIP3    H146499   3.881   2.605  11.766 -0.0115  1.0507 -1.0594
 8336TIP3    H246500   3.808   2.480  11.720  1.1518 -0.7644  1.7532
 8337TIP3   OH246501   0.570   4.527   3.751  0.3921  0.0652  0.0464
 8337TIP3    H146502   0.587   4.603   3.808  0.6962  0.4313 -0.5177
 8337TIP3    H246503   0.490   4.488   3.785 -0.8591  1.7706 -0.8147
 8338TIP3   OH246504   5.936   2.752   3.601  0.6141 -0.5909  0.2673
 8338TIP3    H146505   5.999   2.768   3.531  0.9754 -0.6224  0.5832
 8338TIP3    H246506   5.977   2.789   3.680  0.8765 -1.8367  0.7567
 8339TIP3   OH246507   3.755   5.796  16.240 -0.2664  0.5961 -0.4478
 8339TIP3    H146508   3.733   5.703  16.235  2.5699 -0.2936  1.1004
 8339TIP3    H246509   3.678   5.837  16.280 -0.2757 -1.7726  2.3072
 8340TIP3   OH246510   0.116   1.700  13.704 -0.1812  0.3133  0.8221
 8340TIP3    H146511   0.113   1.708  13.608 -0.1271  0.6162  0.8444
 8340TIP3    H246512   0.039   1.648  13.726 -0.7410  1.0772  0.6928
 8341TIP3   OH246513   5.911   2.225   5.277  0.2317 -0.1789  0.4232
 8341TIP3    H146514   5.939   2.195   5.364 -1.5449 -1.1061  0.7308
 8341TIP3    H246515   5.920   2.320   5.280 -0.3097 -0.1433  1.8433
 8342TIP3   OH246516   5.325   6.118   2.778 -0.1828  0.0529  0.2958
 8342TIP3    H146517   5.292   6.198   2.818 -3.0742 -1.4398  1.1514
 8342TIP3    H246518   5.402   6.095   2.831  1.5037  2.7924 -0.7338
 8343TIP3   OH246519   1.646   3.700   2.772  0.4713  0.3182  0.5247
 8343TIP3    H146520   1.692   3.695   2.856  0.4385  0.6885  0.5663
 8343TIP3    H246521   1.669   3.786   2.738  0.1173  0.3476  0.3646
 8344TIP3   OH246522   0.915   0.655  14.848 -0.2535  0.5125  0.8557
 8344TIP3    H146523   0.846   0.626  14.789  1.0257 -1.9484  0.4433
 8344TIP3    H246524   0.869   0.708  14.914 -2.1634  0.7785 -0.5859
 8345TIP3   OH246525   2.770   4.994  16.588  0.5669  0.2190 -0.4141
 8345TIP3    H146526   2.865   4.994  16.586  0.5740 -0.2489 -0.2462
 8345TIP3    H246527   2.746   5.081  16.622  0.8769  0.9610 -1.9896
 8346TIP3   OH246528   6.386   0.499   1.866  0.5389 -0.1139 -0.2534
 8346TIP3    H146529   6.343   0.508   1.780  0.9436  0.7241 -0.3798
 8346TIP3    H246530   6.434   0.581   1.877 -0.1432  0.1307  1.1312
 8347TIP3   OH246531   5.052   0.327   5.419 -0.3595  0.1329  0.3356
 8347TIP3    H146532   5.144   0.324   5.445 -0.7090  1.1554  1.8256
 8347TIP3    H246533   5.004   0.294   5.495 -1.2339 -0.7588 -0.5602
 8348TIP3   OH246534   0.814   6.251   0.037  0.0606  0.5397 -0.6696
 8348TIP3    H146535   0.753   6.295   0.096  2.6733  0.1013  2.7014
 8348TIP3    H246536   0.782   6.160   0.032 -0.7105  0.8092 -0.7534
 8349TIP3   OH246537   1.834   6.077  16.460 -0.1710 -0.3191 -0.0260
 8349TIP3    H146538   1.809   6.143  16.525  1.5690  0.7034 -0.3515
 8349TIP3    H246539   1.894   6.123  16.401  2.7301 -2.6729  0.8935
 8350TIP3   OH246540   5.858   3.193   5.173 -0.1040 -0.1395  0.0616
 8350TIP3    H146541   5.942   3.238   5.159 -0.8908  1.0177 -1.0812
 8350TIP3    H246542   5.796   3.237   5.116 -1.1764 -2.0224 -0.3372
 8351TIP3   OH246543   4.456   0.143  16.503  0.1588 -0.6027  0.1653
 8351TIP3    H146544   4.377   0.144  16.448  0.9072  0.2807 -0.9353
 8351TIP3    H246545   4.433   0.085  16.576 -0.7303 -2.1430 -1.2586
 8352TIP3   OH246546   5.258   2.212  11.535  0.5144  0.4969  0.5997
 8352TIP3    H146547   5.280   2.305  11.524 -2.1257  1.1357  0.0498
 8352TIP3    H246548   5.332   2.176  11.584  2.6197  2.3827 -0.9769
 8353TIP3   OH246549   6.486   4.329  10.921  0.2593 -0.0620 -0.1609
 8353TIP3    H146550   6.548   4.388  10.878  0.0476  1.3465  1.3665
 8353TIP3    H246551   6.411   4.325  10.862  0.0207  1.7255 -0.0449
 8354TIP3   OH246552   3.098   5.748   1.820  0.4179  0.1762  0.5140
 8354TIP3    H146553   3.009   5.766   1.790  0.6806 -0.1439 -0.5052
 8354TIP3    H246554   3.102   5.786   1.907 -0.2040  1.6817 -0.0757
 8355TIP3   OH246555   4.350   4.087   2.097  0.5953 -0.0078  0.3601
 8355TIP3    H146556   4.416   4.019   2.085  1.4845  0.8812  0.0347
 8355TIP3    H246557   4.352   4.137   2.015  1.0025  1.2790  1.1263
 8356TIP3   OH246558   0.842   0.394   5.257  0.3415  0.2637 -0.5580
 8356TIP3    H146559   0.869   0.440   5.336 -0.8403 -0.2265  0.1475
 8356TIP3    H246560   0.747   0.393   5.260  0.2251  0.8761 -2.3731
 8357TIP3   OH246561   0.491   5.565   1.239 -0.1156  0.0933 -0.2385
 8357TIP3    H146562   0.512   5.657   1.227 -2.6400  0.9043  0.9444
 8357TIP3    H246563   0.540   5.539   1.317  1.1094  0.2209 -0.9485
 8358TIP3   OH246564   5.914   0.714  13.598 -0.0429 -0.6446 -0.1202
 8358TIP3    H146565   5.968   0.707  13.520  0.3773  1.6000 -0.1114
 8358TIP3    H246566   5.856   0.789  13.581  1.1015  0.9195  2.2451
 8359TIP3   OH246567   0.102   2.620  13.210 -0.2728 -1.1725  0.2841
 8359TIP3    H146568   0.153   2.657  13.138  0.2856 -0.3119  1.0892
 8359TIP3    H246569   0.023   2.674  13.214 -0.4946 -1.4800  0.0564
 8360TIP3   OH246570   3.907   4.548  16.844  0.1611  0.1257 -0.0360
 8360TIP3    H146571   3.812   4.551  16.860  0.4388  1.1338  1.5756
 8360TIP3    H246572   3.929   4.635  16.812  0.8746  0.6394  1.7563
 8361TIP3   OH246573   5.131   4.683  13.404 -0.4616 -0.0761 -0.5437
 8361TIP3    H146574   5.181   4.694  13.323  0.6586  1.2894  0.2875
 8361TIP3    H246575   5.176   4.612  13.450  1.3097  1.6527  0.5523
 8362TIP3   OH246576   0.665   6.785   3.947  0.2762 -0.2062  0.2010
 8362TIP3    H146577   0.615   6.834   3.881  2.3686 -0.1548 -1.4607
 8362TIP3    H246578   0.700   6.852   4.005  0.6985  0.0076 -0.2973
 8363TIP3   OH246579   2.596   1.173   3.104 -0.2762 -0.3293 -0.8021
 8363TIP3    H146580   2.589   1.096   3.047 -2.2776 -1.2296  0.5557
 8363TIP3    H246581   2.506   1.199   3.119  0.1767 -0.0061  1.7717
 8364TIP3   OH246582   2.718   4.434   2.399  0.1218 -0.0308 -0.3962
 8364TIP3    H146583   2.796   4.473   2.439  0.0993 -0.3739 -0.0174
 8364TIP3    H246584   2.659   4.417   2.472 -0.0537 -0.3503 -0.6102
 8365TIP3   OH246585   6.114   4.280  10.929 -0.5243  0.2605 -0.1417
 8365TIP3    H146586   6.161   4.358  10.960  1.0884 -1.1391  1.1842
 8365TIP3    H246587   6.118   4.219  11.003 -1.9181 -1.0193 -1.0655
 8366TIP3   OH246588   1.514   0.165   3.491 -0.0576  0.1552  0.2604
 8366TIP3    H146589   1.501   0.213   3.409 -0.7264 -1.6378 -0.7458
 8366TIP3    H246590   1.478   0.222   3.559 -0.4327  1.2352 -0.8199
 8367TIP3   OH246591   3.263   2.971   0.439  0.3573  0.1254  0.3205
 8367TIP3    H146592   3.172   2.972   0.411 -0.0680  2.0071  1.6113
 8367TIP3    H246593   3.280   2.879   0.460 -1.4540 -0.1623  0.7014
 8368TIP3   OH246594   0.969   3.703   0.325  0.2037  0.2654 -0.2336
 8368TIP3    H146595   0.918   3.783   0.342  0.5943  0.5195 -0.2381
 8368TIP3    H246596   0.916   3.654   0.262 -0.3718  0.1875  0.2939
 8369TIP3   OH246597   4.086   0.185  14.699 -0.5081 -0.1434 -0.0095
 8369TIP3    H146598   4.157   0.191  14.763  0.2436  1.9194 -0.9349
 8369TIP3    H246599   4.117   0.237  14.625 -3.3923  1.7599 -0.0282
 8370TIP3   OH246600   1.031   2.714  12.531 -0.4979  0.0255 -0.1493
 8370TIP3    H146601   0.995   2.783  12.587  0.9569  0.6360  0.0929
 8370TIP3    H246602   1.023   2.750  12.442 -0.3585  0.2396 -0.0790
 8371TIP3   OH246603   6.753   6.513   5.642 -0.5843 -0.1785 -0.1075
 8371TIP3    H146604   6.806   6.592   5.633 -2.6897  1.1579 -1.6217
 8371TIP3    H246605   6.738   6.484   5.552 -1.0289 -1.4928  0.3656
 8372TIP3   OH246606   2.932   2.215  17.157 -0.0252  0.4480  0.1381
 8372TIP3    H146607   2.965   2.253  17.076  2.4750 -1.3549  0.1960
 8372TIP3    H246608   2.847   2.178  17.134  0.3082  0.6279 -1.4618
 8373TIP3   OH246609   3.963   6.255  13.068  0.7017  0.1202 -0.0878
 8373TIP3    H146610   3.886   6.245  13.124  1.2872  0.7396  0.8570
 8373TIP3    H246611   4.037   6.231  13.124  1.3136  0.8717 -0.5464
 8374TIP3   OH246612   5.831   2.477  12.005  0.1497 -0.1032  0.0971
 8374TIP3    H146613   5.767   2.532  12.049  0.3468  1.6772 -1.6883
 8374TIP3    H246614   5.779   2.411  11.960 -0.1978 -0.5068  1.0777
 8375TIP3   OH246615   4.132   2.902  14.593 -0.0466  0.5264 -0.3315
 8375TIP3    H146616   4.186   2.829  14.622  0.8889  0.8611 -1.1566
 8375TIP3    H246617   4.046   2.885  14.630  0.2649 -0.7628 -0.1598
 8376TIP3   OH246618   3.493   1.302   3.734  0.0708  0.0097  0.3835
 8376TIP3    H146619   3.554   1.294   3.808 -0.6772  0.2017  1.0435
 8376TIP3    H246620   3.406   1.305   3.776 -0.5608 -2.3703 -0.6182
 8377TIP3   OH246621   1.358   3.456  16.846  0.0524 -0.0966  0.1913
 8377TIP3    H146622   1.307   3.493  16.918  1.1237 -0.4907  1.1817
 8377TIP3    H246623   1.411   3.529  16.814 -1.1041  0.3283 -0.8762
 8378TIP3   OH246624   4.426   2.191  16.429 -0.4458  0.3978 -0.3455
 8378TIP3    H146625   4.373   2.190  16.349  0.4836 -1.2178 -0.9835
 8378TIP3    H246626   4.498   2.250  16.408 -0.1272 -0.1299 -0.7691
 8379TIP3   OH246627   4.340   4.986  11.070  0.7660 -0.2572 -0.4597
 8379TIP3    H146628   4.409   4.949  11.125 -0.7389  0.0528  1.7830
 8379TIP3    H246629   4.259   4.951  11.107 -0.3318 -0.6730 -3.0524
 8380TIP3   OH246630   4.705   0.481  10.719 -0.5286  0.0182 -0.0821
 8380TIP3    H146631   4.653   0.526  10.785 -1.1710 -1.6411  0.5996
 8380TIP3    H246632   4.642   0.459  10.650 -0.6355 -1.4063  0.4360
 8381TIP3   OH246633   6.641   6.040  12.578 -0.5145 -0.1132 -0.2532
 8381TIP3    H146634   6.681   5.954  12.589  1.0363  0.4607 -1.0786
 8381TIP3    H246635   6.701   6.100  12.622 -1.0071  0.6722 -0.6339
 8382TIP3   OH246636   2.416   1.433   3.328 -0.2047 -0.1949  0.1353
 8382TIP3    H146637   2.469   1.513   3.336  1.4027 -0.8822 -2.3141
 8382TIP3    H246638   2.475   1.362   3.354 -0.3632 -0.8448 -1.1473
 8383TIP3   OH246639   1.643   2.651   4.427 -0.1559  0.5048  0.1350
 8383TIP3    H146640   1.675   2.565   4.401 -0.6294 -0.5883  2.8305
 8383TIP3    H246641   1.629   2.697   4.344  0.7614 -1.7404 -1.3761
 8384TIP3   OH246642   4.031   5.806  12.045  0.1244  0.2003  0.2675
 8384TIP3    H146643   4.105   5.800  11.984  0.1012 -0.2196  0.2752
 8384TIP3    H246644   4.069   5.787  12.131 -0.2470 -1.5556  0.0806
 8385TIP3   OH246645   0.810   4.975  10.915  0.2264 -0.1880 -0.0077
 8385TIP3    H146646   0.793   4.920  10.991  1.0409  2.1197  1.9937
 8385TIP3    H246647   0.873   4.925  10.863  1.7859 -0.7663  2.2769
 8386TIP3   OH246648   2.540   5.303  11.767  0.0472 -0.1993  0.5949
 8386TIP3    H146649   2.577   5.268  11.686  1.5609 -0.4865  1.3617
 8386TIP3    H246650   2.452   5.330  11.744  1.0167  1.3972 -1.6118
 8387TIP3   OH246651   0.956   0.473  13.953  0.2778 -0.0887 -0.1087
 8387TIP3    H146652   0.988   0.454  13.865  0.2655  2.7408 -0.8092
 8387TIP3    H246653   0.872   0.516  13.940  0.7890  1.4340  1.1639
 8388TIP3   OH246654   6.580   0.735   3.560 -0.4927  0.5629  0.2061
 8388TIP3    H146655   6.506   0.676   3.575 -0.0521  0.3256  1.5413
 8388TIP3    H246656   6.551   0.791   3.488 -2.3873  1.1320  1.3459
 8389TIP3   OH246657   3.662   0.165  16.367 -0.7355 -0.4848  0.3043
 8389TIP3    H146658   3.725   0.117  16.421 -2.0344 -1.7298  0.7640
 8389TIP3    H246659   3.714   0.198  16.294  0.7070 -0.3069  1.3704
 8390TIP3   OH246660   1.553   6.093   4.596  0.1583 -0.1243  0.1032
 8390TIP3    H146661   1.508   6.028   4.542  1.3688  0.3149 -1.5314
 8390TIP3    H246662   1.491   6.166   4.602  0.4068  0.2995 -1.7568
 8391TIP3   OH246663   6.104   2.340   3.564 -0.0515  0.2379  0.1543
 8391TIP3    H146664   6.179   2.353   3.507  0.1447 -0.6433  0.2003
 8391TIP3    H246665   6.086   2.427   3.601  1.3530  0.3373  0.6702
 8392TIP3   OH246666   2.412   0.930  11.901 -0.6114  0.4180 -0.7315
 8392TIP3    H146667   2.465   1.008  11.885 -0.0472  0.4920  1.3381
 8392TIP3    H246668   2.331   0.947  11.852 -0.9020  2.7583  0.4333
 8393TIP3   OH246669   4.736   2.330   0.613  0.3165  0.4449  0.2485
 8393TIP3    H146670   4.800   2.395   0.643  0.6621  0.1942  0.0477
 8393TIP3    H246671   4.659   2.383   0.589  0.8601  0.8459 -0.6285
 8394TIP3   OH246672   6.019   6.208  12.927 -0.4669 -0.4706 -0.5125
 8394TIP3    H146673   5.952   6.225  12.862 -1.3788  0.0550  0.5235
 8394TIP3    H246674   6.098   6.190  12.877 -0.6305  1.8918 -1.7794
 8395TIP3   OH246675   3.278   0.608   5.934  0.3873 -0.7228  0.2961
 8395TIP3    H146676   3.343   0.631   5.867  0.8657  0.9762  1.2966
 8395TIP3    H246677   3.194   0.616   5.889  0.7334 -0.2219 -0.2800
 8396TIP3   OH246678   4.077   6.014  16.820 -0.0805 -0.5236 -0.0964
 8396TIP3    H146679   4.121   5.938  16.858 -0.6592 -1.7321 -1.7321
 8396TIP3    H246680   4.116   6.023  16.733  0.9904  1.9593  0.5399
 8397TIP3   OH246681   4.215   6.217   5.697  0.4765  0.1314  0.4963
 8397TIP3    H146682   4.253   6.181   5.617 -1.5263 -2.5746  0.6479
 8397TIP3    H246683   4.255   6.167   5.768 -0.4532 -0.0415  0.9169
 8398TIP3   OH246684   3.067   0.240  13.213  0.1354  0.3128  0.1324
 8398TIP3    H146685   2.999   0.175  13.233 -3.9064  4.4660  1.6129
 8398TIP3    H246686   3.125   0.236  13.289 -0.8739 -0.5792  0.9012
 8399TIP3   OH246687   4.122   1.999   1.333  0.5253 -0.2345  0.0505
 8399TIP3    H146688   4.086   1.911   1.339  0.7423 -0.3049  0.3348
 8399TIP3    H246689   4.148   2.009   1.242 -2.4431  0.6751 -0.8207
 8400TIP3   OH246690   6.100   1.072  17.269 -0.2640 -0.0456 -0.1223
 8400TIP3    H146691   6.141   0.996  17.313 -0.8196 -0.2322  0.0783
 8400TIP3    H246692   6.124   1.062  17.177  1.4115  0.6613  0.1881
 8401TIP3   OH246693   4.258   1.974  12.585  0.2203  0.2751  0.3653
 8401TIP3    H146694   4.237   2.054  12.634  0.3084  0.4289  0.1531
 8401TIP3    H246695   4.304   1.919  12.649  0.1336  0.3809  0.5213
 8402TIP3   OH246696   1.263   0.679  12.210  0.0617  0.1461  0.0705
 8402TIP3    H146697   1.241   0.722  12.127 -0.0442  0.7433  0.4012
 8402TIP3    H246698   1.342   0.629  12.191  0.1366  0.4211 -0.3486
 8403TIP3   OH246699   1.123   4.385   0.060  0.7462  0.0088 -1.0003
 8403TIP3    H146700   1.044   4.389   0.115  0.9897 -1.0381 -0.5436
 8403TIP3    H246701   1.179   4.455   0.094  0.5482 -0.0845 -0.4634
 8404TIP3   OH246702   3.021   3.929   0.759  0.3674  0.3275  0.2485
 8404TIP3    H146703   3.085   3.882   0.705 -1.1102 -0.5276 -0.8343
 8404TIP3    H246704   2.948   3.948   0.699 -0.2937  1.4907  1.3788
 8405TIP3   OH246705   6.800   0.029  14.299 -0.3709  0.0309 -0.2562
 8405TIP3    H146706   6.857  -0.048  14.293  0.4199  0.6523 -0.9054
 8405TIP3    H246707   6.711  -0.007  14.300  0.0127 -0.9336  0.4093
 8406TIP3   OH246708   4.403   3.366   4.318 -0.5372 -0.2568 -0.2716
 8406TIP3    H146709   4.481   3.402   4.361 -0.7517  1.2676 -1.1106
 8406TIP3    H246710   4.430   3.279   4.289 -0.5511 -1.6647  3.3910
 8407TIP3   OH246711   4.992   4.169  10.967 -0.2174 -0.2872  0.2764
 8407TIP3    H146712   5.031   4.253  10.942 -0.4155 -0.6767 -1.4603
 8407TIP3    H246713   5.052   4.134  11.033  0.0971  1.0162  0.7137
 8408TIP3   OH246714   4.947   5.394  15.776  0.5888 -0.0189  0.4359
 8408TIP3    H146715   4.924   5.403  15.683 -1.0980  1.0398  0.9010
 8408TIP3    H246716   4.865   5.368  15.818  0.9458  1.0107  1.8253
 8409TIP3   OH246717   2.918   2.223  13.756 -0.0548  0.5535  0.4131
 8409TIP3    H146718   2.875   2.147  13.797  1.2628 -1.3407 -1.4759
 8409TIP3    H246719   3.011   2.200  13.756  0.5145  2.6798  0.6976
 8410TIP3   OH246720   0.591   2.476   6.497  0.0379  0.0475  0.0372
 8410TIP3    H146721   0.627   2.399   6.540 -0.7274 -0.4964 -0.2658
 8410TIP3    H246722   0.646   2.549   6.526  1.8189 -0.8333 -0.9582
 8411TIP3   OH246723   4.407   5.778  11.237 -0.4737  0.3140 -0.2082
 8411TIP3    H146724   4.430   5.686  11.252 -0.0655  0.5330  0.5721
 8411TIP3    H246725   4.465   5.806  11.167 -0.2493  0.1191 -0.1013
 8412TIP3   OH246726   0.805   1.176  16.808 -0.1356  0.1476 -0.1752
 8412TIP3    H146727   0.741   1.187  16.878  1.8069  0.5059  1.6373
 8412TIP3    H246728   0.832   1.265  16.786  0.3847 -0.0414 -0.3100
 8413TIP3   OH246729   6.545   1.904   6.046  0.0477 -0.0446  0.1011
 8413TIP3    H146730   6.639   1.917   6.034 -0.1132  1.0385 -0.0640
 8413TIP3    H246731   6.511   1.990   6.067 -0.6634 -0.7392  2.0314
 8414TIP3   OH246732   4.205   6.473  16.278  0.3034 -0.0564  0.0025
 8414TIP3    H146733   4.237   6.520  16.201 -0.9239 -2.0359 -1.8132
 8414TIP3    H246734   4.256   6.392  16.280  0.3075 -0.0429  1.3055
 8415TIP3   OH246735   0.343   2.884   1.953 -0.4116  0.7293  0.1654
 8415TIP3    H146736   0.249   2.870   1.944 -0.5869  0.4768  2.1434
 8415TIP3    H246737   0.369   2.833   2.029  1.3155  0.8938 -0.2635
 8416TIP3   OH246738   1.580   4.558  16.476  0.1772  0.2064 -0.2771
 8416TIP3    H146739   1.535   4.491  16.527 -0.2934 -0.3396 -1.3869
 8416TIP3    H246740   1.607   4.623  16.541  1.9297 -1.7150  1.0322
 8417TIP3   OH246741   2.038   2.663   3.399  0.6012  0.0838 -0.4281
 8417TIP3    H146742   2.030   2.617   3.482 -0.9282  0.6227 -0.2607
 8417TIP3    H246743   2.023   2.596   3.333  0.8073 -0.1345 -0.2584
 8418TIP3   OH246744   6.546   3.868   2.044 -0.5899  0.6113  0.0666
 8418TIP3    H146745   6.620   3.916   2.080  1.4732 -1.6815 -0.7919
 8418TIP3    H246746   6.566   3.776   2.062 -2.5840 -0.1847 -1.3600
 8419TIP3   OH246747   6.683   4.121  13.282  0.6759  0.4265  0.0942
 8419TIP3    H146748   6.757   4.086  13.231  2.6935  1.1406  2.3359
 8419TIP3    H246749   6.689   4.077  13.367 -2.0567 -0.1109  0.1006
 8420TIP3   OH246750   3.684   2.463  10.611 -0.0060  0.3069  0.5222
 8420TIP3    H146751   3.639   2.383  10.638 -2.2006  0.7752 -1.4319
 8420TIP3    H246752   3.626   2.534  10.639  0.1533  1.0108 -0.8448
 8421TIP3   OH246753   1.742   4.313  12.063  0.4397  0.0217  0.3210
 8421TIP3    H146754   1.666   4.284  12.014  0.7479 -0.3032  0.0261
 8421TIP3    H246755   1.762   4.239  12.121  2.0951 -0.9959 -1.4375
 8422TIP3   OH246756   1.639   0.374   3.745 -0.2622  0.0407  0.2158
 8422TIP3    H146757   1.722   0.372   3.697 -0.8058 -0.2703 -0.7325
 8422TIP3    H246758   1.573   0.394   3.679 -0.9455  0.3454  0.9717
 8423TIP3   OH246759   3.789   1.251   3.131  0.4182 -0.4674 -0.1413
 8423TIP3    H146760   3.703   1.232   3.093 -0.1600 -2.1579  1.8034
 8423TIP3    H246761   3.779   1.338   3.169 -0.2224 -0.3557 -0.5443
 8424TIP3   OH246762   4.278   6.013  12.189 -0.1554 -0.3812  0.0833
 8424TIP3    H146763   4.350   5.992  12.249 -0.4996  1.6232  1.2943
 8424TIP3    H246764   4.199   5.997  12.241 -0.4602  1.3205  0.1962
 8425TIP3   OH246765   6.323   5.972   2.267  0.1336 -0.0640 -0.2797
 8425TIP3    H146766   6.321   6.017   2.182 -0.1163  1.5475  0.5470
 8425TIP3    H246767   6.232   5.949   2.283 -0.0637  1.0187  0.2393
 8426TIP3   OH246768   0.854   6.512  12.495 -0.3249  0.1613 -0.1001
 8426TIP3    H146769   0.867   6.573  12.569 -0.8779  2.1771 -1.5749
 8426TIP3    H246770   0.943   6.487  12.470 -0.0324  0.9446  0.1035
 8427TIP3   OH246771   0.395   0.673  11.571  0.2940 -0.6342 -0.8425
 8427TIP3    H146772   0.393   0.681  11.476  2.2183 -1.4930 -1.0043
 8427TIP3    H246773   0.373   0.760  11.603  2.2706  0.4080 -2.1326
 8428TIP3   OH246774   5.043   3.232   6.016 -0.3724  0.1194 -0.5546
 8428TIP3    H146775   5.005   3.172   6.081 -0.2533  1.4425  0.8194
 8428TIP3    H246776   5.136   3.211   6.015 -0.6176 -0.9980 -1.5463
 8429TIP3   OH246777   5.049   1.245   2.705 -0.3670 -0.1228  0.2328
 8429TIP3    H146778   4.983   1.230   2.773 -2.2030  2.6847 -0.7377
 8429TIP3    H246779   5.018   1.196   2.629  0.1401 -0.9431  0.5422
 8430TIP3   OH246780   6.189   5.135   2.170 -0.2622 -0.0158 -0.4253
 8430TIP3    H146781   6.175   5.209   2.228 -1.3524 -0.6755  0.1941
 8430TIP3    H246782   6.280   5.141   2.143 -0.1690  1.1698  0.1346
 8431TIP3   OH246783   1.419   2.936   4.284 -0.1338  0.7169  0.1221
 8431TIP3    H146784   1.436   3.021   4.325  2.8657  0.0293  0.5410
 8431TIP3    H246785   1.449   2.947   4.194 -2.3325  0.8414 -0.6497
 8432TIP3   OH246786   5.960   1.994  12.843 -0.0164  0.2978 -0.2192
 8432TIP3    H146787   6.012   2.026  12.770  0.3770 -0.6034 -0.3426
 8432TIP3    H246788   6.024   1.966  12.908 -0.2687 -1.8394 -0.8085
 8433TIP3   OH246789   5.540   6.441   2.492  0.2972  0.0469  0.4190
 8433TIP3    H146790   5.528   6.486   2.575  0.6358 -1.1536  1.1571
 8433TIP3    H246791   5.632   6.412   2.493  0.8576  1.5587 -1.1984
 8434TIP3   OH246792   3.425   0.531  15.329  0.2732 -0.2549 -0.1669
 8434TIP3    H146793   3.504   0.562  15.373 -0.6979  1.6904  0.3143
 8434TIP3    H246794   3.353   0.569  15.379 -1.0248 -2.2843 -0.3675
 8435TIP3   OH246795   1.234   2.906  14.552  0.3383  0.1686  0.6628
 8435TIP3    H146796   1.277   2.987  14.525  2.1469 -1.1412 -0.6034
 8435TIP3    H246797   1.263   2.891  14.642  0.8650  0.3861  0.5308
 8436TIP3   OH246798   3.393   4.464   1.850 -0.4339  0.6617  0.6023
 8436TIP3    H146799   3.446   4.439   1.925 -2.0742 -1.7684  1.0510
 8436TIP3    H246800   3.305   4.431   1.870 -0.8523 -0.4527 -2.5298
 8437TIP3   OH246801   1.618   5.675   2.386 -0.1144  0.0442  0.1638
 8437TIP3    H146802   1.684   5.606   2.379 -1.7347 -1.4832 -0.9700
 8437TIP3    H246803   1.562   5.648   2.458 -1.6474 -0.7073 -1.2330
 8438TIP3   OH246804   1.805   5.819  16.541 -0.8994 -0.8409 -0.0293
 8438TIP3    H146805   1.721   5.845  16.578  0.9072  1.8492  2.6411
 8438TIP3    H246806   1.830   5.891  16.484  0.2987 -0.7981  0.5195
 8439TIP3   OH246807   6.095   1.384  11.418 -0.6197  0.5309  0.2214
 8439TIP3    H146808   6.107   1.349  11.506 -0.9231 -0.5088 -0.1339
 8439TIP3    H246809   6.017   1.439  11.424  0.5309  2.1754  1.0591
 8440TIP3   OH246810   0.803   0.246  15.726 -0.3505 -0.2562  0.2783
 8440TIP3    H146811   0.737   0.193  15.682  2.7388 -3.0929 -1.3540
 8440TIP3    H246812   0.814   0.322  15.669 -1.9583  0.1817  0.4828
 8441TIP3   OH246813   4.025   4.045  10.813  0.2998  0.0785  0.1908
 8441TIP3    H146814   4.048   4.009  10.899  0.7339 -0.0131  0.0434
 8441TIP3    H246815   4.108   4.081  10.780 -0.0935  1.1041  0.2809
 8442TIP3   OH246816   1.846   3.136  15.425  0.2102  0.2412  0.2248
 8442TIP3    H146817   1.770   3.153  15.481  0.9949 -0.2501  1.4954
 8442TIP3    H246818   1.908   3.207  15.446 -0.2675  1.2621 -1.5811
 8443TIP3   OH246819   1.825   2.375  14.329  0.1746  0.2890  0.3676
 8443TIP3    H146820   1.876   2.365  14.249 -0.9557  1.0936 -0.4809
 8443TIP3    H246821   1.828   2.469  14.348 -0.8997  0.3348  0.3517
 8444TIP3   OH246822   0.847   4.215   0.026  0.0096 -0.9642 -0.1342
 8444TIP3    H146823   0.818   4.274  -0.043 -0.2047 -0.3226  0.4961
 8444TIP3    H246824   0.859   4.271   0.103  0.2002 -1.6693  0.3644
 8445TIP3   OH246825   3.550   0.864   3.783 -0.1450  0.6756  0.1833
 8445TIP3    H146826   3.643   0.887   3.777 -0.5379  2.2132 -0.5427
 8445TIP3    H246827   3.535   0.851   3.877  0.7292  0.7729  0.3509
 8446TIP3   OH246828   5.465   5.545   0.219 -0.4312 -0.4332 -0.0865
 8446TIP3    H146829   5.402   5.533   0.289 -0.7702 -1.4033 -0.5333
 8446TIP3    H246830   5.417   5.524   0.139 -0.5909  2.4560 -0.8440
 8447TIP3   OH246831   1.369   0.642   6.023  0.1601  0.2917 -0.1391
 8447TIP3    H146832   1.321   0.707   6.074  1.5473  1.4667 -0.2595
 8447TIP3    H246833   1.411   0.693   5.953  0.5996 -0.8724 -0.7541
 8448TIP3   OH246834   1.694   2.656  15.145 -0.0595  0.1917  0.2368
 8448TIP3    H146835   1.671   2.603  15.221  0.0286 -0.9864 -0.5105
 8448TIP3    H246836   1.756   2.601  15.096 -0.6844  0.5893 -1.0571
 8449TIP3   OH246837   4.401   6.326  13.173  0.3176 -0.6079 -0.5347
 8449TIP3    H146838   4.471   6.272  13.135  0.8752 -0.3756  0.1466
 8449TIP3    H246839   4.444   6.376  13.242 -0.3754  0.0704 -0.5776
 8450TIP3   OH246840   2.417   3.489  16.094 -0.0304 -0.4769 -0.0689
 8450TIP3    H146841   2.338   3.528  16.132  1.0944  2.0603 -0.1365
 8450TIP3    H246842   2.478   3.483  16.167  0.8758  0.9298 -0.6659
 8451TIP3   OH246843   6.359   1.779  13.132 -0.3279 -0.4983 -0.0282
 8451TIP3    H146844   6.332   1.718  13.201 -2.9917 -0.9976 -1.3581
 8451TIP3    H246845   6.364   1.724  13.053  0.3196  0.4671 -0.6768
 8452TIP3   OH246846   2.949   0.406  15.434 -0.2555  0.7057  0.1407
 8452TIP3    H146847   2.858   0.432  15.448 -0.4326  0.0965  0.1747
 8452TIP3    H246848   3.001   0.472  15.480 -0.6211  1.7919 -0.9576
 8453TIP3   OH246849   3.940   1.461  16.820 -0.0167  0.5471  0.2497
 8453TIP3    H146850   3.902   1.425  16.900  0.2709 -0.2418  0.0386
 8453TIP3    H246851   3.997   1.391  16.787  2.1167  1.9116  0.8871
 8454TIP3   OH246852   5.690   6.343   1.092  0.6578  1.1883 -0.0429
 8454TIP3    H146853   5.623   6.277   1.108  1.5541  0.3560  0.4153
 8454TIP3    H246854   5.773   6.299   1.114  1.1245  3.2143  2.9036
 8455TIP3   OH246855   5.032   4.834  15.635  0.2865  0.5874 -0.5863
 8455TIP3    H146856   5.057   4.891  15.562  0.7878 -0.4876 -1.2848
 8455TIP3    H246857   5.071   4.875  15.712  1.5273  0.6476 -1.2224
 8456TIP3   OH246858   1.489   3.908   1.727 -0.0106  0.0856  0.2074
 8456TIP3    H146859   1.477   3.933   1.819 -1.2120  3.0162 -0.6118
 8456TIP3    H246860   1.574   3.864   1.725  0.4751  0.7405  2.5956
 8457TIP3   OH246861   5.097   0.980   3.512 -0.3664 -0.7366 -0.9083
 8457TIP3    H146862   5.090   0.977   3.417  0.7431  0.6002 -1.0645
 8457TIP3    H246863   5.158   1.052   3.530 -1.0853 -0.4898  0.8344
 8458TIP3   OH246864   4.280   4.300  10.386 -0.3284 -0.0185  0.1415
 8458TIP3    H146865   4.271   4.371  10.450 -2.8221 -0.4930  0.4234
 8458TIP3    H246866   4.197   4.301  10.338 -0.0792 -2.1826 -0.4259
 8459TIP3   OH246867   6.400   6.043  13.059  0.2296  0.0156 -0.0498
 8459TIP3    H146868   6.465   5.998  13.005 -0.1394 -0.2747 -0.2539
 8459TIP3    H246869   6.339   5.975  13.086 -1.0534  0.5709 -1.4020
 8460TIP3   OH246870   5.923   3.007  15.169 -0.0031 -0.3294  0.4656
 8460TIP3    H146871   6.016   3.027  15.175  0.0858  0.1745 -1.9859
 8460TIP3    H246872   5.892   3.012  15.260  2.3370 -0.5846  1.3442
 8461TIP3   OH246873   5.821   0.441  13.595  0.1286 -0.4868  0.4862
 8461TIP3    H146874   5.857   0.528  13.611 -0.0543 -0.3913  0.3851
 8461TIP3    H246875   5.794   0.442  13.504  1.4215 -1.1265  0.0765
 8462TIP3   OH246876   3.148   0.359   3.724  0.8519  0.1828 -0.0068
 8462TIP3    H146877   3.116   0.341   3.636  1.9719  1.0864 -0.6189
 8462TIP3    H246878   3.126   0.451   3.739  2.1555  0.5126 -0.0189
 8463TIP3   OH246879   3.862   3.724  12.849 -0.5069 -0.1148 -0.6829
 8463TIP3    H146880   3.858   3.783  12.774 -0.1093  0.5964 -0.1601
 8463TIP3    H246881   3.954   3.697  12.854 -0.4360  0.2097 -0.1799
 8464TIP3   OH246882   2.373   2.945   5.769  0.2023  0.0238 -0.6473
 8464TIP3    H146883   2.321   2.897   5.704  0.1257 -1.0465  0.1683
 8464TIP3    H246884   2.412   2.876   5.823  0.0114  0.8965  0.6324
 8465TIP3   OH246885   2.524   5.420  15.989  0.1319 -0.5127 -0.2096
 8465TIP3    H146886   2.489   5.489  15.932  0.5600  1.5878  1.9267
 8465TIP3    H246887   2.448   5.369  16.015 -1.0149  2.0391  1.8165
 8466TIP3   OH246888   1.045   4.339   1.212  0.2761 -0.7270  0.2833
 8466TIP3    H146889   1.049   4.249   1.180  0.1591 -1.5763  2.4558
 8466TIP3    H246890   1.097   4.390   1.150 -0.3941 -2.1063 -1.4901
 8467TIP3   OH246891   6.483   4.248   0.487 -0.5418  0.3374 -1.0628
 8467TIP3    H146892   6.488   4.186   0.560 -0.4641 -1.0000 -2.1740
 8467TIP3    H246893   6.570   4.288   0.484 -0.1353 -0.5297 -1.1987
 8468TIP3   OH246894   4.324   1.011   4.114 -0.0885 -0.3440 -0.1614
 8468TIP3    H146895   4.281   1.025   4.198 -1.0092 -0.6529 -0.5665
 8468TIP3    H246896   4.417   1.002   4.136 -0.4298 -1.5663  0.9605
 8469TIP3   OH246897   5.730   1.844  16.217 -0.4189  0.8819 -0.9619
 8469TIP3    H146898   5.821   1.827  16.238 -0.7760  0.3024  0.1724
 8469TIP3    H246899   5.725   1.832  16.122  0.6412  0.7584 -1.0130
 8470TIP3   OH246900   6.111   2.901   4.382  0.3108  0.2461 -0.1926
 8470TIP3    H146901   6.132   2.994   4.377 -0.6330  0.4637 -0.2707
 8470TIP3    H246902   6.029   2.892   4.333  0.9918 -0.8267 -1.2160
 8471TIP3   OH246903   1.834   1.156  12.316  0.7833 -0.2410 -0.0613
 8471TIP3    H146904   1.894   1.082  12.301  0.3862 -0.7957  1.0111
 8471TIP3    H246905   1.815   1.154  12.409 -0.7208  0.0740 -0.3278
 8472TIP3   OH246906   5.453   1.355  11.994  0.2702 -0.0540 -0.1208
 8472TIP3    H146907   5.394   1.324  11.926  0.3064  1.5531 -0.9329
 8472TIP3    H246908   5.401   1.417  12.045  0.5317 -0.5123  0.7223
 8473TIP3   OH246909   0.667   3.725  15.111 -0.3122  0.1106  0.6266
 8473TIP3    H146910   0.740   3.760  15.163 -0.1631  0.3181  0.2790
 8473TIP3    H246911   0.592   3.779  15.137  0.0091  1.0088 -0.2369
 8474TIP3   OH246912   3.433   2.464   6.063 -0.3061  0.2013 -0.2316
 8474TIP3    H146913   3.342   2.480   6.038 -1.1337 -0.8759  1.8049
 8474TIP3    H246914   3.475   2.550   6.061 -2.0395  1.1417  1.1390
 8475TIP3   OH246915   3.953   6.677   4.728 -0.2609 -0.2139 -0.1898
 8475TIP3    H146916   3.990   6.656   4.814 -0.7338  1.9385  0.6073
 8475TIP3    H246917   3.951   6.593   4.682  1.1918 -1.2158  1.4221
 8476TIP3   OH246918   3.120   3.596   4.349  0.4050  0.2890  0.0305
 8476TIP3    H146919   3.025   3.590   4.364  0.4304  2.1443  1.2082
 8476TIP3    H246920   3.128   3.621   4.257 -0.2542  0.0144 -0.1056
 8477TIP3   OH246921   4.047   3.729   4.033  0.0192  0.2879  0.6535
 8477TIP3    H146922   4.054   3.824   4.045 -0.3029  0.5139 -0.8022
 8477TIP3    H246923   3.968   3.717   3.980  0.8212 -0.6744 -0.3781
 8478TIP3   OH246924   1.803   2.122  15.283 -0.4561  0.2163  0.4826
 8478TIP3    H146925   1.775   2.198  15.335  0.6708  0.4775  0.7407
 8478TIP3    H246926   1.829   2.159  15.199 -0.8296 -0.0132  0.2655
 8479TIP3   OH246927   0.900   0.073   2.148 -0.3996  0.0281  0.0123
 8479TIP3    H146928   0.870   0.112   2.231  0.3393  0.9491 -0.1304
 8479TIP3    H246929   0.861  -0.014   2.147 -0.8905  0.2160  1.0610
 8480TIP3   OH246930   5.159   5.893  12.500  0.4119  0.0285  0.6324
 8480TIP3    H146931   5.155   5.806  12.462  1.5159  0.3833 -0.3771
 8480TIP3    H246932   5.068   5.921  12.506  0.1218 -0.6412 -0.3724
 8481TIP3   OH246933   1.225   6.073   4.893 -0.1913  0.7228 -0.1315
 8481TIP3    H146934   1.162   6.145   4.879 -1.1255  0.0437  0.4231
 8481TIP3    H246935   1.250   6.082   4.985 -0.2011  0.4284 -0.1010
 8482TIP3   OH246936   2.155   5.400  12.579 -0.0271  0.0789  0.0693
 8482TIP3    H146937   2.082   5.457  12.606  0.3739  0.6920 -0.1143
 8482TIP3    H246938   2.226   5.423  12.638  0.2483  0.0153 -0.2360
 8483TIP3   OH246939   2.570   1.176   3.388 -0.1543  0.1641 -0.2910
 8483TIP3    H146940   2.567   1.082   3.402  1.4244  0.1429  0.1038
 8483TIP3    H246941   2.597   1.187   3.297 -1.9742  0.2753 -0.8596
 8484TIP3   OH246942   4.828   5.770  15.986  0.1825  0.7893  0.3525
 8484TIP3    H146943   4.911   5.800  15.948 -0.4015 -0.1492 -1.8806
 8484TIP3    H246944   4.850   5.688  16.030  0.5999  0.9890  0.5172
 8485TIP3   OH246945   2.290   4.201  15.639 -0.1361 -0.2440  0.1289
 8485TIP3    H146946   2.375   4.220  15.679 -1.0219 -0.7770  2.4065
 8485TIP3    H246947   2.226   4.213  15.710 -1.5412 -4.2766 -0.1763
 8486TIP3   OH246948   1.788   5.454  11.219 -0.0563  0.5276 -0.2326
 8486TIP3    H146949   1.777   5.534  11.271 -1.3868  0.8436 -0.9396
 8486TIP3    H246950   1.882   5.445  11.206  0.1032  2.0133 -0.1870
 8487TIP3   OH246951   4.662   3.438  13.364 -0.2886 -0.3015  0.0107
 8487TIP3    H146952   4.647   3.347  13.342 -0.9622 -0.1986  0.0325
 8487TIP3    H246953   4.739   3.463  13.313  0.3783 -1.0965  0.5961
 8488TIP3   OH246954   2.593   4.705  14.429 -0.1835  0.1864 -0.4648
 8488TIP3    H146955   2.664   4.715  14.366 -0.3016  1.2549 -0.4387
 8488TIP3    H246956   2.588   4.610  14.444  3.0159  0.2109  1.5889
 8489TIP3   OH246957   4.820   6.413   5.574 -0.2558 -0.1299 -0.0642
 8489TIP3    H146958   4.815   6.491   5.518  1.3494  0.1757  0.1700
 8489TIP3    H246959   4.843   6.447   5.660 -0.3394 -0.8033  0.2299
 8490TIP3   OH246960   6.437   2.300   6.579  0.4092 -0.7756 -0.4851
 8490TIP3    H146961   6.432   2.345   6.494  0.1748 -1.2135 -0.7078
 8490TIP3    H246962   6.437   2.371   6.643  3.4630 -0.2756 -0.8957
 8491TIP3   OH246963   1.393   0.064  10.871  0.4103 -0.1484 -0.2562
 8491TIP3    H146964   1.451   0.072  10.795  0.8884 -1.3227 -0.0304
 8491TIP3    H246965   1.385   0.153  10.904  0.0634  0.4172 -1.7776
 8492TIP3   OH246966   6.462   5.475   4.122  0.0350  0.2803 -0.3611
 8492TIP3    H146967   6.511   5.408   4.074  1.3759  0.9659 -0.0120
 8492TIP3    H246968   6.454   5.548   4.060 -0.3313  0.2561 -0.3396
 8493TIP3   OH246969   4.709   1.639   0.055  0.3344  0.4290 -0.1235
 8493TIP3    H146970   4.654   1.562   0.070  0.6616  0.1945 -0.1201
 8493TIP3    H246971   4.658   1.694  -0.004  0.3414 -0.0537 -0.5893
 8494TIP3   OH246972   4.536   6.671  16.921 -0.0990 -0.0567  0.1368
 8494TIP3    H146973   4.551   6.669  17.015 -0.0735  0.4198  0.1418
 8494TIP3    H246974   4.592   6.601  16.887  2.1181  1.6233  0.1663
 8495TIP3   OH246975   2.188   1.731   2.988 -0.0068  0.2247 -0.4500
 8495TIP3    H146976   2.124   1.788   2.945 -0.4605  1.2052  1.4355
 8495TIP3    H246977   2.136   1.655   3.017 -0.4447  1.1737  1.3748
 8496TIP3   OH246978   2.239   3.311   0.961 -0.0967 -0.6532  1.0570
 8496TIP3    H146979   2.269   3.274   1.045 -0.8381 -2.9135  0.4034
 8496TIP3    H246980   2.176   3.247   0.929 -0.8725  0.8717 -0.5950
 8497TIP3   OH246981   3.744   4.917  17.262 -0.2457  0.2177  0.5420
 8497TIP3    H146982   3.759   4.919  17.356 -2.0558 -0.8900  0.8999
 8497TIP3    H246983   3.672   4.978  17.247 -1.7299 -1.4877  0.3056
 8498TIP3   OH246984   5.924   3.016  13.654  0.1588  0.7163  0.4680
 8498TIP3    H146985   5.982   3.005  13.579 -0.0391 -3.4147  0.7291
 8498TIP3    H246986   5.978   2.995  13.730 -1.1021 -1.4017  0.8577
 8499TIP3   OH246987   1.671   5.104  12.103 -0.7622 -0.1981  0.3620
 8499TIP3    H146988   1.636   5.099  12.192 -0.2707  3.2258  0.8883
 8499TIP3    H246989   1.766   5.103  12.114 -0.6790  1.2986  0.0583
 8500TIP3   OH246990   2.536   4.085  12.923 -0.2586  0.2789 -0.3627
 8500TIP3    H146991   2.454   4.079  12.973 -0.5890 -0.2567 -0.9480
 8500TIP3    H246992   2.557   4.178  12.922 -1.9718  0.7141 -1.9042
 8501TIP3   OH246993   6.430   2.087   0.291 -0.0028  0.5289 -0.2190
 8501TIP3    H146994   6.456   2.013   0.236  2.3785  0.8292  0.4079
 8501TIP3    H246995   6.468   2.164   0.248  0.7516  0.9144  1.0746
 8502TIP3   OH246996   1.821   5.714  16.243 -0.0622  0.2205  0.0622
 8502TIP3    H146997   1.748   5.775  16.233  1.0403  1.4883 -0.5877
 8502TIP3    H246998   1.882   5.759  16.301  0.0647 -0.9827  0.9129
 8503TIP3   OH246999   4.001   2.551   4.781  0.0429 -0.3152 -0.2872
 8503TIP3    H147000   3.989   2.481   4.845  1.8473 -0.7252 -0.3542
 8503TIP3    H247001   3.936   2.618   4.806 -0.9052 -1.4805  0.4853
 8504TIP3   OH247002   6.143   5.829  11.577 -0.2231 -0.1695  0.5707
 8504TIP3    H147003   6.199   5.752  11.577  0.7948  0.4993  2.2624
 8504TIP3    H247004   6.058   5.798  11.608  0.3074 -0.5401  1.6781
 8505TIP3   OH247005   4.354   4.280   1.802 -0.2559  0.1852  0.0814
 8505TIP3    H147006   4.441   4.263   1.840  1.2862  1.7036 -2.4562
 8505TIP3    H247007   4.301   4.310   1.875  0.9359 -1.9237  1.9630
 8506TIP3   OH247008   6.239   0.788  11.834 -0.0492 -0.3158 -0.3360
 8506TIP3    H147009   6.167   0.725  11.832 -0.7163  0.4407 -0.6135
 8506TIP3    H247010   6.230   0.837  11.753 -0.6648  1.3625  0.6936
 8507TIP3   OH247011   1.369   2.918  11.788  0.0607 -0.0325 -0.0712
 8507TIP3    H147012   1.301   2.968  11.833 -0.5238 -0.3550 -0.5937
 8507TIP3    H247013   1.413   2.869  11.858 -0.1521  0.2727  0.2812
 8508TIP3   OH247014   6.644   1.713  15.123  0.2430  0.4668 -0.5200
 8508TIP3    H147015   6.599   1.796  15.141  0.6312  0.2644  1.7041
 8508TIP3    H247016   6.734   1.728  15.152  0.5943 -0.4057 -1.1225
 8509TIP3   OH247017   6.235   3.565   4.384  0.3365  0.4941  0.0814
 8509TIP3    H147018   6.271   3.568   4.472  1.5643 -0.8536 -0.3408
 8509TIP3    H247019   6.275   3.640   4.339 -0.8685  1.6364  0.8299
 8510TIP3   OH247020   2.683   6.412   4.964  0.5952 -0.2633 -0.1624
 8510TIP3    H147021   2.757   6.456   4.923 -1.0999  1.5447 -1.4982
 8510TIP3    H247022   2.625   6.389   4.891  0.1851 -2.4123  0.7588
 8511TIP3   OH247023   6.154   0.405   1.643  0.3490  0.3981 -0.7812
 8511TIP3    H147024   6.088   0.392   1.712  1.2711 -0.5113 -0.0359
 8511TIP3    H247025   6.106   0.390   1.562  0.0599 -2.6444 -0.1908
 8512TIP3   OH247026   0.525   2.950   4.024  0.1727 -0.0019  0.0864
 8512TIP3    H147027   0.457   2.971   3.960  0.1758 -0.4156 -0.0560
 8512TIP3    H247028   0.574   2.878   3.985  1.1911  0.8009 -0.1594
 8513TIP3   OH247029   0.157   1.145   4.885 -0.4499 -0.5964  0.0584
 8513TIP3    H147030   0.161   1.226   4.834 -1.6170  0.0507  0.9613
 8513TIP3    H247031   0.169   1.173   4.976  0.2598 -1.5780  0.2859
 8514TIP3   OH247032   3.321   2.704  11.448 -1.2249 -0.6110 -0.1374
 8514TIP3    H147033   3.263   2.628  11.438  0.7591 -2.3962  1.2083
 8514TIP3    H247034   3.409   2.667  11.451 -0.2099  1.7171  1.1153
 8515TIP3   OH247035   0.130   2.179   5.776  0.1906  0.6443  0.3746
 8515TIP3    H147036   0.165   2.132   5.852  1.5340  0.1751 -0.5068
 8515TIP3    H247037   0.204   2.187   5.717 -0.2496  3.0181  0.0645
 8516TIP3   OH247038   3.054   2.213  11.229  0.0622 -0.2769 -0.7022
 8516TIP3    H147039   3.134   2.160  11.228  0.5979  0.5206 -0.7854
 8516TIP3    H247040   2.996   2.168  11.290  0.6857 -0.6977 -0.4128
 8517TIP3   OH247041   4.808   4.656   5.505 -0.5900 -0.4855  0.6520
 8517TIP3    H147042   4.775   4.608   5.429  2.3039  0.3276 -1.2917
 8517TIP3    H247043   4.855   4.591   5.557 -3.4171 -1.2635  2.4659
 8518TIP3   OH247044   4.361   5.175  12.801 -0.0957  1.0569 -0.2703
 8518TIP3    H147045   4.383   5.162  12.893 -2.9299 -2.4569  0.1451
 8518TIP3    H247046   4.288   5.238  12.802  0.6578  1.9542 -0.2980
 8519TIP3   OH247047   1.012   5.977  10.516  0.0000  0.1494 -0.2592
 8519TIP3    H147048   0.962   6.042  10.565 -0.6306 -1.1108  0.8340
 8519TIP3    H247049   0.969   5.974  10.430 -0.3783  0.6840 -0.0966
 8520TIP3   OH247050   5.875   0.347   0.900  0.6458 -0.3427 -0.2212
 8520TIP3    H147051   5.821   0.273   0.931  1.8236 -0.9680  0.3939
 8520TIP3    H247052   5.955   0.342   0.953  1.0197  0.9990 -0.6237
 8521TIP3   OH247053   1.638   0.599   5.431 -0.3758  0.0940  0.4627
 8521TIP3    H147054   1.733   0.609   5.428 -0.3352 -0.1560  0.7343
 8521TIP3    H247055   1.609   0.614   5.341 -0.1338  0.6724  0.4785
 8522TIP3   OH247056   1.598   0.616   1.826  0.4145 -0.3144 -0.3314
 8522TIP3    H147057   1.623   0.559   1.753 -0.8490 -0.3800 -0.7256
 8522TIP3    H247058   1.590   0.703   1.787  2.1029  0.1343  0.2235
 8523TIP3   OH247059   3.997   5.695  14.986 -0.0786  0.2681  0.0741
 8523TIP3    H147060   3.993   5.786  15.015 -0.6685  0.6293 -1.1091
 8523TIP3    H247061   3.933   5.689  14.916  0.2838 -0.9518 -0.1740
 8524TIP3   OH247062   4.637   3.832   0.629 -0.2530 -0.2689 -0.0743
 8524TIP3    H147063   4.580   3.894   0.673  1.0124  0.0838  1.1260
 8524TIP3    H247064   4.636   3.859   0.537  1.1916  2.3290  0.5762
 8525TIP3   OH247065   6.292   2.927   1.396 -0.4372  0.0145  0.2739
 8525TIP3    H147066   6.231   2.886   1.456  0.1760 -0.9534  0.2660
 8525TIP3    H247067   6.349   2.855   1.367 -1.9957 -0.0573 -3.0926
 8526TIP3   OH247068   5.007   1.551   3.132 -0.8585 -0.0755  0.6133
 8526TIP3    H147069   4.912   1.558   3.138 -0.8516  0.0532  0.5783
 8526TIP3    H247070   5.030   1.594   3.050 -0.7894 -0.2912  0.5187
 8527TIP3   OH247071   5.516   3.278   3.123 -0.2119  0.0256  0.2065
 8527TIP3    H147072   5.484   3.275   3.033 -0.1915  2.9130  0.0122
 8527TIP3    H247073   5.565   3.196   3.134 -2.0200 -1.3961 -1.6433
 8528TIP3   OH247074   3.548   1.016   5.647  0.3182  0.0432 -0.1351
 8528TIP3    H147075   3.511   0.980   5.727  0.7799 -1.8709 -0.7422
 8528TIP3    H247076   3.643   1.019   5.663  0.4081 -0.2939 -0.5815
 8529TIP3   OH247077   5.229   0.115   0.716  0.9136 -0.3272 -0.1355
 8529TIP3    H147078   5.247   0.021   0.715 -0.6446 -0.6462 -1.1930
 8529TIP3    H247079   5.316   0.156   0.722  1.5871 -1.8150  1.0220
 8530TIP3   OH247080   5.199   2.360   3.488 -0.2749  0.4032  0.1890
 8530TIP3    H147081   5.126   2.420   3.504  0.7155  1.3162  1.4351
 8530TIP3    H247082   5.265   2.384   3.553  1.4942  0.1897 -1.4401
 8531TIP3   OH247083   2.633   3.787  14.136  0.2054  0.8079 -0.0392
 8531TIP3    H147084   2.597   3.703  14.165 -1.3235  1.0288 -1.1630
 8531TIP3    H247085   2.672   3.767  14.051  1.0095  0.9767  0.2876
 8532TIP3   OH247086   3.625   1.575  16.468 -0.2191 -0.4135 -0.0352
 8532TIP3    H147087   3.642   1.608  16.557  1.0013 -0.9913 -0.0410
 8532TIP3    H247088   3.531   1.590  16.456 -0.9808 -2.4751  2.2983
 8533TIP3   OH247089   2.505   1.119   1.524 -0.1887  0.1472 -0.2874
 8533TIP3    H147090   2.487   1.173   1.601  0.5039 -1.3147  0.9421
 8533TIP3    H247091   2.419   1.108   1.482 -1.0588 -1.0342  1.6555
 8534TIP3   OH247092   6.778   4.626  11.102 -0.0163 -0.0427 -0.4438
 8534TIP3    H147093   6.861   4.675  11.103 -0.0344  0.0143  1.3133
 8534TIP3    H247094   6.772   4.592  11.013  1.0946  1.3013 -1.0875
 8535TIP3   OH247095   3.880   0.233  13.339 -0.1722 -0.3352 -0.7837
 8535TIP3    H147096   3.849   0.155  13.295 -2.1281 -1.3675  2.0790
 8535TIP3    H247097   3.957   0.204  13.389  1.7236  0.7002 -2.9005
 8536TIP3   OH247098   5.000   2.517  17.111  0.8961 -0.2861 -0.4577
 8536TIP3    H147099   4.980   2.461  17.186 -1.0011 -3.2087 -2.9172
 8536TIP3    H247100   5.072   2.473  17.066  1.9756  1.3946 -0.4648
 8537TIP3   OH247101   3.120   2.279   2.656  0.2876  0.3502  1.0529
 8537TIP3    H147102   3.198   2.323   2.689  0.6192 -0.5871  1.5795
 8537TIP3    H247103   3.149   2.231   2.579 -0.0321  0.9096  0.5776
 8538TIP3   OH247104   4.473   0.328   2.396 -0.0847 -0.2210  0.8942
 8538TIP3    H147105   4.448   0.417   2.371 -1.0734 -0.3891  1.2621
 8538TIP3    H247106   4.412   0.271   2.350 -0.6211 -0.6175  2.0424
 8539TIP3   OH247107   3.256   2.719  17.214 -0.4366  0.1513 -0.2399
 8539TIP3    H147108   3.306   2.724  17.133  1.1334 -2.2203  0.5131
 8539TIP3    H247109   3.307   2.770  17.277 -1.2108  1.2557 -0.4618
 8540TIP3   OH247110   4.061   4.572   4.214  0.0213 -0.9905  0.2063
 8540TIP3    H147111   3.968   4.593   4.202  0.4428  2.1058  1.2403
 8540TIP3    H247112   4.103   4.605   4.135  0.4757  0.1370  0.8859
 8541TIP3   OH247113   6.672   0.457  11.369  0.2117  0.6996  0.4034
 8541TIP3    H147114   6.589   0.443  11.324 -0.3211  4.6187 -0.2025
 8541TIP3    H247115   6.738   0.422  11.308 -0.8101  0.6078 -0.6881
 8542TIP3   OH247116   1.648   5.989   5.062 -0.3311 -0.4315 -0.0928
 8542TIP3    H147117   1.650   6.084   5.077  0.6602 -0.6053  1.0351
 8542TIP3    H247118   1.724   5.972   5.007 -0.2853 -0.6145  0.0262
 8543TIP3   OH247119   2.466   4.393   4.160  0.1029  0.5331 -0.4875
 8543TIP3    H147120   2.494   4.334   4.090 -1.5352 -2.5878  1.3053
 8543TIP3    H247121   2.548   4.426   4.197  1.0604 -0.0474 -1.9615
 8544TIP3   OH247122   4.814   3.421  17.185  0.0211  0.3057  0.6774
 8544TIP3    H147123   4.808   3.337  17.139 -0.0613 -0.0141  1.2498
 8544TIP3    H247124   4.726   3.435  17.221 -0.1547  0.9968 -0.0172
 8545TIP3   OH247125   6.028   1.286   0.613  0.0951  0.1303 -0.8650
 8545TIP3    H147126   5.999   1.219   0.550 -0.8320  0.3727 -0.7019
 8545TIP3    H247127   5.967   1.277   0.687  0.5138  0.5705 -0.4640
 8546TIP3   OH247128   1.900   4.991   1.626 -0.1123  0.5212  0.0938
 8546TIP3    H147129   1.914   5.074   1.672  0.3815  0.5475 -0.1007
 8546TIP3    H247130   1.932   4.925   1.687 -0.3926  0.4827  0.1990
 8547TIP3   OH247131   0.567   0.025   2.230  0.2647 -0.4854  0.2823
 8547TIP3    H147132   0.638  -0.038   2.224  0.5931 -0.0186 -1.2031
 8547TIP3    H247133   0.496  -0.023   2.272  1.1853 -1.1837  1.1134
 8548TIP3   OH247134   6.318   3.631  14.407  0.0137  0.8114 -0.2574
 8548TIP3    H147135   6.314   3.570  14.481 -1.8544  1.0858 -0.0884
 8548TIP3    H247136   6.386   3.693  14.431 -0.1773  0.5687  0.9806
 8549TIP3   OH247137   4.101   3.348  16.685  0.4936  0.5103  0.3941
 8549TIP3    H147138   4.092   3.290  16.761 -0.7627 -0.1089 -0.2168
 8549TIP3    H247139   4.100   3.436  16.723 -2.8640  0.3365  0.9408
 8550TIP3   OH247140   0.432   1.841   1.331  0.2316  0.0080 -0.5558
 8550TIP3    H147141   0.392   1.778   1.272 -0.0318 -0.3908  0.0401
 8550TIP3    H247142   0.525   1.839   1.310  0.2048 -0.4841 -0.6288
 8551TIP3   OH247143   5.180   0.247  11.639  0.5176  0.1313 -0.4558
 8551TIP3    H147144   5.259   0.221  11.685 -0.2329  0.0684  0.8349
 8551TIP3    H247145   5.167   0.179  11.573  0.6346 -0.7411  0.4068
 8552TIP3   OH247146   3.428   4.738  14.321  0.0948  0.0750 -0.0585
 8552TIP3    H147147   3.493   4.784  14.374 -0.3923 -0.4003  0.9843
 8552TIP3    H247148   3.400   4.665  14.376  0.3083 -1.0430 -1.3840
 8553TIP3   OH247149   0.877   4.288   4.715  0.1431 -0.3068  0.6430
 8553TIP3    H147150   0.848   4.379   4.719  0.4846 -0.1977  0.6687
 8553TIP3    H247151   0.951   4.284   4.776  0.1201 -0.6046  0.6538
 8554TIP3   OH247152   3.740   5.829   0.570 -0.2402 -0.0347 -0.2031
 8554TIP3    H147153   3.680   5.773   0.619 -1.0596  0.9448 -0.0491
 8554TIP3    H247154   3.748   5.908   0.624  0.2636  0.3219 -0.7917
 8555TIP3   OH247155   3.254   6.748   2.157 -0.6521 -0.1133 -0.3364
 8555TIP3    H147156   3.245   6.763   2.063  0.2151  1.7599 -0.1638
 8555TIP3    H247157   3.333   6.693   2.165  2.2335  3.5631 -0.5832
 8556TIP3   OH247158   5.572   1.693   2.793  0.3728 -0.2368 -0.0574
 8556TIP3    H147159   5.564   1.603   2.824 -0.5479 -0.3002 -0.4280
 8556TIP3    H247160   5.497   1.705   2.735 -0.0204  1.0414  0.6683
 8557TIP3   OH247161   0.848   3.107   4.543 -0.5544 -0.0815 -0.0084
 8557TIP3    H147162   0.772   3.081   4.492 -0.1215  0.3423 -0.8897
 8557TIP3    H247163   0.917   3.121   4.478  0.2670 -0.4259  0.7688
 8558TIP3   OH247164   2.043   2.411   6.339 -0.2461  0.1726  0.1196
 8558TIP3    H147165   2.036   2.332   6.285 -0.2088 -0.0349  0.4161
 8558TIP3    H247166   2.084   2.381   6.420 -0.6225  0.4182  0.4025
 8559TIP3   OH247167   1.501   6.116   4.283 -0.6937  0.1930  0.3222
 8559TIP3    H147168   1.501   6.068   4.200 -0.1910 -0.0169  0.4393
 8559TIP3    H247169   1.433   6.182   4.272  1.1409  1.9536 -1.3061
 8560TIP3   OH247170   2.445   3.796   2.239 -0.2263 -0.0805  0.1648
 8560TIP3    H147171   2.481   3.871   2.288  1.4714 -0.7315 -0.0232
 8560TIP3    H247172   2.399   3.745   2.305 -2.4998  1.6960  0.0963
 8561TIP3   OH247173   6.462   4.864   4.640 -0.0930  0.4276  0.1579
 8561TIP3    H147174   6.555   4.875   4.622 -0.0239  0.1672  0.3454
 8561TIP3    H247175   6.444   4.772   4.619 -0.2421  0.3995  0.4075
 8562TIP3   OH247176   4.084   3.200  13.902 -0.3085  0.5720 -0.0327
 8562TIP3    H147177   4.002   3.153  13.886  0.1892 -0.1212 -0.6376
 8562TIP3    H247178   4.143   3.169  13.833  1.4220 -1.2135  2.0627
 8563TIP3   OH247179   6.029   5.464   5.627  0.1108  0.2959 -0.4850
 8563TIP3    H147180   5.996   5.456   5.537 -0.9569 -1.0057 -0.0160
 8563TIP3    H247181   5.974   5.531   5.667 -1.8493 -1.5993  0.1805
 8564TIP3   OH247182   1.104   2.530  14.342  0.0472 -0.1198  0.5956
 8564TIP3    H147183   1.178   2.561  14.394  1.0961 -0.7825 -0.4495
 8564TIP3    H247184   1.028   2.546  14.397  1.1075 -0.8276  2.3373
 8565TIP3   OH247185   1.119   4.268  14.275 -0.4004 -0.4257  0.0658
 8565TIP3    H147186   1.063   4.272  14.353 -0.5394  2.7872 -0.0722
 8565TIP3    H247187   1.060   4.291  14.203  0.1014 -1.7511 -0.8108
 8566TIP3   OH247188   3.079   0.531   0.840  0.0398 -0.2291 -0.0401
 8566TIP3    H147189   3.086   0.473   0.915 -0.4732  1.4707  1.3912
 8566TIP3    H247190   2.998   0.580   0.854  0.3736  0.7388 -1.2576
 8567TIP3   OH247191   5.644   5.081   5.171 -0.2225 -0.4280 -0.2087
 8567TIP3    H147192   5.624   5.173   5.186  0.7788 -0.3636  0.9055
 8567TIP3    H247193   5.597   5.059   5.091 -1.2376  0.7922  0.0089
 8568TIP3   OH247194   6.775   6.372   3.032 -0.3314  0.6139  0.0782
 8568TIP3    H147195   6.759   6.454   3.078 -1.0369  0.8408 -0.5624
 8568TIP3    H247196   6.838   6.395   2.964  1.1367  0.1697  1.2170
 8569TIP3   OH247197   5.115   5.122   5.726 -0.5912  0.7109 -0.2617
 8569TIP3    H147198   5.127   5.105   5.820  1.1841  0.0767 -0.5557
 8569TIP3    H247199   5.104   5.035   5.688 -1.6734  0.9917 -0.6267
 8570TIP3   OH247200   1.355   2.807  16.989 -0.1823 -0.1031 -0.2902
 8570TIP3    H147201   1.416   2.739  17.019 -1.4476 -0.8160  0.7545
 8570TIP3    H247202   1.324   2.775  16.905  0.1969 -0.1864 -0.4006
 8571TIP3   OH247203   6.075   1.870  17.069  0.2528 -0.9658  0.0127
 8571TIP3    H147204   6.128   1.836  16.997  0.6416 -2.3367  0.9010
 8571TIP3    H247205   5.996   1.904  17.027  1.2365 -0.1111 -1.2076
 8572TIP3   OH247206   6.537   1.775   4.968 -0.5332  0.4021 -0.3728
 8572TIP3    H147207   6.607   1.828   4.930 -0.4573 -0.0499 -0.8886
 8572TIP3    H247208   6.480   1.754   4.893 -1.6608  1.4201  0.1742
 8573TIP3   OH247209   3.800   5.976   2.602 -0.1002 -0.1187  0.3220
 8573TIP3    H147210   3.783   5.882   2.598  3.8876 -0.9673 -1.5077
 8573TIP3    H247211   3.842   5.996   2.518  0.6507  2.9788  1.3202
 8574TIP3   OH247212   2.960   5.599  11.708  0.0745 -0.2185  0.0423
 8574TIP3    H147213   2.895   5.545  11.753 -0.0292 -0.1866 -0.0681
 8574TIP3    H247214   2.913   5.679  11.683 -0.3141 -0.9064 -1.5524
 8575TIP3   OH247215   5.961   4.449   4.597 -0.7076 -0.0851 -0.2400
 8575TIP3    H147216   6.050   4.482   4.610 -1.3126  1.5837 -0.1326
 8575TIP3    H247217   5.918   4.517   4.546 -2.0804 -0.6372  0.1547
 8576TIP3   OH247218   3.827   1.402  17.063  0.4227 -0.0237 -0.7959
 8576TIP3    H147219   3.902   1.360  17.104 -0.2316  0.1977  0.7026
 8576TIP3    H247220   3.842   1.496  17.075 -1.7066  0.0453  2.8351
 8577TIP3   OH247221   3.751   3.065   4.029 -0.4445 -0.3197 -0.1523
 8577TIP3    H147222   3.774   3.152   3.995  0.5104 -0.7556 -0.6795
 8577TIP3    H247223   3.668   3.044   3.986 -1.3410  0.8374  0.9420
 8578TIP3   OH247224   3.754   0.434   5.556  0.7049  0.7068  0.2774
 8578TIP3    H147225   3.840   0.425   5.515  0.9339 -0.3136  0.9516
 8578TIP3    H247226   3.733   0.527   5.547  1.3466  0.7495 -0.9298
 8579TIP3   OH247227   4.657   5.045   0.794  0.0628  0.1543  0.3062
 8579TIP3    H147228   4.716   4.986   0.840  1.7264 -0.2645 -2.1973
 8579TIP3    H247229   4.712   5.091   0.731 -1.9617  1.1196 -0.8838
 8580TIP3   OH247230   5.051   3.663   4.231 -0.6255  0.1873 -0.3383
 8580TIP3    H147231   4.997   3.720   4.285  0.6520  2.2261 -1.0704
 8580TIP3    H247232   5.026   3.685   4.141 -0.2731 -0.6017 -0.6358
 8581TIP3   OH247233   2.006   2.149   0.217  0.2558  0.9752 -0.2318
 8581TIP3    H147234   1.991   2.079   0.281 -0.9032  1.5398  0.1504
 8581TIP3    H247235   2.065   2.111   0.152  0.5641  0.0276  0.5832
 8582TIP3   OH247236   0.073   4.964   2.467  0.4390 -0.3856 -0.4535
 8582TIP3    H147237   0.016   4.890   2.445  0.5375 -0.8329  0.7506
 8582TIP3    H247238   0.117   4.984   2.385 -2.1695  0.6366 -1.7136
 8583TIP3   OH247239   2.858   1.432  12.110 -0.0205  0.1746  0.1726
 8583TIP3    H147240   2.812   1.502  12.156 -0.1158 -0.2407  0.7246
 8583TIP3    H247241   2.936   1.473  12.074 -0.4322  0.7176 -0.1119
 8584TIP3   OH247242   1.325   2.490   4.063 -0.1608  0.2029  0.3684
 8584TIP3    H147243   1.269   2.429   4.014 -0.2281  0.8955 -0.4520
 8584TIP3    H247244   1.318   2.462   4.154 -1.2798 -0.1674  0.1822
 8585TIP3   OH247245   4.182   0.747  10.697  0.3116  0.5276  0.0250
 8585TIP3    H147246   4.144   0.823  10.741  2.2317  2.1380 -0.9639
 8585TIP3    H247247   4.274   0.768  10.687  0.8408 -1.7866 -0.6760
 8586TIP3   OH247248   1.426   3.919   5.444  0.1386 -0.3147  0.4767
 8586TIP3    H147249   1.436   3.902   5.351 -0.9894  2.2442 -0.2056
 8586TIP3    H247250   1.332   3.928   5.458  0.3841  1.1625  1.4444
 8587TIP3   OH247251   5.496   0.710   6.742  0.2353 -0.5355 -0.1563
 8587TIP3    H147252   5.590   0.722   6.731  0.0407  1.5141  0.1603
 8587TIP3    H247253   5.459   0.797   6.734 -1.5666 -1.1836  0.5654
 8588TIP3   OH247254   0.690   4.554   0.107 -0.4985  0.3528  0.3997
 8588TIP3    H147255   0.701   4.637   0.153  3.3498  1.5687 -2.2164
 8588TIP3    H247256   0.684   4.578   0.015  0.3917 -2.2241 -0.4246
 8589TIP3   OH247257   0.442   0.642   5.058 -0.2024  0.6970  0.2976
 8589TIP3    H147258   0.442   0.722   5.004 -1.4448  0.6076  0.1456
 8589TIP3    H247259   0.452   0.674   5.148  0.9919  0.8999  0.1217
 8590TIP3   OH247260   5.087   5.749  16.524  0.2758 -0.3978 -0.3328
 8590TIP3    H147261   5.045   5.666  16.504  0.9762 -0.9040  0.2655
 8590TIP3    H247262   5.026   5.815  16.491  0.0450 -1.1522 -1.4416
 8591TIP3   OH247263   6.725   4.044   2.280  0.2594  0.4061  0.2714
 8591TIP3    H147264   6.687   3.958   2.299 -0.7727  1.1826  1.9394
 8591TIP3    H247265   6.816   4.037   2.309  0.5960 -0.5291 -0.9240
 8592TIP3   OH247266   1.731   3.130  12.028  0.0225  0.3812 -0.0845
 8592TIP3    H147267   1.677   3.162  11.956 -1.8291  0.2657  1.1851
 8592TIP3    H247268   1.764   3.045  11.997 -0.3881  0.5270 -0.9427
 8593TIP3   OH247269   2.572   5.712  10.688 -0.1143  0.0991  0.2316
 8593TIP3    H147270   2.568   5.690  10.595  0.6580  1.6479 -0.1965
 8593TIP3    H247271   2.580   5.807  10.690 -1.5736  0.2536  1.9387
 8594TIP3   OH247272   0.947   0.295   0.161  0.2134 -0.1870 -0.7130
 8594TIP3    H147273   0.922   0.387   0.162 -3.2218 -0.7687  4.0706
 8594TIP3    H247274   0.886   0.254   0.099 -1.5500  0.3105  0.5901
 8595TIP3   OH247275   2.155   6.204  16.865  0.3580 -0.9112  0.4220
 8595TIP3    H147276   2.248   6.225  16.855  0.0269 -0.1382 -1.5705
 8595TIP3    H247277   2.130   6.167  16.780 -1.6436  0.9823  0.0946
 8596TIP3   OH247278   1.149   1.889   3.357  0.3451  0.0994  0.3020
 8596TIP3    H147279   1.058   1.858   3.362  0.0654  0.5630 -1.3624
 8596TIP3    H247280   1.197   1.830   3.415 -0.9672 -0.2800  1.0682
 8597TIP3   OH247281   5.060   3.248  15.119 -0.8906  0.2624 -0.4115
 8597TIP3    H147282   5.035   3.325  15.067 -0.4613  2.1947  2.0755
 8597TIP3    H247283   5.090   3.284  15.202  0.4718 -2.5734  0.4320
 8598TIP3   OH247284   1.570   1.862   5.027  0.5277 -0.0028 -0.2101
 8598TIP3    H147285   1.575   1.956   5.010 -0.9445  0.1088 -0.0858
 8598TIP3    H247286   1.575   1.822   4.941  0.1314  0.2340 -0.3430
 8599TIP3   OH247287   2.543   1.837  15.609  0.3126 -0.3232 -0.5653
 8599TIP3    H147288   2.629   1.810  15.576 -0.6505 -2.0601 -1.7807
 8599TIP3    H247289   2.481   1.781  15.563 -1.5337  1.2367 -0.0835
 8600TIP3   OH247290   3.212   4.843   3.965 -0.4889 -0.3670  0.3614
 8600TIP3    H147291   3.239   4.864   4.055 -0.7767 -0.1107  0.3916
 8600TIP3    H247292   3.163   4.761   3.973 -1.6728  0.3466  0.6433
 8601TIP3   OH247293   2.317   1.972   2.522 -0.1303 -0.1281 -0.1549
 8601TIP3    H147294   2.255   1.901   2.503  0.1356 -0.6130  0.7839
 8601TIP3    H247295   2.402   1.929   2.529 -0.1111  0.1118  1.4428
 8602TIP3   OH247296   0.756   0.231  11.430  0.0636  0.1186  0.4454
 8602TIP3    H147297   0.743   0.295  11.360  3.0447  0.7869  0.3369
 8602TIP3    H247298   0.721   0.273  11.508  1.2043  1.6176  0.2139
 8603TIP3   OH247299   1.381   4.915  12.857 -0.6310 -0.0447  0.9523
 8603TIP3    H147300   1.312   4.875  12.909 -0.3394 -0.7932  0.7698
 8603TIP3    H247301   1.448   4.940  12.920 -1.3525  1.3361  1.2226
 8604TIP3   OH247302   6.300   4.339  12.685 -0.7531 -0.0889 -0.8118
 8604TIP3    H147303   6.280   4.279  12.757 -0.0335  0.8825  0.2432
 8604TIP3    H247304   6.270   4.424  12.716 -0.2631  0.3739 -1.5813
 8605TIP3   OH247305   1.075   3.935  12.312  0.5158  0.2399  0.0028
 8605TIP3    H147306   1.167   3.960  12.323  0.0856  1.6849  0.6229
 8605TIP3    H247307   1.074   3.881  12.232  1.8158  0.6218 -0.3021
 8606TIP3   OH247308   3.546   5.408   0.351 -0.0979 -0.4021 -0.8574
 8606TIP3    H147309   3.550   5.378   0.442  1.6986  0.0699 -0.7414
 8606TIP3    H247310   3.459   5.447   0.343  0.6619  2.1283  1.5638
 8607TIP3   OH247311   1.835   5.702   4.607 -0.0457 -0.7730  0.0978
 8607TIP3    H147312   1.777   5.634   4.642  0.7802 -1.1169  0.8275
 8607TIP3    H247313   1.796   5.784   4.638 -0.6483 -0.9433 -0.1895
 8608TIP3   OH247314   1.873   6.095  14.577 -0.0900 -0.0397 -0.5804
 8608TIP3    H147315   1.892   6.189  14.581 -2.1478  0.5172 -2.0214
 8608TIP3    H247316   1.826   6.084  14.494 -2.1166 -1.8880  0.7083
 8609TIP3   OH247317   2.960   5.009  11.318  0.2248 -0.3796  0.2745
 8609TIP3    H147318   3.034   4.997  11.378  1.0192  2.0697 -0.0988
 8609TIP3    H247319   2.888   5.038  11.373  0.0731 -1.0020  0.4075
 8610TIP3   OH247320   6.045   6.396  10.652 -0.1277  0.4354 -0.3948
 8610TIP3    H147321   6.057   6.469  10.591 -0.5827  2.2413  1.5639
 8610TIP3    H247322   5.967   6.351  10.620 -0.8066  1.7900 -0.7656
 8611TIP3   OH247323   3.498   0.791   3.100  0.1036 -0.0026  0.6371
 8611TIP3    H147324   3.518   0.860   3.164 -0.3839 -0.2905  1.1109
 8611TIP3    H247325   3.582   0.773   3.058  0.4160  0.2540  1.1393
 8612TIP3   OH247326   4.905   6.210   2.795 -0.8390  0.1253 -0.2589
 8612TIP3    H147327   4.952   6.276   2.743  0.0157  0.1542  0.5237
 8612TIP3    H247328   4.849   6.261   2.854  1.5260  0.3542  2.0030
 8613TIP3   OH247329   3.923   4.290  15.660 -0.1744 -0.2371  0.8397
 8613TIP3    H147330   3.849   4.267  15.604  0.4367 -1.1400  0.3851
 8613TIP3    H247331   3.928   4.386  15.653 -1.5678 -0.1097  1.2492
 8614TIP3   OH247332   3.043   2.900  15.835  0.0028  0.1958  0.1300
 8614TIP3    H147333   2.992   2.959  15.780  0.4461 -0.2806 -0.8123
 8614TIP3    H247334   3.019   2.813  15.805  0.9778 -0.0460  0.0202
 8615TIP3   OH247335   3.950   4.575  15.708  0.2201 -0.4113 -0.0724
 8615TIP3    H147336   3.893   4.593  15.782 -0.2936  0.7056 -0.7292
 8615TIP3    H247337   4.014   4.647  15.708  1.6869 -1.6386  0.6635
 8616TIP3   OH247338   4.341   5.592   3.610 -0.6778 -0.2271 -0.2144
 8616TIP3    H147339   4.264   5.617   3.558  0.2474  0.2308 -1.4066
 8616TIP3    H247340   4.416   5.620   3.557  0.3207  1.1193  1.7676
 8617TIP3   OH247341   6.676   5.935  12.967  0.0951  0.4281  0.6092
 8617TIP3    H147342   6.712   6.012  12.923 -2.1364  2.1282  1.5055
 8617TIP3    H247343   6.645   5.878  12.896  0.3625  1.1098 -0.0657
 8618TIP3   OH247344   4.451   3.212  14.638 -0.3961  0.7975  0.0891
 8618TIP3    H147345   4.528   3.171  14.598 -0.4998  0.8688 -0.1856
 8618TIP3    H247346   4.381   3.200  14.573 -1.0842 -0.8707  1.0808
 8619TIP3   OH247347   4.735   5.240   2.131 -0.1210  0.8324  0.3216
 8619TIP3    H147348   4.804   5.206   2.188  1.2338  0.6609 -1.3192
 8619TIP3    H247349   4.675   5.167   2.118  1.2919 -0.1574 -0.9816
 8620TIP3   OH247350   0.052   1.639   3.818  0.1681  0.1746  0.3002
 8620TIP3    H147351   0.134   1.665   3.862  2.0290 -1.6799 -1.8136
 8620TIP3    H247352   0.018   1.567   3.871  0.2453  0.4926  0.7969
 8621TIP3   OH247353   0.444   5.656   4.373  0.2277  0.2438  0.0234
 8621TIP3    H147354   0.399   5.636   4.455 -0.0981 -1.1711 -0.4626
 8621TIP3    H247355   0.375   5.655   4.307  0.7613 -0.6327 -0.5432
 8622TIP3   OH247356   5.209   1.546   6.691 -0.1153  0.6681 -0.4890
 8622TIP3    H147357   5.193   1.633   6.654  2.1980  1.3221 -0.0538
 8622TIP3    H247358   5.290   1.555   6.740  0.8378 -2.0414 -1.4144
 8623TIP3   OH247359   5.649   5.926  15.208  0.0349 -0.4686  0.1607
 8623TIP3    H147360   5.729   5.936  15.156  0.8466 -0.1077  1.4258
 8623TIP3    H247361   5.580   5.959  15.151  0.9113  0.0539 -0.6383
 8624TIP3   OH247362   2.468   2.811  15.770 -0.1101 -0.1635 -0.0792
 8624TIP3    H147363   2.403   2.755  15.727 -0.0940 -0.4610  0.2705
 8624TIP3    H247364   2.483   2.768  15.855 -1.0541  1.0499  0.7445
 8625TIP3   OH247365   1.816   1.743   3.621  0.3420  0.2460 -0.3099
 8625TIP3    H147366   1.813   1.832   3.658  0.1936  0.5167 -0.9621
 8625TIP3    H247367   1.898   1.706   3.655  0.7448  0.8734 -0.5756
 8626TIP3   OH247368   0.917   5.104  17.024 -0.3256 -0.6647  0.0214
 8626TIP3    H147369   0.963   5.029  17.061 -0.9946 -0.8008  0.5891
 8626TIP3    H247370   0.979   5.176  17.032  1.8480 -1.8084 -3.9033
 8627TIP3   OH247371   4.496   1.509   0.937  0.2752  0.4989  0.2768
 8627TIP3    H147372   4.426   1.512   1.003  0.8385 -0.7857  0.9799
 8627TIP3    H247373   4.491   1.593   0.892 -0.6983  1.0581  1.3850
 8628TIP3   OH247374   0.713   1.594  15.193 -0.0218 -0.0115 -0.7674
 8628TIP3    H147375   0.762   1.607  15.112  2.4149  2.6617  0.9043
 8628TIP3    H247376   0.634   1.646  15.183 -0.1810 -0.4306 -1.7420
 8629TIP3   OH247377   4.339   5.548   3.171 -0.5180  0.3559 -0.1807
 8629TIP3    H147378   4.329   5.547   3.076 -1.1865 -2.7845 -0.1917
 8629TIP3    H247379   4.393   5.472   3.190 -1.4076  0.1991  2.0114
 8630TIP3   OH247380   4.512   2.496   5.036 -0.4550  0.0169  0.5574
 8630TIP3    H147381   4.577   2.509   5.105  0.4487  0.4866 -0.3558
 8630TIP3    H247382   4.434   2.540   5.069  0.5932  2.1234  0.4072
 8631TIP3   OH247383   4.528   5.768  13.286 -0.1115  0.0731  0.2924
 8631TIP3    H147384   4.480   5.745  13.366 -0.3026 -0.5178  0.0154
 8631TIP3    H247385   4.488   5.714  13.218  0.3474  0.2427 -0.1180
 8632TIP3   OH247386   4.301   1.075   5.584 -0.4784 -0.1496  0.1119
 8632TIP3    H147387   4.317   1.145   5.648 -1.2011  0.1016  0.0251
 8632TIP3    H247388   4.247   1.012   5.631  0.5583 -0.8869  0.3374
 8633TIP3   OH247389   3.030   2.086   0.110  0.5675  0.3753  0.2153
 8633TIP3    H147390   3.118   2.075   0.074  0.1193 -2.3623 -0.1969
 8633TIP3    H247391   2.984   2.137   0.044  1.5231  0.9608 -0.0319
 8634TIP3   OH247392   2.725   3.121   3.311  0.1736 -0.9590 -0.4079
 8634TIP3    H147393   2.661   3.068   3.358 -0.0508 -1.1399 -0.9228
 8634TIP3    H247394   2.704   3.211   3.336 -0.7243 -0.9650 -1.1150
 8635TIP3   OH247395   2.051   4.653   4.943  0.2114 -0.3055  0.3014
 8635TIP3    H147396   1.964   4.635   4.978 -0.6546  1.5323 -0.7695
 8635TIP3    H247397   2.094   4.706   5.011  0.4383 -1.0275  0.7332
 8636TIP3   OH247398   0.760   1.237  14.654  0.5019  0.6381  0.0570
 8636TIP3    H147399   0.685   1.195  14.696 -0.5786  0.7297 -1.6893
 8636TIP3    H247400   0.786   1.176  14.585  2.0410  0.6301  0.6059
 8637TIP3   OH247401   4.021   6.045  13.261  0.3434 -0.7428 -0.3028
 8637TIP3    H147402   4.094   5.998  13.302 -0.6363 -0.8391  1.4515
 8637TIP3    H247403   3.977   6.089  13.334  0.3466  1.7495 -1.7005
 8638TIP3   OH247404   2.092   2.673   0.489  0.2661 -0.1621 -0.3944
 8638TIP3    H147405   2.177   2.653   0.530  0.1633 -3.4875 -1.5123
 8638TIP3    H247406   2.107   2.660   0.395 -1.6383 -1.6863 -0.5487
 8639TIP3   OH247407   2.362   0.731   3.726 -0.1894 -0.2332  0.0930
 8639TIP3    H147408   2.286   0.674   3.709 -0.9218 -0.2880  2.9737
 8639TIP3    H247409   2.414   0.682   3.790  1.6355  0.3830 -0.8677
 8640TIP3   OH247410   5.398   5.706   3.091 -1.1499  0.2240  0.4183
 8640TIP3    H147411   5.456   5.710   3.167 -0.9473  0.4319  0.2563
 8640TIP3    H247412   5.352   5.790   3.092 -1.5849 -0.0107  0.6493
 8641TIP3   OH247413   3.650   6.439   6.119 -0.1691 -0.1135 -0.2538
 8641TIP3    H147414   3.649   6.344   6.131  0.7548 -0.1547 -0.4353
 8641TIP3    H247415   3.735   6.457   6.078  0.8611  1.0899  2.1955
 8642TIP3   OH247416   1.196   5.803  14.365 -0.3725  0.3580  0.1294
 8642TIP3    H147417   1.220   5.711  14.362 -1.0849  0.1788 -0.8198
 8642TIP3    H247418   1.219   5.836  14.278 -3.5906  0.1059 -0.9534
 8643TIP3   OH247419   0.396   5.726   2.074 -0.0664  0.4581 -0.0857
 8643TIP3    H147420   0.443   5.643   2.066  0.6286  0.9988 -2.5814
 8643TIP3    H247421   0.316   5.704   2.122  0.0419 -1.6804 -0.7844
 8644TIP3   OH247422   0.511   6.608  10.904  0.3958 -0.1683 -0.0910
 8644TIP3    H147423   0.515   6.656  10.987  0.3974  0.1589 -0.2790
 8644TIP3    H247424   0.593   6.558  10.901  0.1602 -0.5887  0.3480
 8645TIP3   OH247425   1.255   4.656  16.028  0.4648 -0.7219  0.4739
 8645TIP3    H147426   1.324   4.648  16.095  0.6263  1.0050  0.5437
 8645TIP3    H247427   1.303   4.673  15.947  0.1317  2.4178  0.8348
 8646TIP3   OH247428   1.821   5.091   3.339 -0.4607  0.1665  0.6377
 8646TIP3    H147429   1.882   5.021   3.315  1.3881  0.4612  3.8940
 8646TIP3    H247430   1.854   5.168   3.293 -0.4348 -0.3671 -0.2602
 8647TIP3   OH247431   4.084   0.664   0.375  0.9240  0.0980  0.0672
 8647TIP3    H147432   4.149   0.593   0.377  1.1029  0.2578  0.0017
 8647TIP3    H247433   4.007   0.625   0.334  0.8716 -0.1804  0.4261
 8648TIP3   OH247434   5.193   6.683  12.793  0.4550  0.1358 -0.0709
 8648TIP3    H147435   5.201   6.607  12.736  1.9258 -0.0108  0.2954
 8648TIP3    H247436   5.282   6.718  12.799 -0.0278  1.3021  0.5523
 8649TIP3   OH247437   4.553   4.542  11.438 -0.3944  0.1511 -0.8503
 8649TIP3    H147438   4.596   4.532  11.523 -0.5763 -0.9523 -0.8773
 8649TIP3    H247439   4.508   4.626  11.444 -1.5333 -0.5156  0.6754
 8650TIP3   OH247440   4.644   2.214   5.242 -0.5358  0.0189  0.0084
 8650TIP3    H147441   4.568   2.265   5.271 -1.9297 -1.3116 -1.1223
 8650TIP3    H247442   4.670   2.163   5.319 -1.8835 -0.7764 -0.0372
 8651TIP3   OH247443   6.149   6.754  11.525 -0.2928 -0.6484 -0.1600
 8651TIP3    H147444   6.146   6.814  11.600 -1.5861 -0.1456 -0.5891
 8651TIP3    H247445   6.223   6.696  11.544 -0.9188 -0.8895  1.7666
 8652TIP3   OH247446   6.639   6.248   1.557  0.1578  0.1753 -0.2481
 8652TIP3    H147447   6.710   6.245   1.622  1.2415  1.4016 -1.3147
 8652TIP3    H247448   6.629   6.158   1.528  2.1081  0.1347 -0.9002
 8653TIP3   OH247449   1.066   4.495   5.230  0.0124  0.0111 -0.1469
 8653TIP3    H147450   1.026   4.575   5.264 -1.3753 -0.3198 -0.9051
 8653TIP3    H247451   1.112   4.522   5.151  0.2393  0.1913  0.0468
 8654TIP3   OH247452   3.631   3.473  14.998 -1.1326 -0.4682 -0.3499
 8654TIP3    H147453   3.544   3.434  14.993 -1.2024 -0.3647 -0.0018
 8654TIP3    H247454   3.690   3.405  14.965 -1.4859 -0.0079 -1.9807
 8655TIP3   OH247455   3.548   3.569   5.231 -0.4100  0.3460 -0.5875
 8655TIP3    H147456   3.541   3.653   5.277  1.2214  0.7637 -1.0217
 8655TIP3    H247457   3.538   3.592   5.139  0.4050  0.1334 -0.7358
 8656TIP3   OH247458   2.955   6.145   0.239  0.3208 -0.0700  0.3060
 8656TIP3    H147459   2.962   6.183   0.326 -1.1833  0.1763  0.3391
 8656TIP3    H247460   3.022   6.191   0.187  0.8512  0.1663  1.1716
 8657TIP3   OH247461   4.284   2.706  16.182  0.3652  0.3331 -0.3458
 8657TIP3    H147462   4.315   2.625  16.140 -0.8919 -1.2928  1.6498
 8657TIP3    H247463   4.363   2.755  16.203  1.3846 -1.6418  0.7118
 8658TIP3   OH247464   4.429   2.855  13.405  0.6576 -0.0164 -0.2850
 8658TIP3    H147465   4.476   2.921  13.457  0.1725  2.0895 -2.3426
 8658TIP3    H247466   4.440   2.884  13.314 -1.4228 -1.6009 -1.1192
 8659TIP3   OH247467   0.760   5.977   0.867 -0.2479 -0.3595 -0.3371
 8659TIP3    H147468   0.725   5.895   0.902  0.2081 -1.8387 -3.0906
 8659TIP3    H247469   0.695   6.006   0.804  0.9991 -0.2900 -1.6375
 8660TIP3   OH247470   3.499   5.360  16.141 -0.1485 -0.0022  0.0218
 8660TIP3    H147471   3.512   5.338  16.049  0.7456 -0.4717  0.2488
 8660TIP3    H247472   3.405   5.355  16.154 -0.5408  2.3504 -1.4206
 8661TIP3   OH247473   1.824   6.461  16.802 -0.0179 -0.5430 -0.1093
 8661TIP3    H147474   1.913   6.427  16.791  0.4863  1.0819 -1.4475
 8661TIP3    H247475   1.827   6.509  16.885  0.4367 -0.3155 -0.2499
 8662TIP3   OH247476   5.679   4.687   4.242 -0.1334  0.1581  0.0021
 8662TIP3    H147477   5.696   4.606   4.193 -0.0103  0.6339 -0.7618
 8662TIP3    H247478   5.654   4.750   4.175  2.4291  1.5208  0.1943
 8663TIP3   OH247479   5.487   3.557  11.023 -0.1449 -0.3639  0.4894
 8663TIP3    H147480   5.540   3.636  11.011 -0.7371  0.1464  1.1653
 8663TIP3    H247481   5.427   3.556  10.948 -0.5213  0.1411  0.7814
 8664TIP3   OH247482   6.800   6.411  12.870 -0.4802  0.5353  0.1013
 8664TIP3    H147483   6.867   6.446  12.929  0.3683 -0.2037 -0.4071
 8664TIP3    H247484   6.773   6.329  12.910 -1.5010  1.0766  0.5834
 8665TIP3   OH247485   1.510   5.541   5.207 -0.1339 -0.1913 -0.0126
 8665TIP3    H147486   1.476   5.571   5.291 -1.8702 -1.4731 -0.1967
 8665TIP3    H247487   1.469   5.455   5.194 -0.4864  0.2769 -2.4814
 8666TIP3   OH247488   5.464   0.434  16.039  0.2871 -0.3901  0.3869
 8666TIP3    H147489   5.509   0.517  16.056 -0.2705 -0.3239  1.6958
 8666TIP3    H247490   5.533   0.374  16.010  1.6789 -0.8016  3.9795
 8667TIP3   OH247491   6.293   0.559  10.900  0.1001  0.2493  0.5369
 8667TIP3    H147492   6.295   0.651  10.873 -1.3285  0.2090  0.2053
 8667TIP3    H247493   6.248   0.560  10.985  1.6800  0.0268  1.4002
 8668TIP3   OH247494   2.844   4.786   4.848  0.5613 -0.1196 -0.2525
 8668TIP3    H147495   2.786   4.746   4.784 -0.7654  0.6101  0.4619
 8668TIP3    H247496   2.897   4.714   4.881 -1.0384 -1.1089  0.2287
 8669TIP3   OH247497   3.432   4.333   0.223 -0.2288 -0.4313  0.3939
 8669TIP3    H147498   3.368   4.377   0.168 -0.9466 -0.3839  1.2463
 8669TIP3    H247499   3.440   4.389   0.300  0.6668 -0.5587  0.4056
 8670TIP3   OH247500   1.121   3.296  12.492 -0.2752  0.4414 -0.7203
 8670TIP3    H147501   1.059   3.356  12.450 -0.8975 -0.2905 -0.8610
 8670TIP3    H247502   1.100   3.210  12.456  0.1155  0.0177  0.0376
 8671TIP3   OH247503   0.535   4.628  15.799 -0.6154 -0.1640  0.5210
 8671TIP3    H147504   0.626   4.656  15.793 -0.0600 -1.7049  1.2565
 8671TIP3    H247505   0.508   4.610  15.709  0.1650 -0.7696  0.4058
 8672TIP3   OH247506   2.692   6.161   1.265 -0.3447  0.3401 -1.0058
 8672TIP3    H147507   2.638   6.229   1.225  0.8610  0.5809 -2.2716
 8672TIP3    H247508   2.782   6.191   1.252  0.1385  0.3613  1.7836
 8673TIP3   OH247509   3.210   0.961  13.296  0.2336 -0.3585 -0.4186
 8673TIP3    H147510   3.200   0.926  13.384  1.0132  0.0522 -0.1626
 8673TIP3    H247511   3.304   0.973  13.284  0.0578  0.7258 -0.8549
 8674TIP3   OH247512   6.556   5.507  11.275  0.0449  0.5448  0.3545
 8674TIP3    H147513   6.499   5.432  11.259  0.5558  0.4209 -1.0394
 8674TIP3    H247514   6.519   5.578  11.223 -0.1520  1.1303  1.2755
 8675TIP3   OH247515   0.140   1.766   0.303  0.0572  0.2912 -0.1500
 8675TIP3    H147516   0.054   1.744   0.338  1.0689  0.0350  2.3898
 8675TIP3    H247517   0.133   1.858   0.278 -0.4996  0.7752  1.6503
 8676TIP3   OH247518   2.771   2.709   6.003  0.2103  0.4333  0.4616
 8676TIP3    H147519   2.866   2.700   6.015 -0.1742 -0.9805  2.9939
 8676TIP3    H247520   2.751   2.795   6.039  0.4757  0.6299  0.1508
 8677TIP3   OH247521   5.800   5.464   6.214 -0.1339  0.6086 -0.5212
 8677TIP3    H147522   5.734   5.521   6.252 -0.9446  0.1827 -1.2616
 8677TIP3    H247523   5.866   5.523   6.179 -0.3171  1.0491 -0.1236
 8678TIP3   OH247524   5.584   5.499   5.469 -0.1913 -0.6874 -0.2582
 8678TIP3    H147525   5.580   5.467   5.378  1.2665  0.4290 -0.7648
 8678TIP3    H247526   5.652   5.567   5.467  1.4549 -2.1278  2.1335
 8679TIP3   OH247527   0.630   6.291  11.430  0.4883  0.2278 -0.0851
 8679TIP3    H147528   0.663   6.380  11.427  1.5724 -0.1447  0.3882
 8679TIP3    H247529   0.538   6.299  11.404  0.6876  1.4114 -0.4929
 8680TIP3   OH247530   0.752   0.565  15.922  0.3335  0.9630 -0.2612
 8680TIP3    H147531   0.816   0.509  15.966 -0.1441  0.5420 -0.0961
 8680TIP3    H247532   0.729   0.631  15.988 -0.3773  0.3358  0.1255
 8681TIP3   OH247533   1.267   1.420   5.607 -0.4311  0.0920  0.3681
 8681TIP3    H147534   1.353   1.377   5.604  0.1026  1.1943 -1.6337
 8681TIP3    H247535   1.224   1.381   5.683  0.8350 -2.4176 -0.0952
 8682TIP3   OH247536   5.027   6.099  11.325 -0.1160 -0.1401  0.0450
 8682TIP3    H147537   4.981   6.093  11.241 -2.1719  0.8716  1.0236
 8682TIP3    H247538   4.993   6.179  11.365  2.8219  0.9191  0.7299
 8683TIP3   OH247539   4.535   5.403   4.769  0.5642  0.2833 -0.7491
 8683TIP3    H147540   4.537   5.307   4.774  0.2667  0.2262 -1.5975
 8683TIP3    H247541   4.626   5.429   4.782  0.4434 -0.0106  1.0329
 8684TIP3   OH247542   1.583   4.616  12.599 -0.0929 -0.4310  0.0721
 8684TIP3    H147543   1.582   4.530  12.643  2.5117 -0.2286  0.7061
 8684TIP3    H247544   1.636   4.602  12.521 -0.2408  0.4452 -0.1923
 8685TIP3   OH247545   1.088   0.071   6.540  0.3774 -0.1853  0.0628
 8685TIP3    H147546   1.129   0.003   6.594 -0.5430 -0.5284  0.3526
 8685TIP3    H247547   1.021   0.109   6.596 -0.2010 -0.1437 -0.6494
 8686TIP3   OH247548   6.740   0.810  14.219  0.2111 -0.6366  0.6710
 8686TIP3    H147549   6.821   0.807  14.167 -0.0283 -1.0775  0.3125
 8686TIP3    H247550   6.742   0.729  14.270 -0.9047 -1.5855 -0.7350
 8687TIP3   OH247551   0.174   6.423  10.914 -0.0651 -0.3055 -0.5347
 8687TIP3    H147552   0.154   6.412  11.007  0.3032 -2.2677 -0.6435
 8687TIP3    H247553   0.266   6.450  10.912 -0.2056  0.2037 -0.3258
 8688TIP3   OH247554   5.453   1.742   0.915 -0.3201  0.1861  0.2415
 8688TIP3    H147555   5.446   1.666   0.973 -1.3867  0.6066  0.6920
 8688TIP3    H247556   5.372   1.791   0.930 -0.2188  0.7536 -0.9842
 8689TIP3   OH247557   5.446   0.848   5.490 -0.2028  0.8649 -0.3443
 8689TIP3    H147558   5.463   0.861   5.583  1.5990  1.8344 -0.7586
 8689TIP3    H247559   5.441   0.752   5.480 -1.0733  0.7721  0.8236
 8690TIP3   OH247560   4.951   5.819   4.917 -0.5557 -0.5327  0.5517
 8690TIP3    H147561   4.935   5.903   4.873 -1.9149 -0.8581  0.3996
 8690TIP3    H247562   4.975   5.759   4.846  0.4567 -0.2812  0.6656
 8691TIP3   OH247563   3.102   0.626  11.401  0.2500 -0.2710  0.3661
 8691TIP3    H147564   3.036   0.623  11.470  2.2508 -0.7684  2.3798
 8691TIP3    H247565   3.063   0.578  11.328 -1.2170 -1.4862  1.8760
 8692TIP3   OH247566   4.916   6.569  16.573 -0.1108 -0.1960 -0.0475
 8692TIP3    H147567   4.907   6.484  16.616 -2.5467  0.8405  1.7209
 8692TIP3    H247568   5.006   6.596  16.590  1.2927 -3.0648 -2.1174
 8693TIP3   OH247569   6.593   0.059   0.113  0.5544 -0.5387  0.4390
 8693TIP3    H147570   6.525   0.127   0.116  0.8677 -0.0902 -1.4853
 8693TIP3    H247571   6.546  -0.021   0.092  0.4687 -0.4610  0.3322
 8694TIP3   OH247572   4.985   3.130  16.877  0.7342  0.0731 -0.0466
 8694TIP3    H147573   4.921   3.090  16.936 -0.4769 -1.7257 -2.4255
 8694TIP3    H247574   4.941   3.135  16.793  2.8762  1.2206 -1.1897
 8695TIP3   OH247575   2.068   0.522  15.772 -0.0647  0.2792 -0.0609
 8695TIP3    H147576   2.108   0.435  15.768 -1.5917 -0.6520  2.7501
 8695TIP3    H247577   2.142   0.582  15.774  1.0241 -0.8906 -1.9055
 8696TIP3   OH247578   5.587   3.423  15.373  0.6783  0.4002  0.4613
 8696TIP3    H147579   5.584   3.464  15.287 -0.3100 -0.9345 -0.1675
 8696TIP3    H247580   5.679   3.401  15.386  0.6044 -0.9531 -1.0475
 8697TIP3   OH247581   0.301   6.564  14.889 -0.0372  0.1810  0.4671
 8697TIP3    H147582   0.388   6.532  14.867 -0.6538 -1.2325 -0.0410
 8697TIP3    H247583   0.245   6.529  14.820 -0.7929  2.3949 -0.1447
 8698TIP3   OH247584   2.320   5.700   0.018 -0.3044  0.3642 -0.2712
 8698TIP3    H147585   2.287   5.781  -0.019 -1.3125  0.4291  0.7014
 8698TIP3    H247586   2.245   5.641   0.020  0.1731 -0.2615 -0.0673
 8699TIP3   OH247587   6.101   4.936  10.547  0.4283 -0.1454 -0.0132
 8699TIP3    H147588   6.022   4.901  10.507  1.1150 -1.3024 -0.4067
 8699TIP3    H247589   6.136   4.864  10.598  0.5459  0.7593  1.2255
 8700TIP3   OH247590   5.462   4.552  14.961  0.0244  0.1733 -0.2076
 8700TIP3    H147591   5.538   4.600  14.993  0.5011 -1.3894  1.1203
 8700TIP3    H247592   5.486   4.460  14.969 -2.0034 -0.3597  0.2473
 8701TIP3   OH247593   6.692   1.513   1.026 -0.3364 -0.0378  0.6417
 8701TIP3    H147594   6.672   1.431   0.981  0.9796 -0.4750  0.7970
 8701TIP3    H247595   6.720   1.572   0.956  0.0786 -0.1781  0.6872
 8702TIP3   OH247596   3.509   3.683   5.903 -0.7598 -0.6075  0.0676
 8702TIP3    H147597   3.545   3.701   5.990  0.0918 -1.2988 -0.1302
 8702TIP3    H247598   3.584   3.654   5.852 -1.6127 -2.1652 -0.3541
 8703TIP3   OH247599   4.676   6.012  11.477 -0.3253 -0.1925 -0.3311
 8703TIP3    H147600   4.624   6.089  11.455 -0.4668 -0.7968 -2.3246
 8703TIP3    H247601   4.752   6.047  11.523 -1.7275  0.8407  1.3366
 8704TIP3   OH247602   0.430   2.323  17.136  0.1880  0.0050 -0.2607
 8704TIP3    H147603   0.404   2.329  17.044  1.0283  3.0775 -0.4112
 8704TIP3    H247604   0.526   2.315  17.134  0.3796  1.6994  0.2824
 8705TIP3   OH247605   5.505   3.741   0.480  0.3527 -0.1742 -0.8285
 8705TIP3    H147606   5.543   3.759   0.566  1.0043  0.7251 -1.2911
 8705TIP3    H247607   5.546   3.659   0.452  2.1977  0.9083 -1.4338
 8706TIP3   OH247608   3.653   2.231   4.572  0.2081 -0.5911 -0.3200
 8706TIP3    H147609   3.728   2.277   4.611 -0.4306 -0.1156  0.3910
 8706TIP3    H247610   3.627   2.168   4.639  1.1118 -2.0782 -1.3146
 8707TIP3   OH247611   2.284   0.933   3.570  0.0184 -0.5290  0.1272
 8707TIP3    H147612   2.299   0.860   3.630 -0.8776 -1.3334 -0.5996
 8707TIP3    H247613   2.233   0.895   3.498  1.4039  0.3104 -1.3684
 8708TIP3   OH247614   5.632   5.520   5.957 -0.0282  0.0269 -0.3083
 8708TIP3    H147615   5.612   5.480   6.041 -1.9847  0.0353 -0.7105
 8708TIP3    H247616   5.546   5.540   5.919  0.8174  0.9290 -1.8725
 8709TIP3   OH247617   5.132   1.504   0.311 -0.0508 -0.1590  0.6991
 8709TIP3    H147618   5.148   1.523   0.218  0.6437  0.7601  0.9968
 8709TIP3    H247619   5.044   1.466   0.313 -0.6321  1.0772 -0.1776
 8710TIP3   OH247620   3.322   5.837   6.055  0.1215  0.3886 -0.2038
 8710TIP3    H147621   3.264   5.909   6.081  1.4190  0.8833  1.3999
 8710TIP3    H247622   3.397   5.880   6.014  0.0842 -0.1761 -0.8909
 8711TIP3   OH247623   4.939   4.165  15.371  0.2007 -0.6373  0.4058
 8711TIP3    H147624   4.942   4.085  15.423  1.2953 -0.2536  0.9694
 8711TIP3    H247625   4.933   4.235  15.436 -2.2227 -0.2778 -0.1041
 8712TIP3   OH247626   1.660   5.148   2.026 -0.0313  0.3134 -0.1458
 8712TIP3    H147627   1.749   5.173   2.000 -0.2022  0.3049 -0.7379
 8712TIP3    H247628   1.603   5.195   1.965 -0.4480  0.5437  0.4161
 8713TIP3   OH247629   5.987   4.628   0.923 -0.1753 -0.1824 -0.3661
 8713TIP3    H147630   6.026   4.632   1.010 -0.0664 -0.7094 -0.3894
 8713TIP3    H247631   6.061   4.626   0.863 -0.2309  2.0903 -0.5881
 8714TIP3   OH247632   0.199   0.607  12.133 -0.0318  0.0498  0.0857
 8714TIP3    H147633   0.277   0.620  12.187 -0.2644  2.6460 -0.0846
 8714TIP3    H247634   0.136   0.671  12.166 -1.0634 -0.0040 -1.6536
 8715TIP3   OH247635   5.767   6.263   2.489 -0.4603  0.3350 -0.0962
 8715TIP3    H147636   5.797   6.251   2.399 -0.4562 -2.0501  0.1585
 8715TIP3    H247637   5.725   6.180   2.511 -1.0210  1.1043  1.8969
 8716TIP3   OH247638   6.267   1.885   3.145  0.6423 -0.2826  0.1675
 8716TIP3    H147639   6.209   1.882   3.221 -0.7937 -1.7866 -0.9280
 8716TIP3    H247640   6.215   1.928   3.077  1.2971 -0.4739 -0.4592
 8717TIP3   OH247641   1.955   2.004   5.228 -0.1398  0.3630  0.4550
 8717TIP3    H147642   1.903   1.936   5.271 -0.3523  0.0809 -0.2270
 8717TIP3    H247643   1.895   2.078   5.219 -0.2001  0.3020  0.3459
 8718TIP3   OH247644   5.457   0.353  14.396  0.2254  0.1982  0.0721
 8718TIP3    H147645   5.503   0.273  14.422 -0.6529 -0.4658 -0.3832
 8718TIP3    H247646   5.474   0.415  14.467 -0.0818 -0.7807  1.0092
 8719TIP3   OH247647   3.906   5.410   2.492 -0.1783  0.4053 -0.8239
 8719TIP3    H147648   3.846   5.335   2.500  0.4939  0.0183  0.8714
 8719TIP3    H247649   3.991   5.375   2.519  0.1380  1.8034  0.0428
 8720TIP3   OH247650   6.458   1.348  12.777 -0.2096 -0.3070  0.1569
 8720TIP3    H147651   6.400   1.283  12.817 -0.1481 -0.6769 -0.3494
 8720TIP3    H247652   6.456   1.328  12.684  0.7584 -0.3495  0.1336
 8721TIP3   OH247653   5.932   6.680  12.424  0.4072 -0.2944 -0.0105
 8721TIP3    H147654   5.958   6.601  12.377  1.6521  0.1162 -0.0547
 8721TIP3    H247655   5.994   6.687  12.497  0.3409  0.6388 -0.0214
 8722TIP3   OH247656   2.862   5.385   6.230 -0.3513 -0.2847 -0.7935
 8722TIP3    H147657   2.786   5.442   6.243 -2.3930 -3.0871  0.6772
 8722TIP3    H247658   2.825   5.299   6.212  2.5578 -1.4343 -1.9228
 8723TIP3   OH247659   1.885   4.219   4.373  0.2785  0.1995 -0.2492
 8723TIP3    H147660   1.813   4.245   4.316 -1.0784  0.1305  1.3605
 8723TIP3    H247661   1.843   4.184   4.451  1.9637  2.8721  2.0596
 8724TIP3   OH247662   3.940   2.311  10.526  0.4709 -0.3193 -0.5117
 8724TIP3    H147663   3.947   2.236  10.584  0.2201  0.2175  0.2305
 8724TIP3    H247664   3.870   2.288  10.464 -2.3320  0.7178  1.9933
 8725TIP3   OH247665   3.359   2.501  15.670 -0.1515 -0.1279 -0.5138
 8725TIP3    H147666   3.321   2.500  15.582 -1.0784  1.8710 -0.1897
 8725TIP3    H247667   3.369   2.594  15.690  0.8339 -0.5633  1.1777
 8726TIP3   OH247668   3.464   5.194   1.436 -0.1463  1.0159  0.2258
 8726TIP3    H147669   3.457   5.278   1.392  1.2802  0.9503 -0.1968
 8726TIP3    H247670   3.463   5.129   1.366  0.7645  0.8220  0.3783
 8727TIP3   OH247671   0.513   3.526  12.145 -0.0411 -0.0299 -0.7920
 8727TIP3    H147672   0.420   3.545  12.139 -0.2531 -0.2131  1.2369
 8727TIP3    H247673   0.555   3.611  12.156 -0.1868 -0.0748  0.2210
 8728TIP3   OH247674   5.239   5.747  10.013  0.6608  0.2751 -0.2081
 8728TIP3    H147675   5.202   5.834  10.030  0.0729 -0.1874  1.0081
 8728TIP3    H247676   5.325   5.765   9.976  0.3871  1.3792 -0.3635
 8729TIP3   OH247677   6.005   4.763   1.520  0.1074  0.3041 -0.0523
 8729TIP3    H147678   6.043   4.675   1.530 -1.1718 -0.2653  0.0944
 8729TIP3    H247679   6.043   4.814   1.591 -2.8374 -1.5254  3.1881
 8730TIP3   OH247680   5.100   5.722   2.304 -0.1036  0.8074 -0.2916
 8730TIP3    H147681   5.159   5.702   2.231  0.5626  0.9316  0.1955
 8730TIP3    H247682   5.153   5.777   2.362 -0.3788  0.1227  0.6309
 8731TIP3   OH247683   4.327   5.416   0.069 -0.1799 -0.7023 -0.1840
 8731TIP3    H147684   4.367   5.400   0.155  0.5861  2.8000  0.2766
 8731TIP3    H247685   4.261   5.484   0.086 -2.2263 -2.1160 -1.9360
 8732TIP3   OH247686   4.727   5.791  16.635  0.3001  0.4535  0.4660
 8732TIP3    H147687   4.660   5.728  16.659  0.3173  0.5601  0.7993
 8732TIP3    H247688   4.696   5.829  16.553  0.7639 -0.6706 -0.2557
 8733TIP3   OH247689   2.989   3.933   4.350 -0.1397 -0.3712  0.4838
 8733TIP3    H147690   2.979   3.872   4.277  0.3480 -1.0239  0.9539
 8733TIP3    H247691   2.938   3.894   4.421  0.5416 -0.4620  0.9247
 8734TIP3   OH247692   1.687   1.694  11.596 -0.1565 -0.3322 -0.0526
 8734TIP3    H147693   1.746   1.760  11.560 -0.1420 -0.3721 -0.1018
 8734TIP3    H247694   1.744   1.626  11.631 -0.0700  0.9146  2.4407
 8735TIP3   OH247695   0.757   3.347  13.417  0.0564  0.2547 -0.2778
 8735TIP3    H147696   0.829   3.405  13.394 -0.0850  0.0591 -1.2636
 8735TIP3    H247697   0.679   3.390  13.382 -0.1780 -0.0394 -0.1284
 8736TIP3   OH247698   0.223   1.949   5.924  0.1778 -0.3347  0.2693
 8736TIP3    H147699   0.153   1.884   5.930  0.7918 -0.8442  2.5227
 8736TIP3    H247700   0.285   1.926   5.993  1.1110  1.8476  0.2550
 8737TIP3   OH247701   4.989   5.802  15.213  0.0337  0.1753 -0.1518
 8737TIP3    H147702   4.936   5.729  15.246 -0.8968  0.4490 -0.9875
 8737TIP3    H247703   5.022   5.846  15.292  0.9246 -1.3459  0.3720
 8738TIP3   OH247704   2.071   3.048   3.995  0.3022  0.3355  0.3810
 8738TIP3    H147705   2.041   2.976   3.939  0.5181 -0.1552  0.8837
 8738TIP3    H247706   2.023   3.125   3.964  0.4485  0.0800 -0.5000
 8739TIP3   OH247707   1.155   5.002  11.746  0.1481 -0.0597  0.6489
 8739TIP3    H147708   1.119   5.044  11.668  0.9564  0.1824  0.4028
 8739TIP3    H247709   1.177   5.074  11.805  2.5574 -0.0032 -0.2090
 8740TIP3   OH247710   4.822   3.418   2.214  0.3255 -0.4186  0.1708
 8740TIP3    H147711   4.825   3.345   2.152 -0.1016 -0.5081  0.2514
 8740TIP3    H247712   4.848   3.379   2.298  2.9580  0.1263 -0.3131
 8741TIP3   OH247713   5.558   2.042   0.463 -0.2142  0.0049 -0.0451
 8741TIP3    H147714   5.510   2.058   0.544 -0.3107 -0.4590 -0.0056
 8741TIP3    H247715   5.629   1.983   0.490 -2.0739 -2.7832 -0.8299
 8742TIP3   OH247716   4.167   0.916   3.125 -0.1674 -0.5024  0.4515
 8742TIP3    H147717   4.176   0.868   3.207 -0.7360  0.4051  1.0741
 8742TIP3    H247718   4.254   0.949   3.106  0.3139 -2.0494 -0.1871
 8743TIP3   OH247719   1.150   4.126  16.057  0.2205 -0.0316  0.6158
 8743TIP3    H147720   1.131   4.215  16.086 -0.6249 -0.3117  0.9512
 8743TIP3    H247721   1.065   4.082  16.060  0.4182 -0.5328 -0.6544
 8744TIP3   OH247722   2.656   4.379   5.623  0.2699  0.2910  0.6869
 8744TIP3    H147723   2.741   4.372   5.666  0.1779 -1.4803  0.6572
 8744TIP3    H247724   2.593   4.351   5.690 -0.2175  0.8695  0.4764
 8745TIP3   OH247725   1.772   3.956  11.336  0.2161 -0.4211 -0.6763
 8745TIP3    H147726   1.867   3.965  11.345  0.1277  1.3959 -1.1748
 8745TIP3    H247727   1.757   3.963  11.242 -0.5447  1.2425 -0.4618
 8746TIP3   OH247728   1.763   1.349  12.635 -0.2324 -0.4880  0.1624
 8746TIP3    H147729   1.676   1.373  12.603 -0.3335  0.7813  1.2997
 8746TIP3    H247730   1.747   1.307  12.719  0.1863 -1.5631 -0.2718
 8747TIP3   OH247731   0.850   0.172   6.679 -0.5920 -0.0193  0.4791
 8747TIP3    H147732   0.797   0.123   6.741  0.5571 -1.1262  0.6492
 8747TIP3    H247733   0.859   0.259   6.717 -2.4140  0.2636  0.3319
 8748TIP3   OH247734   0.730   0.594   1.859 -0.2835  0.2963  0.4650
 8748TIP3    H147735   0.792   0.655   1.899 -0.6537  0.6851  0.4534
 8748TIP3    H247736   0.761   0.508   1.885 -0.2890  0.5252  1.2608
 8749TIP3   OH247737   0.685   1.802   0.115  0.0092  0.2250  0.5581
 8749TIP3    H147738   0.614   1.866   0.112 -0.5472 -0.4023  0.0742
 8749TIP3    H247739   0.743   1.827   0.042  0.0776  0.4923  0.7014
 8750TIP3   OH247740   0.496   2.796   3.714  0.1514 -0.0111 -0.1121
 8750TIP3    H147741   0.411   2.752   3.719  0.8274 -1.6861 -2.1265
 8750TIP3    H247742   0.483   2.866   3.650  0.3219 -0.3643 -0.5348
 8751TIP3   OH247743   3.308   0.805  11.339 -0.4414  0.1451 -0.2680
 8751TIP3    H147744   3.309   0.767  11.427 -0.2660  1.9355  0.5518
 8751TIP3    H247745   3.339   0.735  11.282 -1.6598 -1.4435  0.9188
 8752TIP3   OH247746   6.604   0.287  16.404  0.7978 -0.7930 -0.0819
 8752TIP3    H147747   6.552   0.328  16.473  0.8676 -0.7722 -0.0412
 8752TIP3    H247748   6.691   0.327  16.412  0.8847 -0.9969 -0.0009
 8753TIP3   OH247749   4.364   6.760   2.867  0.2939 -0.1636  0.4056
 8753TIP3    H147750   4.428   6.804   2.810  0.8633 -1.3367  0.1093
 8753TIP3    H247751   4.298   6.827   2.885  0.5152  0.4688 -1.0023
 8754TIP3   OH247752   0.370   4.031   1.118 -0.1028 -0.4220  0.4774
 8754TIP3    H147753   0.393   3.955   1.171 -0.2336 -0.3554  0.6301
 8754TIP3    H247754   0.433   4.030   1.046  0.1274 -0.4657  0.6784
 8755TIP3   OH247755   3.250   1.633   4.072 -0.3351  0.8205  0.2172
 8755TIP3    H147756   3.212   1.658   3.988  0.1873  0.6416 -0.0800
 8755TIP3    H247757   3.182   1.651   4.136 -0.3777  1.9441 -0.1167
 8756TIP3   OH247758   2.938   5.431   5.307 -0.4697 -0.1949  0.4301
 8756TIP3    H147759   3.025   5.468   5.290 -0.9231  0.6221 -0.2196
 8756TIP3    H247760   2.885   5.507   5.332 -0.2337 -1.0624  4.2744
 8757TIP3   OH247761   5.172   2.019  12.121 -0.5916  0.3114 -0.0408
 8757TIP3    H147762   5.111   2.043  12.051 -0.3039  0.0510 -0.3825
 8757TIP3    H247763   5.131   2.053  12.201 -2.6749 -2.2990  0.1667
 8758TIP3   OH247764   1.058   5.321  17.149 -0.4663 -0.2567  0.2804
 8758TIP3    H147765   1.084   5.307  17.241  1.2872 -0.0648 -0.1385
 8758TIP3    H247766   1.109   5.397  17.121  0.7370 -1.5995 -1.4487
 8759TIP3   OH247767   5.591   4.968  13.617  0.0290  0.4379 -0.0069
 8759TIP3    H147768   5.612   5.049  13.570 -0.4039  0.0808 -0.8439
 8759TIP3    H247769   5.651   4.967  13.691 -1.0784  2.3648  0.9959
 8760TIP3   OH247770   2.374   0.225   2.324 -0.3887  0.3063 -0.1706
 8760TIP3    H147771   2.466   0.230   2.297 -0.4690  0.3824 -0.4342
 8760TIP3    H247772   2.350   0.134   2.309  0.4157 -0.4349  2.4622
 8761TIP3   OH247773   2.817   4.493  17.071 -0.0138  0.2436  0.2951
 8761TIP3    H147774   2.798   4.460  17.159  0.4315  0.1508  0.3566
 8761TIP3    H247775   2.899   4.452  17.047 -0.8400 -0.8513 -0.7436
 8762TIP3   OH247776   4.794   3.936  15.214  0.0104 -0.7461 -0.1759
 8762TIP3    H147777   4.837   3.889  15.142  1.6566 -1.6317  1.3218
 8762TIP3    H247778   4.856   3.931  15.286 -0.4777  2.3850  0.5715
 8763TIP3   OH247779   3.989   0.637  14.077 -0.0885  0.4651 -0.0894
 8763TIP3    H147780   4.022   0.553  14.109 -2.0857 -1.4681 -2.6908
 8763TIP3    H247781   4.068   0.692  14.070  1.6254 -1.8372 -0.1350
 8764TIP3   OH247782   1.882   2.948  10.990 -0.5600 -0.1380 -0.0722
 8764TIP3    H147783   1.793   2.967  10.959 -0.5770 -1.0679 -0.6457
 8764TIP3    H247784   1.878   2.856  11.016  0.0344  0.0423  0.6622
 8765TIP3   OH247785   1.420   3.939  14.045 -0.0231 -0.0525 -0.1963
 8765TIP3    H147786   1.377   4.008  14.096 -0.2453 -1.1333  1.1514
 8765TIP3    H247787   1.465   3.886  14.111 -0.0405 -1.3144 -1.1638
 8766TIP3   OH247788   3.025   5.921   0.495 -0.3216  0.2458 -0.0228
 8766TIP3    H147789   2.932   5.898   0.495  0.0373 -2.0101  3.4029
 8766TIP3    H247790   3.028   6.007   0.538 -0.8239  0.3173 -0.1253
 8767TIP3   OH247791   4.765   3.830   1.868 -0.1985 -0.1693  0.1047
 8767TIP3    H147792   4.790   3.752   1.818 -0.0180 -0.9645  1.3942
 8767TIP3    H247793   4.694   3.800   1.925 -2.9944  1.6171 -2.2044
 8768TIP3   OH247794   4.040   6.369   4.816  0.0172 -0.6106 -0.4640
 8768TIP3    H147795   4.054   6.306   4.745  0.9710 -1.5832  0.5524
 8768TIP3    H247796   4.104   6.438   4.799 -1.0092  0.1255 -1.5637
 8769TIP3   OH247797   2.285   5.891   1.688 -0.1799  0.1880  1.3400
 8769TIP3    H147798   2.244   5.860   1.607  1.4391  0.6057  0.3089
 8769TIP3    H247799   2.291   5.813   1.744 -1.1331 -0.1506  0.9852
 8770TIP3   OH247800   5.911   2.886   1.569 -1.1020 -0.1605  0.1290
 8770TIP3    H147801   5.967   2.829   1.516 -1.2665  0.2634 -0.5171
 8770TIP3    H247802   5.856   2.932   1.505 -2.3304 -0.7091  0.7655
 8771TIP3   OH247803   5.323   3.702  12.319  0.5971  0.2466 -0.0546
 8771TIP3    H147804   5.338   3.777  12.375 -0.5250  0.5133 -0.0872
 8771TIP3    H247805   5.255   3.652  12.363  2.0236 -1.3271  0.4975
 8772TIP3   OH247806   2.088   1.269  12.186 -0.1995  0.3759 -0.3475
 8772TIP3    H147807   2.024   1.236  12.249 -1.0739 -0.0956 -1.4296
 8772TIP3    H247808   2.063   1.227  12.103  1.7265 -0.0879 -0.7394
 8773TIP3   OH247809   3.187   6.284   0.095 -0.5512 -0.9308  0.5080
 8773TIP3    H147810   3.165   6.261   0.005 -0.9973 -0.9657  0.6246
 8773TIP3    H247811   3.258   6.348   0.086  0.2538 -1.8443  0.1728
 8774TIP3   OH247812   4.225   5.688  13.562  0.2861 -0.3289 -0.7309
 8774TIP3    H147813   4.310   5.683  13.605  0.4474  0.1889 -0.9824
 8774TIP3    H247814   4.178   5.610  13.592  0.1577  0.3379  0.9215
 8775TIP3   OH247815   1.572   1.683  14.823  0.1820 -0.3127 -0.1522
 8775TIP3    H147816   1.502   1.640  14.775 -2.6506  2.0653  1.5440
 8775TIP3    H247817   1.573   1.773  14.789  2.0945 -0.1125  0.2799
 8776TIP3   OH247818   2.413   3.249   2.781  0.5872  0.2859  1.1904
 8776TIP3    H147819   2.506   3.269   2.791  0.3499  2.0477  0.2706
 8776TIP3    H247820   2.380   3.243   2.871  0.9284  3.2216  1.6020
 8777TIP3   OH247821   1.225   2.412  13.329 -0.2411  0.4319 -0.6773
 8777TIP3    H147822   1.257   2.333  13.286  0.2235  0.6865 -0.7980
 8777TIP3    H247823   1.201   2.383  13.417 -1.0996 -0.0690 -1.0624
 8778TIP3   OH247824   5.472   5.697  16.380  0.2762 -0.7333  0.0954
 8778TIP3    H147825   5.384   5.687  16.346  0.0469  1.4247 -0.1202
 8778TIP3    H247826   5.460   5.727  16.470  0.8620 -3.2709  1.0905
 8779TIP3   OH247827   1.236   2.944   4.893 -0.3174  0.4725 -0.3469
 8779TIP3    H147828   1.169   2.897   4.943 -0.8591  0.3700 -1.1638
 8779TIP3    H247829   1.245   3.028   4.939 -0.4781  0.2063  0.1885
 8780TIP3   OH247830   1.294   0.124  16.206  0.5160  0.4748  0.3859
 8780TIP3    H147831   1.273   0.098  16.296 -0.4447  1.7372  0.5633
 8780TIP3    H247832   1.214   0.108  16.157  0.9461  0.0622 -0.1898
 8781TIP3   OH247833   1.949   3.358  10.939 -0.2572 -0.4405 -0.7475
 8781TIP3    H147834   1.893   3.388  10.868  1.9973  1.0450 -2.0382
 8781TIP3    H247835   1.921   3.408  11.015 -1.8423 -1.0939 -0.8613
 8782TIP3   OH247836   0.737   5.445   6.079  0.1061 -0.2103 -0.2018
 8782TIP3    H147837   0.676   5.375   6.103 -1.0264  0.5507 -0.7753
 8782TIP3    H247838   0.791   5.457   6.157 -1.5740  0.2088  0.9565
 8783TIP3   OH247839   6.285   1.837  16.018  0.0920 -0.1371 -0.2707
 8783TIP3    H147840   6.313   1.834  16.110 -1.3947 -1.6977  0.1774
 8783TIP3    H247841   6.339   1.771  15.975  1.2787  1.0633 -0.7350
 8784TIP3   OH247842   2.570   0.899   6.553 -0.5485  0.2740 -0.4366
 8784TIP3    H147843   2.537   0.813   6.525 -0.0313 -0.8269  2.0578
 8784TIP3    H247844   2.490   0.948   6.576 -0.8236  0.3193 -1.4576
 8785TIP3   OH247845   0.763   0.600   4.854  0.1143  0.2139  0.4718
 8785TIP3    H147846   0.761   0.691   4.885  0.7566  0.7061 -0.8350
 8785TIP3    H247847   0.680   0.589   4.807  0.7105  0.6848 -0.7594
 8786TIP3   OH247848   1.527   1.876  11.720 -0.2737  0.0061  1.0582
 8786TIP3    H147849   1.481   1.819  11.782 -0.3787 -0.6157  0.4200
 8786TIP3    H247850   1.593   1.820  11.679 -1.1176  0.0174 -0.3968
 8787TIP3   OH247851   6.394   0.871   2.332  0.2830  0.0626  0.1981
 8787TIP3    H147852   6.456   0.843   2.400 -0.4703 -2.7682 -0.1404
 8787TIP3    H247853   6.443   0.863   2.250  0.0581 -0.3071  0.0961
 8788TIP3   OH247854   2.114   4.154  14.383 -0.0036  0.1593  0.0566
 8788TIP3    H147855   2.121   4.120  14.294  0.1954  0.4261 -0.0334
 8788TIP3    H247856   2.199   4.135  14.422 -0.7539 -1.7472  0.8481
 8789TIP3   OH247857   3.519   2.711   4.458  0.0302 -0.0627 -0.2346
 8789TIP3    H147858   3.588   2.765   4.421 -0.5933  1.7774  1.1953
 8789TIP3    H247859   3.437   2.751   4.427 -0.4505 -0.0234  1.0352
 8790TIP3   OH247860   5.848   1.374  16.804 -0.2196  0.0291 -0.4151
 8790TIP3    H147861   5.765   1.328  16.816 -0.2112 -0.1830 -1.1486
 8790TIP3    H247862   5.848   1.402  16.713  0.1845  0.6928 -0.2206
 8791TIP3   OH247863   4.308   6.330   5.068  0.4445  0.1852  0.2577
 8791TIP3    H147864   4.234   6.269   5.075  1.0054 -0.8127 -1.7052
 8791TIP3    H247865   4.288   6.400   5.129 -1.6049 -0.5947  0.5466
 8792TIP3   OH247866   3.915   3.268  16.885  0.4724 -0.7756 -0.0724
 8792TIP3    H147867   3.873   3.204  16.828 -1.4451  1.1594 -0.9834
 8792TIP3    H247868   3.876   3.253  16.971 -0.5907 -0.3106 -0.4651
 8793TIP3   OH247869   3.047   6.065   2.537 -0.0637  0.1521 -0.4719
 8793TIP3    H147870   3.133   6.023   2.539  0.2108  0.7233  1.1666
 8793TIP3    H247871   2.999   6.019   2.467  1.6913  0.1094 -1.7025
 8794TIP3   OH247872   0.350   6.724   2.385 -0.5170 -0.3086 -0.2359
 8794TIP3    H147873   0.345   6.664   2.311  0.6895  0.2595 -0.7946
 8794TIP3    H247874   0.307   6.677   2.456 -0.1428 -1.5799 -0.8242
 8795TIP3   OH247875   1.712   5.281   2.352  0.0216 -0.5055 -0.0945
 8795TIP3    H147876   1.696   5.240   2.437 -1.5081  0.1537 -0.0248
 8795TIP3    H247877   1.768   5.356   2.372 -1.5273  0.5274  0.6091
 8796TIP3   OH247878   6.199   6.675  15.177  0.4094  0.1401 -0.1042
 8796TIP3    H147879   6.216   6.580  15.180  1.4713  0.1205 -2.9058
 8796TIP3    H247880   6.149   6.687  15.096 -0.1311  1.9356  0.4650
 8797TIP3   OH247881   2.858   3.677  16.326  0.4536 -0.5694 -0.1936
 8797TIP3    H147882   2.869   3.771  16.313  0.0591 -0.3898  0.6543
 8797TIP3    H247883   2.845   3.641  16.239  1.2070  0.0809 -0.5787
 8798TIP3   OH247884   5.398   4.310   3.149 -0.2258 -0.2164 -0.0583
 8798TIP3    H147885   5.350   4.325   3.231 -0.3459 -0.0193 -0.1636
 8798TIP3    H247886   5.330   4.311   3.081 -0.0879 -0.0741 -0.1935
 8799TIP3   OH247887   5.122   6.147  12.288  0.6024  0.5785  0.0254
 8799TIP3    H147888   5.135   6.241  12.278  0.4757  0.7283  1.1288
 8799TIP3    H247889   5.032   6.137  12.318  0.5948  0.0957 -0.1369
 8800TIP3   OH247890   3.659   0.416   0.125  0.1556 -0.3955 -0.1486
 8800TIP3    H147891   3.574   0.425   0.170 -0.4430 -4.5388 -0.0328
 8800TIP3    H247892   3.641   0.443   0.035 -0.2238  2.1966  0.6027
 8801TIP3   OH247893   0.502   2.569   2.710  0.4419  0.1809 -0.5292
 8801TIP3    H147894   0.551   2.509   2.654 -0.7107 -0.4376 -0.9193
 8801TIP3    H247895   0.522   2.540   2.799  1.8289  0.8039 -0.6122
 8802TIP3   OH247896   5.750   0.412   1.271 -0.4083  0.0167  0.0809
 8802TIP3    H147897   5.812   0.340   1.282  2.0413  1.7455 -1.4415
 8802TIP3    H247898   5.706   0.394   1.188 -0.7892 -0.3880  0.3667
 8803TIP3   OH247899   3.607   3.865   5.038 -0.2754  0.0093 -0.4473
 8803TIP3    H147900   3.579   3.791   4.984  0.2028  0.3661 -1.1971
 8803TIP3    H247901   3.533   3.882   5.096 -0.6963 -0.5452 -0.8155
 8804TIP3   OH247902   5.077   5.034  13.942 -0.5188  0.3911 -0.1642
 8804TIP3    H147903   5.020   5.043  14.018  2.8157  2.8894  2.3553
 8804TIP3    H247904   5.154   4.987  13.975  0.2948 -0.1254 -2.5566
 8805TIP3   OH247905   3.371   1.729  14.067 -0.1558  0.0416 -0.0462
 8805TIP3    H147906   3.390   1.794  14.135 -0.4526 -0.3855  0.4535
 8805TIP3    H247907   3.438   1.662  14.078 -2.1222 -1.7373  2.0726
 8806TIP3   OH247908   4.983   3.234  15.989 -0.1880 -0.0874 -0.2364
 8806TIP3    H147909   5.079   3.241  15.988 -0.0963 -1.1102 -1.3555
 8806TIP3    H247910   4.955   3.289  15.916 -0.6724  2.1301  1.5024
 8807TIP3   OH247911   1.720   1.918  12.857  0.3030  0.5534 -0.1365
 8807TIP3    H147912   1.664   1.985  12.817  0.3587 -0.0224 -1.2486
 8807TIP3    H247913   1.690   1.836  12.816 -0.0716 -0.1735  1.5255
 8808TIP3   OH247914   0.900   2.023   4.035  0.1357 -0.1983  0.4769
 8808TIP3    H147915   0.905   2.112   4.001 -2.2138 -0.5135 -0.9175
 8808TIP3    H247916   0.971   1.976   3.991  0.5454  0.6642  0.1981
 8809TIP3   OH247917   6.338   1.931   0.610 -0.2181 -0.2474 -0.3027
 8809TIP3    H147918   6.267   1.916   0.548 -1.3224  1.4641  0.4684
 8809TIP3    H247919   6.296   1.973   0.685  1.5498  0.4700  0.3367
 8810TIP3   OH247920   3.226   6.027   2.011 -0.6088 -0.2357  0.0046
 8810TIP3    H147921   3.321   6.026   2.000 -0.3278  0.5526  1.9078
 8810TIP3    H247922   3.203   5.936   2.029 -0.3219 -0.5370 -1.0811
 8811TIP3   OH247923   3.888   2.353   4.625  0.1169  0.1759 -0.4588
 8811TIP3    H147924   3.967   2.303   4.648 -0.3137 -0.4075 -0.2260
 8811TIP3    H247925   3.911   2.444   4.645 -0.1586 -0.2527  2.1757
 8812TIP3   OH247926   6.548   4.670   6.361 -0.1983  0.3451  0.2298
 8812TIP3    H147927   6.495   4.638   6.289  0.7060 -1.2798  0.2323
 8812TIP3    H247928   6.490   4.668   6.437 -0.3993 -0.5681  0.0655
 8813TIP3   OH247929   6.731   0.358   6.430  0.0156  0.2320 -0.5879
 8813TIP3    H147930   6.806   0.379   6.486 -2.1283  1.7741  1.9472
 8813TIP3    H247931   6.685   0.288   6.476 -1.1775  0.7380 -0.9600
 8814TIP3   OH247932   6.699   1.847  17.266  0.2127 -0.0291 -0.0539
 8814TIP3    H147933   6.623   1.886  17.222  1.4374  1.7686 -0.6711
 8814TIP3    H247934   6.660   1.789  17.332 -1.6801 -0.8324 -1.7461
 8815TIP3   OH247935   4.521   2.521  13.719 -0.0971  0.3223 -0.0635
 8815TIP3    H147936   4.477   2.605  13.733 -0.2839  0.2525 -0.2268
 8815TIP3    H247937   4.584   2.538  13.648 -0.3074  0.2653 -0.2661
 8816TIP3   OH247938   1.049   0.778   4.775 -0.1083 -0.5046  0.3347
 8816TIP3    H147939   1.054   0.853   4.834 -0.2567  0.6371 -1.0614
 8816TIP3    H247940   0.990   0.717   4.820 -2.8060  1.6777 -0.0049
 8817TIP3   OH247941   5.276   1.719   2.909 -0.8604  0.0412 -0.5908
 8817TIP3    H147942   5.235   1.645   2.863 -0.3736 -0.5861 -0.0371
 8817TIP3    H247943   5.329   1.678   2.978 -0.3346  0.8971 -0.4733
 8818TIP3   OH247944   2.426   0.023   5.288  0.2778 -0.5772  0.0510
 8818TIP3    H147945   2.405   0.116   5.294  0.0770 -0.6040 -0.2292
 8818TIP3    H247946   2.379  -0.008   5.211  0.2770 -0.9309  0.1900
 8819TIP3   OH247947   3.174   4.629  13.383  0.1415 -0.2283 -0.2530
 8819TIP3    H147948   3.162   4.544  13.426 -0.8350 -1.0211 -1.9445
 8819TIP3    H247949   3.106   4.685  13.421  0.7265 -0.2197  0.8041
 8820TIP3   OH247950   2.940   1.345   1.487  0.6999  0.5963  0.3807
 8820TIP3    H147951   2.915   1.407   1.556  1.3442  0.8920  0.3535
 8820TIP3    H247952   3.033   1.360   1.474  0.5348  0.7281 -0.7460
 8821TIP3   OH247953   2.932   1.807   1.745  0.2067 -0.2168  0.3212
 8821TIP3    H147954   2.980   1.874   1.794  0.5548  0.6088 -1.1197
 8821TIP3    H247955   2.922   1.843   1.657 -0.6399 -1.5634 -0.1652
 8822TIP3   OH247956   4.971   1.726  14.677 -0.1470 -0.3785  0.1329
 8822TIP3    H147957   4.959   1.652  14.617  1.5722 -0.1201 -0.5909
 8822TIP3    H247958   4.919   1.703  14.754  0.8751 -2.7024  0.2177
 8823TIP3   OH247959   3.697   3.709   4.162  0.4990 -0.2340 -1.1372
 8823TIP3    H147960   3.606   3.740   4.169  0.8068  0.7201 -1.2522
 8823TIP3    H247961   3.725   3.698   4.253  0.2478 -0.6103 -1.1015
 8824TIP3   OH247962   5.975   1.193  14.729 -0.0059 -0.0782  0.2438
 8824TIP3    H147963   5.937   1.239  14.804 -1.8327 -0.7252 -0.2286
 8824TIP3    H247964   5.943   1.103  14.738  1.2022 -0.5989 -0.3779
 8825TIP3   OH247965   2.328   5.760   3.637 -0.3318 -0.3380 -0.4215
 8825TIP3    H147966   2.389   5.749   3.565 -0.1556 -0.8301 -0.1971
 8825TIP3    H247967   2.309   5.671   3.667 -0.4537 -0.1425  0.0951
 8826TIP3   OH247968   1.547   0.427   3.366 -0.0678 -0.3335 -0.2138
 8826TIP3    H147969   1.622   0.486   3.373 -0.1906 -0.3433  1.5743
 8826TIP3    H247970   1.476   0.474   3.410 -0.9314 -0.6283 -1.2700
 8827TIP3   OH247971   4.749   6.251  16.221 -0.0020  0.0819  0.1135
 8827TIP3    H147972   4.658   6.280  16.228 -0.5725 -1.9738  2.6189
 8827TIP3    H247973   4.801   6.329  16.240 -1.1688  1.3127 -1.4315
 8828TIP3   OH247974   0.170   4.300  12.304 -0.2712  0.4884  0.5358
 8828TIP3    H147975   0.230   4.296  12.378  0.0384 -0.1589  0.2480
 8828TIP3    H247976   0.092   4.253  12.334  0.6649 -1.7231 -0.2908
 8829TIP3   OH247977   3.441   2.643  12.976 -0.3449 -0.2277  0.3011
 8829TIP3    H147978   3.387   2.590  13.034 -1.1200  0.4441  0.2047
 8829TIP3    H247979   3.385   2.715  12.949  0.1981 -0.1999 -0.8187
 8830TIP3   OH247980   1.349   1.976  13.747 -0.4897 -0.2100  0.6323
 8830TIP3    H147981   1.357   1.944  13.837 -2.6747 -0.3448  0.8402
 8830TIP3    H247982   1.269   2.029  13.747 -0.2331  0.2430 -1.1067
 8831TIP3   OH247983   3.258   0.958   1.716 -0.0934  0.2991  0.8264
 8831TIP3    H147984   3.172   0.988   1.747 -0.7812  1.8956 -2.2302
 8831TIP3    H247985   3.308   1.039   1.704  1.3478 -0.5128  1.0911
 8832TIP3   OH247986   4.395   5.690   1.364 -0.5700  0.3653 -0.0984
 8832TIP3    H147987   4.381   5.709   1.456 -0.5999  0.1261 -0.0537
 8832TIP3    H247988   4.355   5.605   1.350 -1.7773  1.0030 -0.6435
 8833TIP3   OH247989   0.174   4.712  13.205  0.4824 -0.3910 -0.2467
 8833TIP3    H147990   0.142   4.657  13.276  0.6707  1.6026  1.4960
 8833TIP3    H247991   0.168   4.657  13.127 -0.9560 -2.2458  1.0773
 8834TIP3   OH247992   2.759   1.324   1.983 -0.3327  0.0147 -0.3407
 8834TIP3    H147993   2.675   1.321   1.937 -0.9427 -0.6260  0.7662
 8834TIP3    H247994   2.735   1.329   2.076  0.7762 -2.5837  0.1807
 8835TIP3   OH247995   5.444   1.264   1.440  0.1907  0.3545 -0.2224
 8835TIP3    H147996   5.391   1.184   1.431  1.1768 -0.5861  1.7840
 8835TIP3    H247997   5.384   1.335   1.417 -1.2055 -0.8308 -0.3986
 8836TIP3   OH247998   2.404   4.751   6.050  0.3836  0.2036  0.1968
 8836TIP3    H147999   2.431   4.830   6.096  1.0466  0.0327  0.1119
 8836TIP3    H248000   2.310   4.747   6.063  0.3865  0.8416  0.4617
 8837TIP3   OH248001   1.521   3.594   3.129 -0.5154  0.3517  0.2662
 8837TIP3    H148002   1.603   3.637   3.155 -0.6495 -0.0024  1.3471
 8837TIP3    H248003   1.547   3.504   3.108 -0.3585  0.7233 -1.1969
 8838TIP3   OH248004   1.511   1.087   4.588  0.1673 -0.3592 -0.4756
 8838TIP3    H148005   1.461   1.042   4.656  0.4660  0.5209  0.3658
 8838TIP3    H248006   1.489   1.180   4.600 -1.5084 -0.3392 -3.0633
 8839TIP3   OH248007   6.823   5.704   0.425  0.1473 -1.1147 -0.0846
 8839TIP3    H148008   6.749   5.738   0.374  0.6531 -0.6897 -0.5606
 8839TIP3    H248009   6.783   5.666   0.503 -0.4540  0.9261  0.6776
 8840TIP3   OH248010   5.236   3.232  10.212 -0.5358 -0.0877 -0.4277
 8840TIP3    H148011   5.331   3.231  10.199 -0.3412 -0.4660  0.8731
 8840TIP3    H248012   5.219   3.154  10.264 -1.1949  1.3840  1.6713
 8841TIP3   OH248013   1.330   5.795  11.484  0.0395  0.7109 -0.4500
 8841TIP3    H148014   1.273   5.729  11.444 -0.4033 -0.1004  1.4008
 8841TIP3    H248015   1.418   5.759  11.476 -0.2147 -0.2164  0.6655
 8842TIP3   OH248016   2.913   2.311  12.028  0.6562  0.3390  0.6816
 8842TIP3    H148017   2.916   2.235  12.086  0.0923  0.2859  0.6397
 8842TIP3    H248018   2.845   2.367  12.065  0.0172  0.1238 -0.1523
 8843TIP3   OH248019   2.196   6.026  16.614  0.1577  0.5571  0.3422
 8843TIP3    H148020   2.220   5.989  16.529 -0.9623  0.0373  0.2319
 8843TIP3    H248021   2.274   6.014  16.669  0.5814  0.0824 -0.3503
 8844TIP3   OH248022   6.632   1.489   2.127  0.8389  0.3002  0.1207
 8844TIP3    H148023   6.547   1.460   2.094  1.1289  0.5362 -0.8440
 8844TIP3    H248024   6.649   1.431   2.202  1.4107 -2.1018 -1.7490
 8845TIP3   OH248025   5.748   4.862   2.007 -0.4279 -0.0923  0.3088
 8845TIP3    H148026   5.841   4.876   1.989 -0.0909  0.4857  2.2141
 8845TIP3    H248027   5.743   4.770   2.035 -0.3975 -0.0645  0.4054
 8846TIP3   OH248028   5.111   4.919   2.377 -0.2211 -0.3265  0.6574
 8846TIP3    H148029   5.199   4.886   2.357 -0.2567 -0.9062  1.3820
 8846TIP3    H248030   5.089   4.976   2.304  2.1643  2.6931  2.0441
 8847TIP3   OH248031   1.632   6.125  11.516 -0.3715  0.0103 -0.0394
 8847TIP3    H148032   1.632   6.219  11.501  0.5083  0.2108  1.1149
 8847TIP3    H248033   1.702   6.092  11.458 -0.2980  0.1385 -0.0241
 8848TIP3   OH248034   6.217   5.098   2.877 -0.1537  0.1520 -0.5010
 8848TIP3    H148035   6.188   5.092   2.968 -1.8768  1.1211 -0.9258
 8848TIP3    H248036   6.293   5.156   2.879  0.5446 -0.7833  0.4432
 8849TIP3   OH248037   1.245   5.220   1.602 -0.2992  0.2353 -0.3835
 8849TIP3    H148038   1.269   5.195   1.512 -0.1593  0.8312 -0.5140
 8849TIP3    H248039   1.260   5.314   1.606  0.0580  0.1550  0.3857
 8850TIP3   OH248040   6.405   4.413  17.045 -0.5473  0.0430  0.7445
 8850TIP3    H148041   6.485   4.365  17.026 -0.0504  0.9533  0.4721
 8850TIP3    H248042   6.427   4.466  17.121 -0.6942  0.7439  0.3068
 8851TIP3   OH248043   2.712   3.199   5.917 -0.1569  0.7487  0.0131
 8851TIP3    H148044   2.747   3.285   5.939  0.7605  0.6696 -1.0105
 8851TIP3    H248045   2.775   3.163   5.854 -0.8093 -0.4439  0.0021
 8852TIP3   OH248046   6.398   0.407  14.625  0.1186 -0.4096  0.4271
 8852TIP3    H148047   6.333   0.339  14.643  2.6436 -3.1281  0.2223
 8852TIP3    H248048   6.428   0.388  14.536  0.6814  1.2478  0.2276
 8853TIP3   OH248049   0.947   4.299  12.572 -0.3987 -0.2467  0.6126
 8853TIP3    H148050   1.033   4.261  12.585  0.1268 -0.5264 -2.7398
 8853TIP3    H248051   0.962   4.394  12.575  0.0904 -0.2929 -0.0655
 8854TIP3   OH248052   6.541   1.699  12.613 -0.1645 -0.2038  0.0526
 8854TIP3    H148053   6.607   1.635  12.641 -0.5381 -0.2544  0.8747
 8854TIP3    H248054   6.490   1.716  12.693  0.7021  2.0816  0.1954
 8855TIP3   OH248055   3.589   1.685   5.102  0.2786  0.4733  0.4295
 8855TIP3    H148056   3.542   1.762   5.071 -1.2260 -0.8975 -0.8957
 8855TIP3    H248057   3.554   1.669   5.190  0.3561  1.0808  0.5768
 8856TIP3   OH248058   6.425   6.317  13.567  0.1942 -0.2163  0.1449
 8856TIP3    H148059   6.343   6.271  13.551 -0.5637  0.7540  1.0639
 8856TIP3    H248060   6.414   6.355  13.654  1.9906 -0.8271  0.6740
 8857TIP3   OH248061   4.116   5.984   5.247  0.8494  0.4319 -0.6368
 8857TIP3    H148062   4.189   6.001   5.188  0.8357  0.1020 -0.7523
 8857TIP3    H248063   4.038   6.007   5.195  0.8630  0.6422 -0.5650
 8858TIP3   OH248064   0.992   3.097  11.184 -0.1273  1.0122  0.0980
 8858TIP3    H148065   1.065   3.040  11.207  0.5544  2.2382  1.0942
 8858TIP3    H248066   0.998   3.106  11.088  1.2067  1.3111  0.1918
 8859TIP3   OH248067   6.511   2.475   0.896 -0.3817 -0.6804  0.4498
 8859TIP3    H148068   6.478   2.459   0.807  2.9219 -0.0864 -1.0132
 8859TIP3    H248069   6.521   2.387   0.934  0.8913 -1.1398 -0.8748
 8860TIP3   OH248070   2.611   3.277   4.720 -0.1587  0.6579  0.1544
 8860TIP3    H148071   2.646   3.235   4.798 -0.1922  2.2875  1.0868
 8860TIP3    H248072   2.533   3.322   4.750  0.3776  2.1387 -0.5795
 8861TIP3   OH248073   5.535   2.804   5.567 -0.0799  0.5478 -0.2404
 8861TIP3    H148074   5.568   2.720   5.534 -1.8583 -0.4305  0.2794
 8861TIP3    H248075   5.588   2.821   5.645 -0.5705 -0.8536  0.4493
 8862TIP3   OH248076   6.824   4.587   0.341 -0.2563 -0.4266 -0.1312
 8862TIP3    H148077   6.878   4.658   0.376 -1.0422  0.0242  0.1934
 8862TIP3    H248078   6.819   4.605   0.247 -1.0181  0.3650  0.0405
 8863TIP3   OH248079   2.549   2.332   0.486 -0.0569 -0.1271 -0.8379
 8863TIP3    H148080   2.497   2.262   0.447 -0.2328 -1.1257  1.0819
 8863TIP3    H248081   2.485   2.386   0.532  0.3715 -0.1659 -0.1939
 8864TIP3   OH248082   1.380   3.359  14.261 -0.0776 -0.0982  0.1453
 8864TIP3    H148083   1.334   3.432  14.303  1.4649  1.4138 -0.6527
 8864TIP3    H248084   1.472   3.375  14.281  0.2633 -2.3455  0.6619
 8865TIP3   OH248085   1.375   0.147  15.789  0.0748  0.4219 -0.5184
 8865TIP3    H148086   1.355   0.053  15.784  2.3188 -0.2828  1.5479
 8865TIP3    H248087   1.318   0.180  15.858 -0.3369  0.4853 -0.8816
 8866TIP3   OH248088   1.247   2.924   0.208  0.2795 -0.4686  0.6182
 8866TIP3    H148089   1.337   2.922   0.240 -0.6756  0.1058  3.6180
 8866TIP3    H248090   1.223   2.831   0.200  0.6755 -0.6264  1.1846
 8867TIP3   OH248091   1.016   3.574  11.165 -0.2642 -0.3159 -0.1926
 8867TIP3    H148092   0.957   3.530  11.103 -0.5895  0.0199 -0.1274
 8867TIP3    H248093   1.045   3.504  11.223 -0.1074 -0.5995 -0.6058
 8868TIP3   OH248094   5.927   2.276  13.610 -0.0141 -0.0318 -0.1026
 8868TIP3    H148095   5.858   2.293  13.676  0.6521  0.0025  0.5992
 8868TIP3    H248096   5.930   2.180  13.604  0.3602 -0.0530  0.3907
 8869TIP3   OH248097   5.397   1.696   5.382  0.1737 -0.0806  0.5222
 8869TIP3    H148098   5.491   1.709   5.393  0.3700 -0.2231 -0.8125
 8869TIP3    H248099   5.357   1.761   5.440  1.0692 -0.5329  1.6894
 8870TIP3   OH248100   4.888   2.454   4.793 -0.5504  0.0465  0.0562
 8870TIP3    H148101   4.884   2.393   4.866  1.5629  1.4363  1.4727
 8870TIP3    H248102   4.804   2.500   4.796 -1.0638 -0.8867  0.6948
 8871TIP3   OH248103   0.386   0.907   2.601  0.3352 -0.5398  0.5653
 8871TIP3    H148104   0.442   0.834   2.626 -0.6366 -0.8147  2.0840
 8871TIP3    H248105   0.333   0.873   2.529  0.7745 -0.9036  0.4067
 8872TIP3   OH248106   2.167   2.756   1.987 -0.2830  0.6148  0.0500
 8872TIP3    H148107   2.093   2.766   1.926  0.0182 -1.0930 -0.6501
 8872TIP3    H248108   2.127   2.738   2.071 -0.6774  1.1836 -0.0085
 8873TIP3   OH248109   3.406   5.725   4.043 -0.2682  0.3753  0.0671
 8873TIP3    H148110   3.451   5.760   3.966 -2.8122  0.9045 -1.3168
 8873TIP3    H248111   3.383   5.802   4.094  0.2668  0.1237  0.6965
 8874TIP3   OH248112   3.688   4.545  11.604 -0.4814  0.5192 -0.1688
 8874TIP3    H148113   3.638   4.583  11.677  0.1996  0.0535  0.5652
 8874TIP3    H248114   3.763   4.504  11.647 -0.6423 -0.7178 -1.0463
 8875TIP3   OH248115   3.254   0.747  12.595 -0.0468  0.3308 -0.0744
 8875TIP3    H148116   3.308   0.785  12.526  0.3774 -0.2910 -0.0895
 8875TIP3    H248117   3.286   0.658  12.605 -1.3481 -0.1996 -0.3833
 8876TIP3   OH248118   0.976   5.455  12.328 -0.3219  0.1451 -0.6055
 8876TIP3    H148119   0.930   5.457  12.412 -2.7425 -0.4129 -1.8279
 8876TIP3    H248120   0.959   5.541  12.289 -0.6110 -0.1700 -1.1922
 8877TIP3   OH248121   4.260   2.604   0.875 -0.0257 -0.0168  0.1333
 8877TIP3    H148122   4.178   2.653   0.866  0.3183  0.8567  1.4431
 8877TIP3    H248123   4.317   2.641   0.808  0.4349  1.8882  1.4945
 8878TIP3   OH248124   2.113   5.741  15.461  0.5687  0.6895 -0.3079
 8878TIP3    H148125   2.154   5.727  15.376  2.1988  0.3760  0.4968
 8878TIP3    H248126   2.062   5.662  15.476  1.7048 -0.0418 -0.2143
 8879TIP3   OH248127   5.487   0.350  17.084 -0.4475  0.4465 -0.1915
 8879TIP3    H148128   5.406   0.402  17.084 -0.2744  0.7159 -0.0756
 8879TIP3    H248129   5.477   0.290  17.010 -1.2262 -0.2647  0.4580
 8880TIP3   OH248130   0.339   4.971   6.146  0.2675 -0.3219 -0.0371
 8880TIP3    H148131   0.404   4.942   6.210  0.1013 -0.7748 -0.0628
 8880TIP3    H248132   0.255   4.964   6.192  0.2876  0.9088  0.2194
 8881TIP3   OH248133   1.822   6.532  14.016  0.5742 -0.6097 -0.2654
 8881TIP3    H148134   1.914   6.559  14.026  0.3510  0.1914 -0.2434
 8881TIP3    H248135   1.811   6.516  13.923  0.7931 -0.9294 -0.2380
 8882TIP3   OH248136   1.005   5.003   4.868  0.3197 -0.1595  0.2363
 8882TIP3    H148137   0.949   5.055   4.811  0.1210 -0.6218  0.0129
 8882TIP3    H248138   1.035   5.065   4.935  0.8203  0.4618 -0.5505
 8883TIP3   OH248139   6.232   5.379   6.048 -0.2792 -0.3007 -0.0292
 8883TIP3    H148140   6.292   5.436   6.097 -1.3478  1.1337 -0.3271
 8883TIP3    H248141   6.190   5.325   6.116  0.3255 -0.3437  0.3210
 8884TIP3   OH248142   0.825   3.581  13.200  0.3699 -0.3247 -1.1317
 8884TIP3    H148143   0.784   3.667  13.212 -0.0429 -0.3871 -2.0540
 8884TIP3    H248144   0.915   3.601  13.175  0.4450 -0.1717 -0.7489
 8885TIP3   OH248145   1.557   3.251   0.194 -0.4713  0.5647  0.0602
 8885TIP3    H148146   1.489   3.285   0.136  0.1772 -0.3675 -1.2981
 8885TIP3    H248147   1.518   3.254   0.281 -2.0259  0.5851 -0.6062
 8886TIP3   OH248148   0.960   3.901  11.058 -0.1949 -0.3136 -0.0613
 8886TIP3    H148149   0.935   3.987  11.025 -0.7889 -0.4974 -0.1028
 8886TIP3    H248150   0.914   3.893  11.142 -0.7477 -0.8865 -0.4067
 8887TIP3   OH248151   0.788   4.005   1.293 -0.0611 -0.4475  0.5619
 8887TIP3    H148152   0.858   4.019   1.356  2.8859  0.9628 -2.6862
 8887TIP3    H248153   0.805   3.918   1.258 -0.3548 -0.3768  0.2386
 8888TIP3   OH248154   0.771   3.527  17.079 -0.5485 -0.0355  0.0897
 8888TIP3    H148155   0.816   3.530  16.995  0.9442 -0.8434  0.8290
 8888TIP3    H248156   0.762   3.619  17.105 -0.3585  0.1830 -0.6051
 8889TIP3   OH248157   0.239   6.641   0.371 -0.4700  0.1597  0.0731
 8889TIP3    H148158   0.212   6.549   0.375 -0.8922  0.3152  1.2038
 8889TIP3    H248159   0.186   6.684   0.439 -0.2182  1.2201 -0.3877
 8890TIP3   OH248160   1.359   1.909   2.123 -0.1028  0.3511 -0.5005
 8890TIP3    H148161   1.325   1.953   2.201 -1.0978  0.9314 -1.2414
 8890TIP3    H248162   1.280   1.884   2.074  0.4263 -1.9258 -0.3070
 8891TIP3   OH248163   3.659   2.971  16.010  0.7013  0.2061 -0.3248
 8891TIP3    H148164   3.741   2.960  15.962 -0.7570 -1.2674 -2.6329
 8891TIP3    H248165   3.597   3.006  15.946 -1.1592 -1.1902  0.6052
 8892TIP3   OH248166   6.442   5.502   5.902 -0.6593  0.2842 -0.4487
 8892TIP3    H148167   6.465   5.510   5.995 -0.6322  0.8749 -0.5014
 8892TIP3    H248168   6.481   5.419   5.876 -1.2258 -0.2059  0.2253
 8893TIP3   OH248169   3.748   5.559   5.580 -0.0244  0.6218 -0.1589
 8893TIP3    H148170   3.789   5.564   5.493  0.5818 -1.5084 -0.0709
 8893TIP3    H248171   3.735   5.465   5.594  1.2358  0.7637  2.6435
 8894TIP3   OH248172   2.353   5.453  16.461  0.3296  0.0632  0.3478
 8894TIP3    H148173   2.327   5.363  16.438  1.5208 -0.3689  0.5925
 8894TIP3    H248174   2.365   5.451  16.556  0.0355  0.5760  0.3981
 8895TIP3   OH248175   0.968   1.531   4.721  0.1529  0.0067  0.1301
 8895TIP3    H148176   0.906   1.460   4.736 -2.2350  1.4452 -2.0626
 8895TIP3    H248177   0.974   1.576   4.806 -0.2034 -1.3496  0.8983
 8896TIP3   OH248178   0.844   1.590  13.787  0.3724 -0.3980  0.1555
 8896TIP3    H148179   0.817   1.583  13.878  1.7475 -0.3508  0.5784
 8896TIP3    H248180   0.900   1.668  13.785  1.1018 -0.9337 -0.5392
 8897TIP3   OH248181   4.351   0.601  15.797  0.0359  0.3223 -0.3796
 8897TIP3    H148182   4.305   0.535  15.849 -0.7200  1.2912  0.1998
 8897TIP3    H248183   4.378   0.667  15.861  0.1091  0.9616 -1.0657
 8898TIP3   OH248184   3.542   3.091   4.406 -0.2171  0.6530 -0.1721
 8898TIP3    H148185   3.486   3.027   4.449 -0.8995  0.5681 -1.1562
 8898TIP3    H248186   3.540   3.168   4.464  1.0229 -0.3530  1.2788
 8899TIP3   OH248187   0.808   6.555  14.851 -0.2430  0.1255  0.2695
 8899TIP3    H148188   0.862   6.480  14.827  1.6140  0.6977  2.2329
 8899TIP3    H248189   0.845   6.627  14.799 -0.6237  0.0927 -0.0479
 8900TIP3   OH248190   5.250   4.310   2.917 -0.1809  0.2574  0.4732
 8900TIP3    H148191   5.257   4.404   2.900 -1.4511  0.3618  0.4758
 8900TIP3    H248192   5.180   4.280   2.860  0.8173 -0.8877 -0.2096
 8901TIP3   OH248193   0.561   3.703  15.912  0.1436  0.2919 -0.3255
 8901TIP3    H148194   0.567   3.712  16.007  0.0625  0.8150 -0.3666
 8901TIP3    H248195   0.650   3.682  15.884  0.8584  3.0020 -0.4155
 8902TIP3   OH248196   4.912   3.530   4.616 -0.7699 -0.3803 -0.1742
 8902TIP3    H148197   4.933   3.576   4.697 -0.0957  0.0159 -0.5658
 8902TIP3    H248198   4.938   3.439   4.632  1.3973  0.0978 -0.6629
 8903TIP3   OH248199   1.699   5.145   5.213 -0.1349 -0.2296  0.0453
 8903TIP3    H148200   1.717   5.065   5.162  1.7898 -0.2382  0.6345
 8903TIP3    H248201   1.767   5.206   5.186 -1.4738  1.1706 -0.2471
 8904TIP3   OH248202   3.349   0.256  15.993 -0.3838  0.2283  0.1649
 8904TIP3    H148203   3.254   0.264  15.987 -0.2696  1.6195 -0.1289
 8904TIP3    H248204   3.372   0.298  16.076 -0.1314 -1.3601  0.9371
 8905TIP3   OH248205   5.622   4.015  10.923 -0.1172 -0.3426 -0.0930
 8905TIP3    H148206   5.579   4.072  10.986 -3.3297 -2.6046 -0.0117
 8905TIP3    H248207   5.697   4.066  10.892 -1.4583  2.9451  1.5961
 8906TIP3   OH248208   4.097   0.780   4.169 -0.2371 -0.0636  0.1612
 8906TIP3    H148209   4.065   0.864   4.137 -1.2847 -0.6025 -0.2470
 8906TIP3    H248210   4.020   0.739   4.209  0.3721 -0.6361  0.7652
 8907TIP3   OH248211   0.601   4.533  15.245  0.2661 -0.3697 -0.9712
 8907TIP3    H148212   0.507   4.514  15.240  0.5060 -1.5766 -1.2130
 8907TIP3    H248213   0.606   4.614  15.295 -0.8008 -1.4348  0.9671
 8908TIP3   OH248214   5.068   2.823   5.011  0.4811  0.2986  0.0744
 8908TIP3    H148215   5.070   2.893   5.077  2.2733  0.3357  0.0445
 8908TIP3    H248216   5.068   2.742   5.061  1.1292  0.3316  0.1419
 8909TIP3   OH248217   4.230   1.831  15.906 -0.1883  0.1795  0.2517
 8909TIP3    H148218   4.260   1.809  15.818 -2.1046  0.3535 -0.4876
 8909TIP3    H248219   4.284   1.906  15.932 -0.2982  0.7948 -1.2178
 8910TIP3   OH248220   3.597   3.614  14.604 -0.5240  0.0944 -0.1731
 8910TIP3    H148221   3.571   3.673  14.676 -1.0912 -0.9888  0.5443
 8910TIP3    H248222   3.678   3.573  14.635  0.2176  0.9436 -0.9445
 8911TIP3   OH248223   1.263   4.436  14.608  0.2534  0.2217 -0.4759
 8911TIP3    H148224   1.320   4.446  14.531  0.4438  0.4575 -0.3075
 8911TIP3    H248225   1.202   4.366  14.585  0.4754  0.1168 -0.7429
 8912TIP3   OH248226   0.930   0.963   3.561 -0.5197  0.0807 -0.2181
 8912TIP3    H148227   0.905   0.973   3.653  0.2598  0.0422  0.0117
 8912TIP3    H248228   0.889   1.037   3.517  0.2812  0.9318  0.4252
 8913TIP3   OH248229   6.344   0.759   1.143 -0.0653 -0.1564 -0.3760
 8913TIP3    H148230   6.378   0.789   1.059 -0.4784 -1.0384 -0.8760
 8913TIP3    H248231   6.249   0.767   1.135 -0.0657  0.9487  0.4854
 8914TIP3   OH248232   4.836   5.004   6.160 -0.1055 -0.1489  0.5475
 8914TIP3    H148233   4.831   4.966   6.072  0.8271 -1.3863  1.0045
 8914TIP3    H248234   4.754   4.977   6.202  1.3700 -3.6045  1.5568
 8915TIP3   OH248235   6.708   2.346   2.434  0.5995  0.2089 -0.2250
 8915TIP3    H148236   6.798   2.365   2.409  1.2091 -1.6611  0.3382
 8915TIP3    H248237   6.716   2.288   2.510 -1.0920  0.6439  0.3297
 8916TIP3   OH248238   5.204   2.743  11.622  0.2867  0.7547  0.1989
 8916TIP3    H148239   5.143   2.814  11.605  2.2305  2.4710 -0.1009
 8916TIP3    H248240   5.239   2.762  11.709  2.6968  1.7567 -0.8868
 8917TIP3   OH248241   4.825   0.805  15.067  0.3769 -0.4588  0.4237
 8917TIP3    H148242   4.916   0.798  15.096  1.2317  0.2913 -1.8768
 8917TIP3    H248243   4.789   0.717  15.080  0.8763 -0.3871  2.8661
 8918TIP3   OH248244   6.381   0.231   0.182 -0.2015  0.5574 -0.0463
 8918TIP3    H148245   6.426   0.309   0.150  0.7273  0.8752  1.8599
 8918TIP3    H248246   6.385   0.239   0.277 -0.7496 -1.4486  0.1878
 8919TIP3   OH248247   2.464   6.160  13.809  0.1209 -0.6594  0.6189
 8919TIP3    H148248   2.406   6.233  13.789 -1.9114 -2.4046 -0.2564
 8919TIP3    H248249   2.506   6.139  13.726 -0.1625 -1.1870  0.6065
 8920TIP3   OH248250   6.773   5.674   1.069 -0.2861 -0.1505  0.6959
 8920TIP3    H148251   6.774   5.753   1.015  0.4204 -0.9023 -0.4457
 8920TIP3    H248252   6.681   5.663   1.093 -1.1893 -1.2753 -2.7223
 8921TIP3   OH248253   1.924   3.900   3.268  0.1977 -0.3109 -0.3649
 8921TIP3    H148254   1.951   3.991   3.255 -0.4512  0.1693  1.3527
 8921TIP3    H248255   1.830   3.900   3.249  0.5446 -1.1092 -2.3620
 8922TIP3   OH248256   3.086   5.667  14.204  0.1647 -0.9413 -0.1145
 8922TIP3    H148257   3.175   5.661  14.170 -0.2511 -2.9613 -0.9923
 8922TIP3    H248258   3.036   5.603  14.153 -1.6154 -0.4522  0.9119
 8923TIP3   OH248259   3.493   0.060   4.524  0.3943 -0.3599  0.4995
 8923TIP3    H148260   3.577   0.061   4.477  0.6507 -0.1440  0.9511
 8923TIP3    H248261   3.452   0.143   4.502 -0.8485 -1.4868 -1.7178
 8924TIP3   OH248262   3.660   6.335  13.533  0.2457 -0.4676  0.9489
 8924TIP3    H148263   3.675   6.391  13.609 -0.1450 -0.8879  1.3415
 8924TIP3    H248264   3.691   6.387  13.458 -0.7875  0.5649  1.2201
 8925TIP3   OH248265   0.202   0.688  12.494 -0.3000  0.2250 -0.3319
 8925TIP3    H148266   0.227   0.720  12.581 -0.8408  1.7635 -0.7185
 8925TIP3    H248267   0.106   0.693  12.493 -0.3389 -0.3739 -0.8174
 8926TIP3   OH248268   0.635   4.941   3.947  0.2658  0.8029  0.4026
 8926TIP3    H148269   0.581   5.020   3.942  0.0031  0.6544  0.9435
 8926TIP3    H248270   0.724   4.974   3.963  0.1663  0.9922  0.5626
 8927TIP3   OH248271   3.841   4.849   0.557  0.7962 -0.4298  0.0147
 8927TIP3    H148272   3.781   4.794   0.607  1.5815 -1.3410 -0.0216
 8927TIP3    H248273   3.817   4.939   0.581 -2.4118 -0.5795 -2.0308
 8928TIP3   OH248274   3.023   0.698  14.692  0.1371 -0.6475  0.4375
 8928TIP3    H148275   2.994   0.616  14.733  0.0929 -0.4938  0.7224
 8928TIP3    H248276   3.061   0.748  14.764  2.3918 -1.3996 -0.1635
 8929TIP3   OH248277   6.462   5.785  10.795  0.0828 -0.3683  0.8203
 8929TIP3    H148278   6.476   5.853  10.729  1.9103  0.3778  1.8955
 8929TIP3    H248279   6.495   5.705  10.754 -2.7797 -0.8608 -0.7444
 8930TIP3   OH248280   2.796   4.507  14.630 -0.4694 -0.1424 -0.1087
 8930TIP3    H148281   2.818   4.505  14.536 -0.4894 -0.2007 -0.1121
 8930TIP3    H248282   2.863   4.563  14.669  0.6444 -1.5718  0.1236
 8931TIP3   OH248283   4.164   3.123   0.876  0.3951 -0.3094 -0.5420
 8931TIP3    H148284   4.113   3.126   0.795 -0.1333  2.6481 -0.2116
 8931TIP3    H248285   4.189   3.214   0.892 -0.1498 -0.6352  2.9965
 8932TIP3   OH248286   0.380   3.487  16.908 -0.2270 -0.4654  0.6743
 8932TIP3    H148287   0.445   3.546  16.869 -0.4096  0.4584  1.7370
 8932TIP3    H248288   0.298   3.509  16.863  0.0283 -1.1003 -0.1246
 8933TIP3   OH248289   5.376   3.193  10.583  0.0639 -0.3375  0.1027
 8933TIP3    H148290   5.326   3.142  10.647 -0.5500  0.5129  0.3230
 8933TIP3    H248291   5.338   3.170  10.498 -0.4032 -0.0476  0.2283
 8934TIP3   OH248292   2.421   6.312  13.273 -0.4033  0.2086 -0.1127
 8934TIP3    H148293   2.382   6.316  13.360 -1.4011 -0.8000 -0.4914
 8934TIP3    H248294   2.369   6.247  13.226  0.6756  0.0809 -1.1897
 8935TIP3   OH248295   2.674   5.727   4.993  0.5122  0.0512  0.0060
 8935TIP3    H148296   2.589   5.769   5.006  0.6096  0.2963 -0.1281
 8935TIP3    H248297   2.736   5.782   5.040  0.6687  0.1702 -0.3309
 8936TIP3   OH248298   6.068   3.471  11.694 -0.1972 -0.1790  0.5346
 8936TIP3    H148299   6.136   3.500  11.756  0.1719  0.1932 -0.0393
 8936TIP3    H248300   6.015   3.549  11.678  0.1662 -0.0728 -0.1999
 8937TIP3   OH248301   1.211   3.281  17.050 -0.6366 -0.3895  0.0669
 8937TIP3    H148302   1.220   3.228  17.129 -0.2610  0.3045  0.4953
 8937TIP3    H248303   1.298   3.281  17.010 -0.6259 -0.0798  0.0840
 8938TIP3   OH248304   5.542   4.552  13.006  0.0756  0.4048  0.0446
 8938TIP3    H148305   5.620   4.574  12.954  0.6983 -1.5647  0.0641
 8938TIP3    H248306   5.486   4.629  12.998  1.7020  1.5956 -0.5753
 8939TIP3   OH248307   0.335   4.278  10.775  0.6775 -0.3088 -0.6966
 8939TIP3    H148308   0.247   4.300  10.806  0.5282 -0.8243 -0.7558
 8939TIP3    H248309   0.327   4.276  10.680 -0.0272 -3.4542 -0.6739
 8940TIP3   OH248310   0.426   5.513  12.408  0.0195  0.3424  0.6369
 8940TIP3    H148311   0.439   5.452  12.481  0.6475 -1.4364 -0.8587
 8940TIP3    H248312   0.485   5.480  12.339 -2.1164  0.5740 -1.4359
 8941TIP3   OH248313   1.159   6.253  11.290  0.2945 -0.0035 -0.9080
 8941TIP3    H148314   1.137   6.309  11.365 -1.6740  0.1280 -1.5199
 8941TIP3    H248315   1.204   6.178  11.328 -0.2083  0.3064  0.3489
 8942TIP3   OH248316   3.682   4.830  10.438  0.2119  0.0258  0.2186
 8942TIP3    H148317   3.651   4.815  10.527 -2.1422  1.8576 -0.1818
 8942TIP3    H248318   3.603   4.852  10.388  1.5921  0.1476 -2.0771
 8943TIP3   OH248319   2.977   5.230  17.168 -0.4603 -0.6020 -0.0162
 8943TIP3    H148320   2.885   5.249  17.152 -0.2187  0.5771 -0.1171
 8943TIP3    H248321   3.024   5.278  17.100  0.2916 -0.0609  0.8626
 8944TIP3   OH248322   0.384   1.406  15.469 -0.1741  0.1381  0.9032
 8944TIP3    H148323   0.440   1.402  15.546  2.0166 -1.6983 -0.6718
 8944TIP3    H248324   0.329   1.327  15.475  1.2555 -0.9927 -0.2400
 8945TIP3   OH248325   0.289   3.185   2.622 -0.6198 -0.1794 -0.0846
 8945TIP3    H148326   0.302   3.132   2.543 -1.1026  0.3770 -0.5438
 8945TIP3    H248327   0.230   3.134   2.676 -0.5432 -0.4172 -0.2223
 8946TIP3   OH248328   3.993   4.125   2.912  0.5018  0.2608 -0.1805
 8946TIP3    H148329   3.968   4.189   2.979  1.8468 -0.2507  0.8630
 8946TIP3    H248330   4.058   4.070   2.955  1.3575 -0.1419 -1.9015
 8947TIP3   OH248331   5.247   4.811  14.639 -0.1011 -0.6731 -0.1471
 8947TIP3    H148332   5.199   4.811  14.556  1.4237 -0.0071 -1.0818
 8947TIP3    H248333   5.200   4.873  14.695 -1.2898 -1.3159 -0.3954
 8948TIP3   OH248334   6.462   5.020  11.692  0.3168  0.3742 -0.1050
 8948TIP3    H148335   6.506   5.102  11.710 -3.3086  2.1278  1.9702
 8948TIP3    H248336   6.449   5.019  11.597  3.3430  0.4161 -0.5930
 8949TIP3   OH248337   5.988   5.921   3.645 -0.2731 -0.1830  0.5329
 8949TIP3    H148338   5.961   5.829   3.646  0.2046 -0.3649  2.4291
 8949TIP3    H248339   5.907   5.971   3.657 -0.5120 -0.3570 -0.3250
 8950TIP3   OH248340   2.372   0.563  12.482 -0.4067 -0.3752  0.1402
 8950TIP3    H148341   2.420   0.492  12.440  0.6502  0.1682  0.3790
 8950TIP3    H248342   2.354   0.531  12.571 -0.9159 -0.7664 -0.1013
 8951TIP3   OH248343   5.718   5.802   5.971 -0.3497  0.2515 -0.8851
 8951TIP3    H148344   5.710   5.719   6.018  0.1926 -0.2285 -1.6175
 8951TIP3    H248345   5.794   5.844   6.010 -1.7288  1.3283  0.8240
 8952TIP3   OH248346   5.013   4.768   1.868  0.1745  0.2135 -0.4282
 8952TIP3    H148347   5.097   4.806   1.895  1.1165 -0.9942 -1.5314
 8952TIP3    H248348   5.026   4.674   1.875 -0.4876 -0.0594 -2.2949
 8953TIP3   OH248349   2.527   4.555  11.587  0.4707 -0.4852  0.0235
 8953TIP3    H148350   2.483   4.629  11.628  0.9775 -0.9065  1.3802
 8953TIP3    H248351   2.609   4.546  11.636  1.2175 -0.8747 -1.2456
 8954TIP3   OH248352   3.325   1.582  12.600  0.0548  0.7920  0.1969
 8954TIP3    H148353   3.296   1.578  12.509  2.0716  0.0415 -0.4682
 8954TIP3    H248354   3.393   1.650  12.600 -1.3311  2.2658  1.6153
 8955TIP3   OH248355   5.254   3.055  10.790 -0.1195 -0.4296 -0.4385
 8955TIP3    H148356   5.254   3.008  10.873 -2.2566  0.6708  0.2624
 8955TIP3    H248357   5.165   3.045  10.756  0.1947  0.6566 -1.6851
 8956TIP3   OH248358   0.602   3.122   5.095  0.4640  0.1510 -0.4250
 8956TIP3    H148359   0.657   3.096   5.021  2.3308 -1.0784  1.3045
 8956TIP3    H248360   0.587   3.216   5.081  1.7598  0.2114 -1.7402
 8957TIP3   OH248361   5.163   1.524   2.197  0.3061  0.2266  0.1434
 8957TIP3    H148362   5.168   1.591   2.265 -0.3699 -1.1668  1.6414
 8957TIP3    H248363   5.069   1.517   2.178  0.2828 -0.8363  0.5979
 8958TIP3   OH248364   3.855   2.315  14.172 -0.0763 -0.3437  0.2684
 8958TIP3    H148365   3.873   2.409  14.163  0.5910 -0.4826  0.1179
 8958TIP3    H248366   3.760   2.308  14.163 -0.1144  0.2992  0.1154
 8959TIP3   OH248367   5.536   6.687   2.306 -0.0835  0.3339 -0.4696
 8959TIP3    H148368   5.445   6.661   2.292  0.1521 -0.7496 -0.1176
 8959TIP3    H248369   5.565   6.634   2.380  0.8757  0.5733 -0.6552
 8960TIP3   OH248370   3.706   1.080  15.063  0.2245 -0.2355 -0.0405
 8960TIP3    H148371   3.623   1.126  15.051  0.1087 -0.1670  0.9735
 8960TIP3    H248372   3.718   1.075  15.158  1.5756  0.1124 -0.1742
 8961TIP3   OH248373   6.823   1.644   5.325  0.3410 -0.6755 -0.6504
 8961TIP3    H148374   6.862   1.731   5.319  1.0321 -0.8039  1.2843
 8961TIP3    H248375   6.847   1.613   5.412 -0.8201 -2.3684 -0.8840
 8962TIP3   OH248376   5.211   3.260  13.538 -0.1607  0.1449 -0.5944
 8962TIP3    H148377   5.272   3.230  13.471  0.3540  1.5717 -0.7955
 8962TIP3    H248378   5.126   3.259  13.494  0.1009  0.5940 -1.1229
 8963TIP3   OH248379   6.246   6.466   3.190 -0.5957 -0.0882  0.1304
 8963TIP3    H148380   6.268   6.541   3.245  3.2806  0.4721 -1.8290
 8963TIP3    H248381   6.255   6.498   3.101  0.1408 -2.6018 -0.7750
 8964TIP3   OH248382   3.345   1.364   6.276  0.0975  0.0608 -0.0972
 8964TIP3    H148383   3.302   1.279   6.289 -0.8260  0.4149 -0.8036
 8964TIP3    H248384   3.320   1.415   6.352  1.0003 -0.4202  0.5476
 8965TIP3   OH248385   2.737   4.511   0.809 -0.4998 -0.8833  0.1116
 8965TIP3    H148386   2.782   4.576   0.755 -1.8454 -1.5340 -1.9113
 8965TIP3    H248387   2.688   4.563   0.872  0.0315 -0.0259 -0.1566
 8966TIP3   OH248388   6.240   5.661   5.840  0.1414 -0.5319  0.4338
 8966TIP3    H148389   6.312   5.627   5.893  0.7200  0.9259  0.6326
 8966TIP3    H248390   6.200   5.729   5.894 -0.0494  0.1176 -0.4977
 8967TIP3   OH248391   5.934   2.000  11.478 -0.1770  0.4979 -0.7260
 8967TIP3    H148392   5.999   2.028  11.543  0.4568 -1.0966 -0.6055
 8967TIP3    H248393   5.983   1.944  11.418 -0.9820  1.1142 -1.9985
 8968TIP3   OH248394   3.180   3.795   1.766 -0.3671 -0.5694 -0.3564
 8968TIP3    H148395   3.240   3.867   1.746 -2.1612  1.2494  0.4569
 8968TIP3    H248396   3.156   3.808   1.857 -0.6233 -2.3526 -0.1205
 8969TIP3   OH248397   2.779   3.228  11.167  0.0013  0.2192  0.3494
 8969TIP3    H148398   2.752   3.196  11.080  0.2204  0.5357  0.1628
 8969TIP3    H248399   2.838   3.161  11.199  0.3023  0.3360  0.0449
 8970TIP3   OH248400   5.102   5.982  10.067 -0.2811  0.1187  0.1205
 8970TIP3    H148401   5.137   6.070  10.053 -2.0621  0.7398 -0.6796
 8970TIP3    H248402   5.017   5.996  10.109  1.0230 -1.4009  3.6703
 8971TIP3   OH248403   6.015   0.692   5.256 -0.5899 -0.5574  0.3756
 8971TIP3    H148404   5.954   0.620   5.269 -0.5288 -0.4878  1.0663
 8971TIP3    H248405   6.088   0.673   5.314 -0.7667  0.2746  0.8805
 8972TIP3   OH248406   0.314   0.228   2.021 -0.1251  0.5507 -0.6888
 8972TIP3    H148407   0.337   0.280   1.944 -0.7321  0.5285 -0.8925
 8972TIP3    H248408   0.354   0.274   2.094 -1.9826  2.2539 -0.6561
 8973TIP3   OH248409   1.583   5.323  14.538 -0.5809 -0.0304  0.3047
 8973TIP3    H148410   1.570   5.417  14.526 -0.8950  0.0720  1.3052
 8973TIP3    H248411   1.587   5.288  14.449 -0.4405  0.9278 -0.0840
 8974TIP3   OH248412   3.823   0.993  14.494 -0.3230 -0.5722 -0.3050
 8974TIP3    H148413   3.734   0.994  14.458 -0.5378 -2.2029  0.0956
 8974TIP3    H248414   3.880   0.991  14.417 -0.6603 -0.5644 -0.5612
 8975TIP3   OH248415   5.617   4.433   0.243 -0.4984 -0.3238 -0.4347
 8975TIP3    H148416   5.562   4.431   0.164 -1.3248 -1.5832  0.1352
 8975TIP3    H248417   5.698   4.390   0.216 -0.0432  0.8805 -1.0777
 8976TIP3   OH248418   6.643   2.629  11.240 -0.2447  0.5160 -0.1739
 8976TIP3    H148419   6.560   2.661  11.203 -1.0609 -0.3986  0.7876
 8976TIP3    H248420   6.619   2.598  11.327  1.6688  2.9876  1.3708
 8977TIP3   OH248421   0.196   4.615   1.816 -0.0952 -1.2043 -0.6208
 8977TIP3    H148422   0.118   4.579   1.859  0.2720  1.0804  2.2549
 8977TIP3    H248423   0.262   4.547   1.826 -0.1028 -0.9039  2.4171
 8978TIP3   OH248424   4.775   1.916  15.415 -0.1697  0.1803  0.2945
 8978TIP3    H148425   4.702   1.976  15.398  0.3036  0.1188 -2.4305
 8978TIP3    H248426   4.755   1.877  15.500 -3.0268  0.5566 -0.1029
 8979TIP3   OH248427   0.342   5.503  12.809 -0.4825 -0.3798 -0.2533
 8979TIP3    H148428   0.409   5.568  12.788 -1.1650  0.9955  1.5569
 8979TIP3    H248429   0.363   5.428  12.754  0.1721  1.4489 -2.6563
 8980TIP3   OH248430   0.642   5.375   2.650  0.0385 -0.4584 -0.2439
 8980TIP3    H148431   0.734   5.361   2.627  0.6434 -0.2086  1.7913
 8980TIP3    H248432   0.645   5.420   2.734 -1.9553 -1.5628  0.4828
 8981TIP3   OH248433   1.760   1.578   1.472  0.2413  0.2578  0.4254
 8981TIP3    H148434   1.695   1.642   1.446 -0.8591 -0.3211  1.6484
 8981TIP3    H248435   1.840   1.605   1.427 -0.7176  1.2364 -0.7558
 8982TIP3   OH248436   6.260   3.652   2.048 -0.5602  0.4513  0.5405
 8982TIP3    H148437   6.353   3.630   2.053 -0.2657  1.4985 -0.0155
 8982TIP3    H248438   6.217   3.587   2.103  0.4276 -0.4903  0.2254
 8983TIP3   OH248439   4.907   0.209  14.110 -0.2102 -0.2247  0.2901
 8983TIP3    H148440   4.951   0.259  14.041 -0.4565  0.0968  0.3635
 8983TIP3    H248441   4.834   0.166  14.065  0.4720 -1.1791  0.0618
 8984TIP3   OH248442   1.701   0.978   4.423  0.6307  0.2801 -0.1781
 8984TIP3    H148443   1.701   0.892   4.464  0.7611 -0.4523 -1.6397
 8984TIP3    H248444   1.619   1.019   4.451  0.4595 -0.4161  0.3371
 8985TIP3   OH248445   6.200   2.056   0.819 -0.0909  0.2142  0.1819
 8985TIP3    H148446   6.148   2.032   0.742  1.0790  0.4015 -0.6971
 8985TIP3    H248447   6.140   2.046   0.893 -0.8776 -1.2337 -0.6047
 8986TIP3   OH248448   3.859   4.632   3.528  0.6554  0.4932  0.1262
 8986TIP3    H148449   3.815   4.657   3.609  1.3167  2.8427 -0.1637
 8986TIP3    H248450   3.797   4.653   3.459  0.4455 -0.6614 -0.0680
 8987TIP3   OH248451   6.032   1.688   1.809  0.3482 -0.4778  0.2046
 8987TIP3    H148452   6.108   1.746   1.812 -0.6331  1.1964 -2.9285
 8987TIP3    H248453   6.064   1.609   1.766  0.8609 -0.8579  1.2484
 8988TIP3   OH248454   2.183   1.330   0.584 -0.4553 -0.1530 -0.6604
 8988TIP3    H148455   2.259   1.272   0.579  0.2986  0.1219  3.5700
 8988TIP3    H248456   2.129   1.291   0.653 -1.6988  2.2675 -0.1578
 8989TIP3   OH248457   2.646   0.814   3.784  0.1358  0.0391 -0.4906
 8989TIP3    H148458   2.558   0.821   3.747  0.3052  1.4141 -0.6623
 8989TIP3    H248459   2.643   0.732   3.835 -1.4015  0.3265 -0.0515
 8990TIP3   OH248460   0.291   6.683   2.748  0.0468 -0.1590 -0.0759
 8990TIP3    H148461   0.262   6.639   2.668 -1.5433  0.2090  0.2547
 8990TIP3    H248462   0.212   6.728   2.780  0.5682 -0.5382  1.8549
 8991TIP3   OH248463   1.757   1.375  14.605  0.1813 -0.0123 -0.0119
 8991TIP3    H148464   1.751   1.372  14.510  0.1039  1.2315 -0.0598
 8991TIP3    H248465   1.821   1.444  14.623  1.1286 -1.0562  0.8273
 8992TIP3   OH248466   5.289   1.669   5.931 -0.5179 -0.3586 -0.6086
 8992TIP3    H148467   5.247   1.590   5.966  1.3718 -1.7673 -1.3414
 8992TIP3    H248468   5.381   1.645   5.921 -0.3426  1.0105 -3.4243
 8993TIP3   OH248469   6.029   5.955  13.042 -0.1587 -0.0962  0.2238
 8993TIP3    H148470   5.938   5.929  13.035  0.4493 -2.0038 -3.9979
 8993TIP3    H248471   6.032   6.044  13.004 -0.2990  0.1341  0.7485
 8994TIP3   OH248472   5.236   1.901   0.943 -0.1772  0.5173  0.6552
 8994TIP3    H148473   5.184   1.914   1.022  0.4869 -0.3707  1.2658
 8994TIP3    H248474   5.175   1.914   0.871 -0.7574  1.4793  1.3129
 8995TIP3   OH248475   5.846   6.609   3.552 -0.2554 -0.0668  0.2290
 8995TIP3    H148476   5.793   6.552   3.496  0.8305 -1.7515  0.8091
 8995TIP3    H248477   5.839   6.569   3.639 -0.9391  1.7961  1.0760
 8996TIP3   OH248478   0.998   2.863  12.263 -0.5376 -0.0624 -0.1108
 8996TIP3    H148479   1.000   2.855  12.168 -0.2625 -0.1563 -0.0971
 8996TIP3    H248480   1.073   2.918  12.284 -1.0373  0.5984 -0.0099
 8997TIP3   OH248481   2.114   3.474   6.130  0.0723  0.0049 -0.4541
 8997TIP3    H148482   2.084   3.383   6.135  2.0481 -0.6944 -0.3470
 8997TIP3    H248483   2.107   3.496   6.037 -0.8926 -0.0622 -0.4087
 8998TIP3   OH248484   3.778   2.678   5.059  0.1349  0.2122 -0.3700
 8998TIP3    H148485   3.809   2.598   5.101  1.4254  0.5124 -0.7047
 8998TIP3    H248486   3.781   2.744   5.127 -1.6705 -0.1524  0.1182
 8999TIP3   OH248487   2.691   4.811   1.920 -0.8737  0.5640 -0.1407
 8999TIP3    H148488   2.737   4.728   1.937  2.2771  2.3619  0.9208
 8999TIP3    H248489   2.610   4.803   1.970 -0.5259 -1.7527  0.1891
 9000TIP3   OH248490   3.827   4.826   2.066  0.3880 -0.1205 -0.5954
 9000TIP3    H148491   3.922   4.814   2.060  0.3489  0.0960 -2.2340
 9000TIP3    H248492   3.815   4.919   2.083  0.4737 -0.3211  0.6286
 9001TIP3   OH248493   1.872   1.265  15.889  0.4978  0.1496 -0.2134
 9001TIP3    H148494   1.823   1.293  15.811 -0.6554  0.3753  0.5607
 9001TIP3    H248495   1.897   1.175  15.870 -0.1404  0.0586 -0.6756
 9002TIP3   OH248496   1.283   6.441   4.382  0.3340  0.2559 -0.2225
 9002TIP3    H148497   1.304   6.486   4.300 -0.7259  0.6017 -0.3216
 9002TIP3    H248498   1.187   6.440   4.384  0.3533 -0.7742  0.4556
 9003TIP3   OH248499   5.360   1.083  12.984  0.0527 -0.4824 -0.9475
 9003TIP3    H148500   5.318   1.062  13.068  1.3754  1.7840  0.4034
 9003TIP3    H248501   5.287   1.091  12.922 -0.9720 -2.0845 -0.0346
 9004TIP3   OH248502   2.181   5.698   1.528 -0.0540 -0.2451  0.2108
 9004TIP3    H148503   2.228   5.628   1.482 -0.2102  0.6070 -1.2738
 9004TIP3    H248504   2.128   5.651   1.593  1.3899 -1.3531  0.6486
 9005TIP3   OH248505   2.948   5.706   6.209  0.0920 -0.3233  0.5241
 9005TIP3    H148506   3.003   5.730   6.134  0.8131  0.0361  1.1599
 9005TIP3    H248507   2.860   5.734   6.183  0.4149  0.2445  0.0094
 9006TIP3   OH248508   5.021   3.020  12.030  0.1638 -0.2119 -0.0885
 9006TIP3    H148509   4.981   3.102  12.001  0.3395  0.0261  0.3309
 9006TIP3    H248510   5.113   3.042  12.044  0.0590 -0.2782  0.7723
 9007TIP3   OH248511   2.384   2.481   6.685 -0.2225  0.0075  0.2108
 9007TIP3    H148512   2.439   2.548   6.645 -0.6624  1.1194  1.4109
 9007TIP3    H248513   2.301   2.525   6.705 -0.7717 -1.0611  0.4166
 9008TIP3   OH248514   2.357   3.706  14.507 -0.2130 -0.5407  0.0000
 9008TIP3    H148515   2.288   3.643  14.486  0.5183 -1.5675  0.5659
 9008TIP3    H248516   2.365   3.761  14.429  1.2410 -3.1036 -1.8356
 9009TIP3   OH248517   4.655   2.530   1.265 -0.4216  0.3934 -0.3878
 9009TIP3    H148518   4.591   2.587   1.223 -0.7737  2.1216  2.2366
 9009TIP3    H248519   4.739   2.576   1.257 -0.3543  0.3653  0.0915
 9010TIP3   OH248520   0.110   4.840   4.251 -0.1582 -0.2087 -0.0594
 9010TIP3    H148521   0.184   4.784   4.275 -0.3116  0.5100  2.2657
 9010TIP3    H248522   0.037   4.780   4.238  0.3261 -0.7535 -0.3258
 9011TIP3   OH248523   4.412   3.965   4.075 -0.2806  0.4682 -0.7124
 9011TIP3    H148524   4.449   3.916   4.148  0.1225 -1.3160 -2.0622
 9011TIP3    H248525   4.317   3.961   4.088 -0.1883  2.3009  1.0038
 9012TIP3   OH248526   5.860   5.963  10.648  0.1593  0.0450  0.3073
 9012TIP3    H148527   5.920   5.921  10.586  1.3460  1.3607  0.5039
 9012TIP3    H248528   5.848   6.052  10.613 -1.0735  0.0591  0.7045
 9013TIP3   OH248529   0.776   4.140  10.945 -0.4278 -0.5155  0.6001
 9013TIP3    H148530   0.851   4.199  10.940 -0.9907  0.4404  2.4207
 9013TIP3    H248531   0.722   4.164  10.870  1.2795 -1.5982 -1.0608
 9014TIP3   OH248532   1.528   4.026   5.684 -0.0557 -0.3619  0.0180
 9014TIP3    H148533   1.467   4.095   5.659 -1.8514 -2.3728 -1.5630
 9014TIP3    H248534   1.559   3.990   5.601  0.9838 -1.3370  0.7933
 9015TIP3   OH248535   3.389   2.824  12.641  0.9956  0.8888  0.0504
 9015TIP3    H148536   3.484   2.814  12.644  0.8490 -1.2385 -0.4995
 9015TIP3    H248537   3.363   2.838  12.731  1.7286 -0.0550  0.4319
 9016TIP3   OH248538   4.717   4.830  17.175 -0.1518  0.7516  0.2898
 9016TIP3    H148539   4.687   4.740  17.159  0.8433  0.3918  0.3651
 9016TIP3    H248540   4.640   4.884  17.157  0.0981  0.1916 -3.2671
 9017TIP3   OH248541   2.953   1.215  13.785 -0.1482  0.2562 -0.2728
 9017TIP3    H148542   2.968   1.120  13.782  0.9149  0.3488  1.0379
 9017TIP3    H248543   3.008   1.250  13.715 -0.3310 -0.0675 -0.5831
 9018TIP3   OH248544   0.838   5.593   4.277  0.5851  0.4272  0.2378
 9018TIP3    H148545   0.836   5.685   4.303  1.1674  0.6940 -0.6048
 9018TIP3    H248546   0.924   5.562   4.304  1.1834  0.6969 -1.2527
 9019TIP3   OH248547   0.403   5.358   5.095  0.3360  0.5733 -0.6000
 9019TIP3    H148548   0.338   5.340   5.028  0.6234  1.0020 -1.0031
 9019TIP3    H248549   0.354   5.399   5.167  0.0635  0.3041 -0.6327
 9020TIP3   OH248550   5.709   6.042   0.878 -0.1076  0.1089 -0.1634
 9020TIP3    H148551   5.686   6.082   0.963  4.6360 -0.1899  1.5247
 9020TIP3    H248552   5.752   5.960   0.901  0.0332 -0.7174 -3.0399
 9021TIP3   OH248553   0.482   4.218  13.316 -0.0581 -0.4809  0.0428
 9021TIP3    H148554   0.566   4.225  13.270  0.6782 -2.2899  1.0086
 9021TIP3    H248555   0.421   4.266  13.261  1.4972  0.4462 -0.9647
 9022TIP3   OH248556   2.706   2.045   4.122  1.0729  0.2632 -0.6382
 9022TIP3    H148557   2.633   2.056   4.062  0.7397  0.6588 -0.1673
 9022TIP3    H248558   2.755   2.127   4.117  1.3068  0.1230 -0.7077
 9023TIP3   OH248559   3.819   5.073  14.850  0.1627 -0.2935 -0.3022
 9023TIP3    H148560   3.867   5.156  14.855  0.5365 -0.5355  0.1374
 9023TIP3    H248561   3.735   5.091  14.893  0.2297 -0.1404 -0.2349
 9024TIP3   OH248562   0.138   2.338   5.094  0.2800 -0.2131  0.4378
 9024TIP3    H148563   0.120   2.413   5.038  0.4855  0.2512  0.9785
 9024TIP3    H248564   0.105   2.364   5.180  2.3962  0.1867  1.1786
 9025TIP3   OH248565   1.166   2.097   6.263 -0.8035 -0.5690  0.4083
 9025TIP3    H148566   1.082   2.122   6.301 -1.4792  0.0141 -1.3350
 9025TIP3    H248567   1.191   2.018   6.310 -2.0654 -0.4548  1.3329
 9026TIP3   OH248568   0.611   2.926  13.462 -0.3766  0.5045  0.7442
 9026TIP3    H148569   0.631   2.851  13.407 -2.4989 -0.1785  0.7939
 9026TIP3    H248570   0.664   2.998  13.426  1.6867 -0.9612  0.6862
 9027TIP3   OH248571   6.689   0.754   1.396  0.3379  0.5281  0.2839
 9027TIP3    H148572   6.784   0.758   1.390  0.3784  2.3161  1.2975
 9027TIP3    H248573   6.669   0.793   1.481 -1.3116  0.7330 -0.1663
 9028TIP3   OH248574   1.761   5.866   0.340 -0.5494 -0.2043  0.2242
 9028TIP3    H148575   1.809   5.948   0.356 -1.0896  0.0014  0.8468
 9028TIP3    H248576   1.827   5.798   0.345 -0.1009  0.1871 -0.2362
 9029TIP3   OH248577   2.404   2.409   6.061 -0.3521 -0.4134 -0.2167
 9029TIP3    H148578   2.497   2.406   6.036 -0.1269  1.3994  0.2631
 9029TIP3    H248579   2.405   2.422   6.156 -1.1395 -1.7895  0.0034
 9030TIP3   OH248580   6.395   4.682   0.198  0.3459 -0.0216 -0.0950
 9030TIP3    H148581   6.449   4.641   0.265  0.1404  0.1699  0.1904
 9030TIP3    H248582   6.312   4.699   0.242  0.9602  2.2235  0.3108
 9031TIP3   OH248583   2.245   2.732  17.053 -0.4855  0.4225 -0.4536
 9031TIP3    H148584   2.151   2.737  17.068 -0.2662  0.1411  1.1427
 9031TIP3    H248585   2.263   2.639  17.041 -0.3437  0.4162 -0.2106
 9032TIP3   OH248586   2.977   4.006  10.626 -0.0604  0.4960  0.4247
 9032TIP3    H148587   2.942   3.933  10.677  2.3407 -1.1052 -0.0418
 9032TIP3    H248588   3.055   4.033  10.674  0.7070  0.7864 -0.9331
 9033TIP3   OH248589   4.527   6.465  11.215 -0.3667  0.0375  0.1499
 9033TIP3    H148590   4.502   6.399  11.281 -3.3235  0.8746  0.0299
 9033TIP3    H248591   4.619   6.482  11.232 -0.0322 -2.5736  1.5493
 9034TIP3   OH248592   4.310   2.351  17.056  0.3316  0.4633 -0.1204
 9034TIP3    H148593   4.379   2.415  17.039  1.0143 -0.7342 -2.1376
 9034TIP3    H248594   4.349   2.266  17.034 -1.6704 -0.2832 -1.0576
 9035TIP3   OH248595   5.796   0.133  12.706 -0.1332 -0.3871 -0.8042
 9035TIP3    H148596   5.725   0.175  12.754 -2.7455 -2.6455 -2.3902
 9035TIP3    H248597   5.841   0.204  12.661 -0.8477  1.1994  0.8849
 9036TIP3   OH248598   2.968   0.896  15.131  0.1570 -0.6326  0.2997
 9036TIP3    H148599   3.037   0.890  15.197  1.0914  1.5478 -0.3558
 9036TIP3    H248600   2.899   0.949  15.172 -0.2140 -1.0879  0.2633
 9037TIP3   OH248601   6.529   3.705   5.461 -0.7351  0.1679 -0.2045
 9037TIP3    H148602   6.513   3.793   5.493  2.4449  1.3659 -1.4921
 9037TIP3    H248603   6.492   3.703   5.373  0.2954  0.7412 -0.6804
 9038TIP3   OH248604   2.105   2.939   5.337  0.3034  0.7037 -0.1446
 9038TIP3    H148605   2.119   2.845   5.324 -2.2009  0.4588 -1.7495
 9038TIP3    H248606   2.193   2.975   5.345  1.3914 -1.6044 -0.6998
 9039TIP3   OH248607   5.511   4.554  14.427  0.0487  0.4447  0.0927
 9039TIP3    H148608   5.560   4.554  14.509  3.1107 -0.4506 -1.5767
 9039TIP3    H248609   5.444   4.487  14.440  3.3650 -3.2065  0.4628
 9040TIP3   OH248610   1.520   5.751  10.752 -0.2093 -0.0302 -0.2314
 9040TIP3    H148611   1.599   5.697  10.753 -2.1707 -3.1793  0.6167
 9040TIP3    H248612   1.475   5.727  10.671 -1.1832  0.2469  0.2089
 9041TIP3   OH248613   3.060   0.114   2.220  0.1148 -0.4164 -0.0137
 9041TIP3    H148614   2.977   0.130   2.176  1.0127 -0.2496 -1.7411
 9041TIP3    H248615   3.097   0.038   2.175  1.0303 -0.2967  0.5157
 9042TIP3   OH248616   3.909   4.688  16.106  0.4849 -0.7453 -0.7492
 9042TIP3    H148617   3.968   4.619  16.138  1.9266 -0.3407 -2.3443
 9042TIP3    H248618   3.966   4.744  16.053 -0.9747  0.8126 -0.7293
 9043TIP3   OH248619   2.816   5.990  11.169 -0.5468  0.2139 -0.2972
 9043TIP3    H148620   2.807   6.076  11.130  1.0278 -0.1179 -1.4732
 9043TIP3    H248621   2.767   5.932  11.111  1.4412 -0.2136 -1.6253
 9044TIP3   OH248622   6.268   0.541  13.064  0.0616 -0.2895 -0.2105
 9044TIP3    H148623   6.213   0.512  13.136  0.9603 -0.6481  0.3435
 9044TIP3    H248624   6.321   0.464  13.041  0.5041  0.1136 -0.5710
 9045TIP3   OH248625   4.698   5.816  16.257  0.1554  0.0567  0.4015
 9045TIP3    H148626   4.689   5.814  16.162 -1.7960 -0.5811  0.5597
 9045TIP3    H248627   4.622   5.769  16.290  0.3562  0.9448  2.3106
 9046TIP3   OH248628   4.618   3.595   0.322 -0.0638 -0.7509 -0.0118
 9046TIP3    H148629   4.616   3.673   0.377 -1.2346 -0.6636 -0.1601
 9046TIP3    H248630   4.636   3.523   0.382 -1.9989 -0.7476  0.6238
 9047TIP3   OH248631   4.893   0.530  16.461 -0.2854 -0.2971  0.8606
 9047TIP3    H148632   4.843   0.610  16.442  0.3355 -0.5807 -2.4793
 9047TIP3    H248633   4.828   0.460  16.459 -0.6505 -0.0714  2.7216
 9048TIP3   OH248634   4.485   2.371   0.783 -0.4996 -0.1924  0.6626
 9048TIP3    H148635   4.492   2.282   0.750 -0.5739 -0.6883  1.9437
 9048TIP3    H248636   4.395   2.398   0.763  0.1470  0.4153 -1.6636
 9049TIP3   OH248637   1.079   3.095   1.819  0.4260 -0.3278  0.4709
 9049TIP3    H148638   1.140   3.092   1.893  1.9670 -0.0869 -0.7357
 9049TIP3    H248639   1.071   3.188   1.798  0.4384 -0.4310 -0.0084
 9050TIP3   OH248640   3.740   0.693   2.965  0.1817  0.2522 -0.4420
 9050TIP3    H148641   3.707   0.651   2.885 -1.0604 -1.0587  0.7020
 9050TIP3    H248642   3.765   0.620   3.021  0.1936  1.1313  0.7162
 9051TIP3   OH248643   1.178   4.405  16.705  0.3279  0.2136  0.0442
 9051TIP3    H148644   1.191   4.427  16.797 -1.4105 -0.2582  0.4473
 9051TIP3    H248645   1.096   4.448  16.682 -0.9193 -2.2024 -0.3534
 9052TIP3   OH248646   5.866   4.618   0.546  0.6681 -0.6605 -0.8162
 9052TIP3    H148647   5.898   4.551   0.486  0.9915  0.4856 -1.9659
 9052TIP3    H248648   5.880   4.700   0.499  0.5831  0.2404  0.6945
 9053TIP3   OH248649   0.262   0.402  12.422 -0.0822  0.2447  0.0554
 9053TIP3    H148650   0.231   0.484  12.461 -0.2589  0.9740 -1.5564
 9053TIP3    H248651   0.241   0.410  12.329 -3.0054 -2.9025  0.2459
 9054TIP3   OH248652   6.563   1.751   2.175 -0.2657 -0.3131 -0.4688
 9054TIP3    H148653   6.642   1.779   2.222  1.1037  1.3275 -3.5009
 9054TIP3    H248654   6.588   1.670   2.132 -0.4028 -0.1048 -0.9515
 9055TIP3   OH248655   2.555   5.908   1.901  0.4899  0.6809 -0.5998
 9055TIP3    H148656   2.521   5.839   1.958  1.0668  0.5744 -0.3776
 9055TIP3    H248657   2.604   5.860   1.833 -0.5143  0.7784 -1.4196
 9056TIP3   OH248658   6.419   4.495  15.685 -0.2864 -0.3616  0.0598
 9056TIP3    H148659   6.418   4.590  15.678  0.0613 -0.3179  0.5840
 9056TIP3    H248660   6.334   4.473  15.724  0.0619 -0.1822  0.9364
 9057TIP3   OH248661   0.711   6.581  16.770  0.4436  0.1705  0.7514
 9057TIP3    H148662   0.780   6.606  16.710 -1.9599  4.2294 -0.7424
 9057TIP3    H248663   0.649   6.532  16.716 -0.1905  1.0240  0.6766
 9058TIP3   OH248664   0.669   5.908  11.237  0.1820 -0.1228  0.1672
 9058TIP3    H148665   0.732   5.836  11.229  1.9160  1.2500  1.0912
 9058TIP3    H248666   0.680   5.958  11.156  0.1294  0.0071  0.2412
 9059TIP3   OH248667   4.945   5.373  11.731  0.5829  0.0758  0.1531
 9059TIP3    H148668   4.964   5.412  11.646 -0.0437  0.4831  0.1858
 9059TIP3    H248669   4.968   5.281  11.722  0.8649  0.1925 -0.3405
 9060TIP3   OH248670   2.010   6.821  12.675  0.4800  0.0352 -0.0798
 9060TIP3    H148671   1.966   6.742  12.706 -1.4311  0.4793 -1.5039
 9060TIP3    H248672   2.070   6.845  12.746 -1.1550 -0.9421  1.7061
 9061TIP3   OH248673   3.613   1.480  12.778  0.1816  0.2283 -0.5570
 9061TIP3    H148674   3.693   1.477  12.725 -0.0315  1.8492 -1.0401
 9061TIP3    H248675   3.641   1.522  12.860 -0.3517  1.8265 -1.1553
 9062TIP3   OH248676   2.415   6.485  15.241 -0.2992 -0.9518 -0.2248
 9062TIP3    H148677   2.509   6.501  15.253 -0.1261 -1.9222 -0.1496
 9062TIP3    H248678   2.388   6.442  15.322 -0.5403 -1.7493 -0.7167
 9063TIP3   OH248679   4.028   5.991   2.985  0.2604  0.4074 -0.6313
 9063TIP3    H148680   4.053   6.047   3.059  0.6099  0.6697 -0.9427
 9063TIP3    H248681   4.108   5.945   2.961  0.0125 -0.1086 -0.4859
 9064TIP3   OH248682   4.965   2.372  14.170 -0.4166 -0.2222 -0.1609
 9064TIP3    H148683   4.900   2.343  14.106 -0.9645  2.0091 -0.7338
 9064TIP3    H248684   5.038   2.403  14.117 -1.2514  2.5338  0.1031
 9065TIP3   OH248685   0.362   5.119   4.199 -0.1555 -0.1090  0.0550
 9065TIP3    H148686   0.409   5.198   4.174 -0.4953 -0.5149 -2.1190
 9065TIP3    H248687   0.292   5.150   4.256  0.7671  0.9073  0.6733
 9066TIP3   OH248688   0.430   6.552  11.604 -0.0701 -0.3631  0.3718
 9066TIP3    H148689   0.507   6.595  11.642  1.1097 -2.5800  0.6566
 9066TIP3    H248690   0.460   6.518  11.520 -0.2190 -2.5744  1.1422
 9067TIP3   OH248691   5.545   2.450   4.890  0.0212  0.3283 -0.6618
 9067TIP3    H148692   5.626   2.400   4.884  0.4313  0.9316 -0.2484
 9067TIP3    H248693   5.571   2.540   4.874 -0.4570  0.6101  0.0804
 9068TIP3   OH248694   3.497   3.235   1.983 -0.1777  0.0942  0.5884
 9068TIP3    H148695   3.508   3.194   2.069 -1.4577 -2.1722 -0.2477
 9068TIP3    H248696   3.585   3.238   1.946  0.1347 -0.5813  1.2546
 9069TIP3   OH248697   1.499   3.517  13.508 -0.1108  0.7446 -0.2084
 9069TIP3    H148698   1.442   3.550  13.577 -0.5239 -0.2329 -0.0699
 9069TIP3    H248699   1.565   3.585  13.497  0.5972  0.4565  1.9057
 9070TIP3   OH248700   0.843   3.894  11.868  0.5006 -1.0420 -0.2692
 9070TIP3    H148701   0.858   3.869  11.777 -0.6397 -1.6476 -0.3032
 9070TIP3    H248702   0.779   3.965  11.864  2.6066  0.9979 -0.0769
 9071TIP3   OH248703   6.720   2.062   5.701  0.0840  0.3555  0.6441
 9071TIP3    H148704   6.671   2.116   5.640  1.0191  0.0455 -0.4252
 9071TIP3    H248705   6.775   2.124   5.750  0.3808  0.4823  0.1584
 9072TIP3   OH248706   1.174   1.543  13.357 -0.0786 -0.0791 -0.0417
 9072TIP3    H148707   1.132   1.464  13.391  1.4019 -0.7702  0.2643
 9072TIP3    H248708   1.267   1.523  13.357  0.2777  1.4082 -0.6736
 9073TIP3   OH248709   3.147   3.658  11.863  0.1914  0.1042  0.4321
 9073TIP3    H148710   3.215   3.680  11.927  0.6375 -0.7614  0.2836
 9073TIP3    H248711   3.152   3.562  11.856  0.2695  0.1944 -1.0233
 9074TIP3   OH248712   5.393   6.526  12.420 -0.2027 -0.5316 -1.0518
 9074TIP3    H148713   5.468   6.556  12.368 -0.7679  1.0895 -0.9710
 9074TIP3    H248714   5.340   6.604  12.434 -0.4950 -1.0623  1.2720
 9075TIP3   OH248715   4.342   6.772   4.138 -0.6425 -0.0601  0.0793
 9075TIP3    H148716   4.316   6.695   4.088  2.7508 -0.6165 -1.0362
 9075TIP3    H248717   4.368   6.737   4.224 -1.2495  0.1715  0.3634
 9076TIP3   OH248718   4.348   4.362  14.529  0.6601 -0.5699  0.0980
 9076TIP3    H148719   4.375   4.275  14.558  0.7689 -1.3951 -2.2374
 9076TIP3    H248720   4.414   4.388  14.465  0.6492  1.2883  0.7634
 9077TIP3   OH248721   1.297   6.810  13.422 -0.2384 -0.2063  0.0027
 9077TIP3    H148722   1.221   6.811  13.481 -1.0236 -1.5368 -0.9114
 9077TIP3    H248723   1.269   6.860  13.346  0.3068  0.4255  0.2089
 9078TIP3   OH248724   4.448   4.553   5.586  0.1437  0.0380 -0.0163
 9078TIP3    H148725   4.462   4.592   5.672  1.1467  0.4167 -0.3390
 9078TIP3    H248726   4.471   4.622   5.524 -1.0931 -0.0476 -0.6053
 9079TIP3   OH248727   0.637   6.459  14.540 -0.3815  0.2450 -0.2811
 9079TIP3    H148728   0.582   6.441  14.464  0.2944 -1.5308 -0.3896
 9079TIP3    H248729   0.618   6.551  14.562 -1.1246  0.5776 -2.1267
 9080TIP3   OH248730   0.065   2.859   1.887  0.2145  0.3919 -1.0310
 9080TIP3    H148731  -0.025   2.836   1.864  0.6936 -0.4664 -2.1108
 9080TIP3    H248732   0.089   2.927   1.825  0.7575 -0.3389 -1.6310
 9081TIP3   OH248733   4.604   3.864  11.341 -0.2538 -0.1174  0.0027
 9081TIP3    H148734   4.552   3.839  11.417  3.9361 -1.3101  2.8161
 9081TIP3    H248735   4.649   3.783  11.315  0.4769  0.8788 -2.0440
 9082TIP3   OH248736   5.612   4.477  16.059 -0.0919  0.1674 -0.5607
 9082TIP3    H148737   5.674   4.505  16.126  0.4000  1.2935 -1.4592
 9082TIP3    H248738   5.526   4.491  16.099  0.0300  4.1732 -1.2813
 9083TIP3   OH248739   0.470   5.725   5.871 -0.0541 -0.3709 -0.1077
 9083TIP3    H148740   0.548   5.701   5.921 -0.3358 -0.5718  0.2406
 9083TIP3    H248741   0.456   5.818   5.891 -1.1027 -0.8285  1.5030
 9084TIP3   OH248742   3.801   0.137   0.385 -0.6636  0.3909 -0.8043
 9084TIP3    H148743   3.844   0.065   0.433 -0.5755 -0.4648 -2.1149
 9084TIP3    H248744   3.730   0.165   0.443  1.3159  1.5291  1.2326
 9085TIP3   OH248745   3.722   1.877   0.698  0.3778 -0.3556  0.4435
 9085TIP3    H148746   3.721   1.782   0.691  0.2385 -0.2379 -2.7696
 9085TIP3    H248747   3.812   1.901   0.673  1.0927  0.3672  3.3130
 9086TIP3   OH248748   3.029   0.478   1.708 -0.5539  0.2918  0.0130
 9086TIP3    H148749   3.108   0.511   1.751 -0.5258 -0.5719  0.6524
 9086TIP3    H248750   3.037   0.506   1.617  0.6380 -0.0440  0.0057
 9087TIP3   OH248751   5.293   3.433   0.291 -0.2117  0.1818 -0.1534
 9087TIP3    H148752   5.272   3.431   0.198  0.4527 -0.4688 -0.2971
 9087TIP3    H248753   5.222   3.484   0.330  0.7004  2.4783 -1.3191
 9088TIP3   OH248754   0.588   3.774  16.195  0.1056  0.3302  0.4131
 9088TIP3    H148755   0.526   3.784  16.267 -0.3447  0.7381 -0.0195
 9088TIP3    H248756   0.663   3.729  16.233 -0.2988  0.1736  1.0377
 9089TIP3   OH248757   1.738   5.752  15.762 -0.0736  0.7915  0.0526
 9089TIP3    H148758   1.643   5.756  15.757 -0.1980 -0.8861  0.5856
 9089TIP3    H248759   1.768   5.827  15.710 -1.6715  1.3932 -0.0467
 9090TIP3   OH248760   2.142   0.462   5.271  0.0158 -0.0220 -0.4015
 9090TIP3    H148761   2.167   0.554   5.286 -1.3069  0.4963 -1.1708
 9090TIP3    H248762   2.055   0.455   5.311  0.2510 -1.0338 -0.0631
 9091TIP3   OH248763   2.324   1.992   5.401  0.8527 -0.5982 -0.3558
 9091TIP3    H148764   2.249   1.949   5.361 -0.8078 -0.1105  2.0312
 9091TIP3    H248765   2.286   2.054   5.463  3.2340 -0.4232  1.0596
 9092TIP3   OH248766   0.462   5.533   0.551 -0.5421 -0.2561 -0.4267
 9092TIP3    H148767   0.387   5.476   0.535 -1.4724  0.3643  1.4037
 9092TIP3    H248768   0.448   5.567   0.639  0.3925  2.1848 -1.1332
 9093TIP3   OH248769   0.071   6.677  11.357 -0.5036 -0.1954 -0.3435
 9093TIP3    H148770   0.035   6.761  11.328  1.2682  0.2635 -1.3298
 9093TIP3    H248771   0.101   6.693  11.446 -2.1585 -0.4355  0.2932
 9094TIP3   OH248772   1.161   0.479  16.245  0.5740 -0.5311  0.2341
 9094TIP3    H148773   1.204   0.420  16.183 -1.2398 -0.9217 -0.7162
 9094TIP3    H248774   1.191   0.449  16.331  1.7799 -1.0803 -0.3514
 9095TIP3   OH248775   3.992   4.864  15.314  0.0680 -0.5259 -0.0378
 9095TIP3    H148776   4.003   4.770  15.324 -0.7916 -0.6371 -0.0215
 9095TIP3    H248777   3.953   4.893  15.397  2.1932  0.1874  0.7702
 9096TIP3   OH248778   1.218   6.448  16.034 -0.5215  0.1058 -0.4397
 9096TIP3    H148779   1.141   6.396  16.012  0.5654 -0.9519 -1.9923
 9096TIP3    H248780   1.291   6.400  15.994  0.8650  1.3988  0.4436
 9097TIP3   OH248781   6.536   4.085  12.493 -0.0921  0.6213  0.5988
 9097TIP3    H148782   6.454   4.054  12.454  0.1681 -0.1682  0.6645
 9097TIP3    H248783   6.577   4.006  12.528  1.9081  0.5323 -1.6530
 9098TIP3   OH248784   2.044   6.113  16.242 -0.2553  0.2537  0.0534
 9098TIP3    H148785   2.129   6.153  16.224 -0.1483  0.2599  0.5495
 9098TIP3    H248786   2.062   6.019  16.244 -0.7583  0.0383 -2.4882
 9099TIP3   OH248787   1.557   5.777   1.024 -0.6831  0.2942  0.2490
 9099TIP3    H148788   1.594   5.696   0.989 -1.1337 -0.6634  1.8895
 9099TIP3    H248789   1.492   5.804   0.958 -1.2575 -1.2434  0.1503
 9100TIP3   OH248790   6.323   4.263  11.746  0.4329  0.0369 -0.0398
 9100TIP3    H148791   6.313   4.177  11.706 -1.6489 -0.4229  1.3059
 9100TIP3    H248792   6.269   4.322  11.693 -1.6487 -0.4066  1.4935
 9101TIP3   OH248793   3.757   1.112  15.368  0.1866 -0.1225  0.1293
 9101TIP3    H148794   3.850   1.092  15.366  0.1443 -0.2948 -0.2010
 9101TIP3    H248795   3.752   1.207  15.353  0.2446 -0.3189 -1.2454
 9102TIP3   OH248796   6.157   4.928   4.225  0.4260 -0.2648 -0.1389
 9102TIP3    H148797   6.161   4.924   4.130  1.8598 -1.9983 -0.0648
 9102TIP3    H248798   6.203   5.008   4.248  0.9606 -0.3419 -0.8918
 9103TIP3   OH248799   5.665   3.428  11.764  0.0942 -0.4253  0.4985
 9103TIP3    H148800   5.581   3.460  11.798 -0.1257 -0.3619 -0.0908
 9103TIP3    H248801   5.648   3.412  11.671  1.6470  2.8793 -0.4930
 9104TIP3   OH248802   3.237   0.705   1.085 -0.5775  0.3139  0.9205
 9104TIP3    H148803   3.153   0.726   1.043 -0.8346 -0.4042  1.0736
 9104TIP3    H248804   3.216   0.638   1.149  0.4200 -1.3608 -0.4205
 9105TIP3   OH248805   3.591   6.146   1.510  0.1145  0.1708 -0.3961
 9105TIP3    H148806   3.551   6.232   1.497 -2.0565 -0.8371 -0.8051
 9105TIP3    H248807   3.517   6.085   1.513  1.5097 -1.5779  0.9795
 9106TIP3   OH248808   2.058   2.697   0.213 -0.4418  0.0907 -0.3622
 9106TIP3    H148809   2.014   2.628   0.163  0.1171 -0.0204 -0.7173
 9106TIP3    H248810   2.141   2.711   0.166 -1.2672  2.2127 -1.3454
 9107TIP3   OH248811   3.955   5.752  12.988 -0.4762 -0.4461 -0.5489
 9107TIP3    H148812   3.916   5.839  12.982 -0.4944 -0.4018  0.1048
 9107TIP3    H248813   3.910   5.701  12.921  0.2670  0.3112 -1.6533
 9108TIP3   OH248814   6.472   5.739  15.285  0.3694  0.6057  0.2860
 9108TIP3    H148815   6.470   5.830  15.314 -1.1602 -0.0167  2.3650
 9108TIP3    H248816   6.564   5.723  15.262  0.5821  2.7650 -0.6275
 9109TIP3   OH248817   1.947   3.636  14.079 -0.2705  0.1602 -0.1857
 9109TIP3    H148818   1.958   3.717  14.028 -0.7518  0.3077 -0.0625
 9109TIP3    H248819   2.014   3.577  14.045  0.1503  0.6438 -0.2139
 9110TIP3   OH248820   2.603   4.955   9.555 -0.0649  0.7142 -0.6920
 9110TIP3    H148821   2.572   4.871   9.522 -0.7275  1.3366 -1.6954
 9110TIP3    H248822   2.544   4.976   9.627  0.8515 -0.2333  0.3752
 9111TIP3   OH248823   5.455   0.491   6.136  0.3656  0.1741 -0.5471
 9111TIP3    H148824   5.492   0.404   6.123 -1.1735 -0.3240 -1.9713
 9111TIP3    H248825   5.363   0.476   6.157  1.0884  1.2766  4.9006
 9112TIP3   OH248826   5.257   6.146  12.558 -0.1256  0.6689 -0.2877
 9112TIP3    H148827   5.324   6.149  12.490  1.0239 -0.1401  0.7712
 9112TIP3    H248828   5.213   6.062  12.544  0.3796  0.3162  0.1925
 9113TIP3   OH248829   6.751   4.575  12.496  0.0102 -0.0192 -0.0946
 9113TIP3    H148830   6.662   4.557  12.526  0.3602 -0.8553  0.4975
 9113TIP3    H248831   6.774   4.500  12.441 -0.8070  1.7332 -3.0397
 9114TIP3   OH248832   0.799   6.733  15.489  0.0214  0.6607  0.1493
 9114TIP3    H148833   0.832   6.722  15.578 -0.4050  0.9123  0.3412
 9114TIP3    H248834   0.777   6.644  15.460 -1.0456  0.7057  0.7707
 9115TIP3   OH248835   1.663   5.131   2.585  0.1741 -0.0392  0.3178
 9115TIP3    H148836   1.581   5.102   2.545  1.0491  0.3716 -1.8924
 9115TIP3    H248837   1.708   5.050   2.610 -1.0194 -0.2594  1.8957
 9116TIP3   OH248838   3.268   5.134   2.526  0.2057 -0.1269 -0.3931
 9116TIP3    H148839   3.293   5.121   2.617 -2.1738  0.0394  0.3501
 9116TIP3    H248840   3.339   5.187   2.489  0.3990  1.3139  1.8385
 9117TIP3   OH248841   4.245   5.666   6.749 -0.0897  0.1178  0.2982
 9117TIP3    H148842   4.212   5.584   6.786  1.5024 -0.5185  0.3645
 9117TIP3    H248843   4.339   5.664   6.765  0.0644  1.6956 -0.2332
 9118TIP3   OH248844   4.735   1.009   4.937  0.5752 -0.1797 -0.0983
 9118TIP3    H148845   4.794   0.938   4.913  1.0725 -0.1278  0.8854
 9118TIP3    H248846   4.739   1.070   4.863  1.4068 -0.3977 -0.2445
 9119TIP3   OH248847   3.131   1.221  14.659  0.1147  0.0033 -0.1533
 9119TIP3    H148848   3.091   1.297  14.616  1.1552  0.0572 -1.0886
 9119TIP3    H248849   3.123   1.240  14.753 -1.2164  0.4198 -0.3389
 9120TIP3   OH248850   4.743   2.148   2.965 -0.1589  0.4576 -0.5102
 9120TIP3    H148851   4.717   2.232   3.003  0.3331  0.2504  0.3245
 9120TIP3    H248852   4.666   2.118   2.918 -0.5626  1.0553 -0.2445
 9121TIP3   OH248853   6.534   1.781  11.574  0.1013 -0.2925  0.3655
 9121TIP3    H148854   6.607   1.728  11.541  0.0906  0.6054 -1.1713
 9121TIP3    H248855   6.498   1.823  11.497  0.4354  2.3667  1.5481
 9122TIP3   OH248856   1.420   5.623   5.484  0.3982  0.2653  0.1393
 9122TIP3    H148857   1.383   5.688   5.544  0.3801  0.6880 -0.3273
 9122TIP3    H248858   1.375   5.541   5.506 -0.4199  0.6565 -0.0534
 9123TIP3   OH248859   5.597   4.993   5.530  0.1963  0.0040  0.0369
 9123TIP3    H148860   5.682   5.036   5.520  0.6922 -1.1605 -1.0947
 9123TIP3    H248861   5.535   5.053   5.488  0.1074  1.7075  2.3942
 9124TIP3   OH248862   5.481   0.354   4.461 -0.8437 -0.5021  0.4664
 9124TIP3    H148863   5.414   0.339   4.528  0.3473 -0.0735  1.8186
 9124TIP3    H248864   5.557   0.305   4.493  0.7889  2.2708  1.1664
 9125TIP3   OH248865   0.861   1.591   0.614 -0.4896 -0.3915  0.4259
 9125TIP3    H148866   0.849   1.629   0.527  0.3973  0.6554  0.7325
 9125TIP3    H248867   0.881   1.498   0.597  2.0181  0.2489 -0.6864
 9126TIP3   OH248868   6.589   0.927  16.483  0.3771 -0.2104 -0.4998
 9126TIP3    H148869   6.495   0.911  16.476  0.2015  0.5817 -0.1033
 9126TIP3    H248870   6.627   0.886  16.405 -0.1231 -1.7187  0.0211
 9127TIP3   OH248871   0.313   0.365  16.609  0.9525 -0.1757 -0.8485
 9127TIP3    H148872   0.370   0.311  16.554  1.5362 -1.9134  1.3452
 9127TIP3    H248873   0.374   0.418  16.661  0.4455  0.2591 -0.6832
 9128TIP3   OH248874   0.891   6.119  15.787  0.4249 -0.4665 -0.1170
 9128TIP3    H148875   0.937   6.202  15.796 -1.8298  1.1001 -1.7222
 9128TIP3    H248876   0.815   6.128  15.845  0.6623 -1.8294  0.4235
 9129TIP3   OH248877   1.606   6.434  13.050 -0.0639  0.1491  0.3085
 9129TIP3    H148878   1.634   6.446  12.959 -1.7948 -0.2288 -0.3205
 9129TIP3    H248879   1.532   6.495  13.060  0.0877  0.1590  1.4565
 9130TIP3   OH248880   0.825   5.540   3.625  0.3633  0.3932  0.2880
 9130TIP3    H148881   0.833   5.616   3.682 -0.0239  1.3546 -0.9057
 9130TIP3    H248882   0.876   5.562   3.547  1.5883 -1.2465  0.5687
 9131TIP3   OH248883   1.825   1.958  16.377  0.9300  0.5187 -0.1779
 9131TIP3    H148884   1.840   2.012  16.299  2.1833  0.1019 -0.2486
 9131TIP3    H248885   1.855   2.013  16.450 -0.7181  1.1105  0.0975
 9132TIP3   OH248886   3.737   4.007   0.547  0.3980  0.0249  0.1423
 9132TIP3    H148887   3.793   4.010   0.469  2.4117  0.0382  1.5239
 9132TIP3    H248888   3.796   4.026   0.620 -1.8492  2.4789  1.5041
 9133TIP3   OH248889   2.645   3.703   2.677  1.0399  0.6498 -0.5748
 9133TIP3    H148890   2.564   3.753   2.672  1.4076  1.2373 -0.7197
 9133TIP3    H248891   2.708   3.761   2.720  0.7642 -0.6285  1.7286
 9134TIP3   OH248892   6.792   0.334   5.603  0.2571  0.4626 -0.3991
 9134TIP3    H148893   6.719   0.273   5.602  0.0124  0.7343  0.4096
 9134TIP3    H248894   6.870   0.279   5.603  0.0399  0.1109  1.1782
 9135TIP3   OH248895   3.857   2.512  12.336 -0.5667 -0.4353  0.1712
 9135TIP3    H148896   3.912   2.469  12.401 -1.1128 -0.3199  0.7299
 9135TIP3    H248897   3.913   2.524  12.260 -0.0171 -0.8959  0.4996
 9136TIP3   OH248898   6.198   1.995   2.893  0.2422  0.0006 -0.8804
 9136TIP3    H148899   6.236   1.925   2.840 -0.2824  0.0630 -1.3513
 9136TIP3    H248900   6.249   2.072   2.873 -0.1263  0.0848 -1.5125
 9137TIP3   OH248901   1.671   2.012   1.566  0.3995 -0.1101 -0.5533
 9137TIP3    H148902   1.646   2.093   1.609  0.1755  0.1188 -1.1160
 9137TIP3    H248903   1.736   1.973   1.625  1.6249  1.1996 -1.0017
 9138TIP3   OH248904   5.077   4.441  16.331 -0.0739  0.3348  0.1953
 9138TIP3    H148905   5.105   4.383  16.401  1.2689  0.6240 -0.0773
 9138TIP3    H248906   5.014   4.389  16.280  0.7232 -0.7078  0.2481
 9139TIP3   OH248907   5.140   4.068  11.425 -0.2270 -0.1574 -0.1326
 9139TIP3    H148908   5.048   4.044  11.429 -0.5838  1.2038  0.5539
 9139TIP3    H248909   5.157   4.111  11.509  0.2230  2.2404 -1.3593
 9140TIP3   OH248910   3.026   4.155   5.544 -0.2932 -0.1689 -0.0747
 9140TIP3    H148911   3.051   4.179   5.634  0.4844  0.9444 -0.5760
 9140TIP3    H248912   3.079   4.078   5.525  0.9235  0.6707 -0.2118
 9141TIP3   OH248913   2.703   1.196  12.317 -0.1887 -0.0534  0.7736
 9141TIP3    H148914   2.796   1.180  12.299  0.3190  2.3605  0.9694
 9141TIP3    H248915   2.700   1.215  12.411 -0.6478  1.1937  0.5257
 9142TIP3   OH248916   3.409   3.686  13.888  0.4782 -0.5055  0.4760
 9142TIP3    H148917   3.423   3.620  13.820  1.4666  0.7782 -0.6343
 9142TIP3    H248918   3.444   3.646  13.968  1.1046 -1.3123 -0.1864
 9143TIP3   OH248919   3.134   0.942  11.705  0.0007  0.1675 -0.2197
 9143TIP3    H148920   3.124   0.868  11.765  2.2737 -0.5659 -0.6505
 9143TIP3    H248921   3.113   1.019  11.758 -0.2880 -0.6277  0.8564
 9144TIP3   OH248922   2.427   6.273  16.851  1.1721  0.5706 -0.4075
 9144TIP3    H148923   2.419   6.364  16.824  1.0861  1.1627  1.4335
 9144TIP3    H248924   2.469   6.277  16.937  0.6701 -1.0911 -0.0371
 9145TIP3   OH248925   5.190   5.290  15.754  0.4069  0.3790 -0.1808
 9145TIP3    H148926   5.199   5.308  15.660  1.9265  2.5379  0.3018
 9145TIP3    H248927   5.112   5.338  15.780 -0.4452 -0.8202 -0.4249
 9146TIP3   OH248928   2.678   3.157   4.969 -0.2421 -0.0047  0.0273
 9146TIP3    H148929   2.601   3.101   4.981  0.3232 -0.8418 -0.1534
 9146TIP3    H248930   2.742   3.122   5.030  0.5518 -0.3729 -0.9823
 9147TIP3   OH248931   1.697   0.113   1.759  0.2939 -0.0088  0.1998
 9147TIP3    H148932   1.606   0.136   1.739  0.3971  1.2881  1.0947
 9147TIP3    H248933   1.745   0.139   1.680  0.1973  1.6355  0.6381
 9148TIP3   OH248934   5.357   6.050  13.266 -0.2386  0.1309  0.2458
 9148TIP3    H148935   5.413   6.058  13.344  1.4186  1.0729 -0.9627
 9148TIP3    H248936   5.303   6.129  13.268 -0.6629 -0.1633  0.7564
 9149TIP3   OH248937   4.617   3.705   3.698 -0.9803  0.7032  0.3992
 9149TIP3    H148938   4.604   3.720   3.792  1.5487 -0.5623  1.0451
 9149TIP3    H248939   4.650   3.616   3.693  0.2173  1.2129 -1.5618
 9150TIP3   OH248940   6.771   4.778   1.700  0.6153 -0.3953  0.3961
 9150TIP3    H148941   6.768   4.865   1.662  0.3769 -0.7710 -0.4835
 9150TIP3    H248942   6.784   4.719   1.625 -0.1507 -1.1823  0.8516
 9151TIP3   OH248943   2.245   6.705   1.490 -0.0514  0.2468 -0.6192
 9151TIP3    H148944   2.219   6.614   1.508  0.0205  0.1597 -0.9646
 9151TIP3    H248945   2.169   6.757   1.519  0.7710  0.2557  1.7057
 9152TIP3   OH248946   3.127   6.103  13.484 -0.0474  0.5464  0.0389
 9152TIP3    H148947   3.114   6.083  13.392 -1.2387  0.0828  0.2913
 9152TIP3    H248948   3.039   6.113  13.520  0.3093 -1.0471  1.5085
 9153TIP3   OH248949   5.158   0.625  16.392 -0.0711 -0.0063 -0.1475
 9153TIP3    H148950   5.202   0.569  16.456 -0.5978 -1.2021 -0.8096
 9153TIP3    H248951   5.066   0.601  16.399 -0.5177  1.7178  0.4666
 9154TIP3   OH248952   0.816   4.341   1.917 -0.8013 -0.0939 -0.0736
 9154TIP3    H148953   0.841   4.268   1.974 -2.2555  0.7793  1.7600
 9154TIP3    H248954   0.744   4.306   1.865 -0.1253 -0.5779 -0.7176
 9155TIP3   OH248955   1.565   0.021  11.901 -0.2374  0.7329  0.0972
 9155TIP3    H148956   1.499  -0.023  11.954  0.8784 -1.5702 -0.2914
 9155TIP3    H248957   1.647  -0.021  11.926  0.5808  0.9648 -1.9864
 9156TIP3   OH248958   0.735   4.934   5.068 -0.3802  0.1984 -0.0240
 9156TIP3    H148959   0.768   4.853   5.031  1.2690  1.4610 -1.4402
 9156TIP3    H248960   0.710   4.911   5.158 -1.0938 -2.1030 -0.7444
 9157TIP3   OH248961   3.197   2.705  10.227 -0.8219 -0.3196  0.0849
 9157TIP3    H148962   3.102   2.708  10.242 -0.5965  3.3705  2.0765
 9157TIP3    H248963   3.233   2.665  10.306 -0.6355  0.9680  0.6794
 9158TIP3   OH248964   2.197   0.509   3.414 -0.1933 -0.0497  0.2706
 9158TIP3    H148965   2.162   0.560   3.341 -3.1282 -1.4457  0.5191
 9158TIP3    H248966   2.227   0.427   3.375  1.6854  0.6034  0.2463
 9159TIP3   OH248967   3.949   3.474  15.245 -0.2279 -0.3896  0.4179
 9159TIP3    H148968   3.894   3.552  15.234 -0.1888 -0.2647  1.0529
 9159TIP3    H248969   4.014   3.500  15.311  2.1964  0.3260 -2.0663
 9160TIP3   OH248970   4.154   6.056  16.541 -0.2948 -0.5441  0.5779
 9160TIP3    H148971   4.199   6.110  16.476 -0.5313  0.3144  1.1210
 9160TIP3    H248972   4.088   6.008  16.490 -0.8821  0.5662  0.2488
 9161TIP3   OH248973   1.110   1.341   2.937  0.0008 -0.1960  0.5792
 9161TIP3    H148974   1.185   1.399   2.952  0.0703 -0.1782  0.1757
 9161TIP3    H248975   1.035   1.400   2.927  0.2859 -0.0774 -1.1899
 9162TIP3   OH248976   0.708   4.454   3.508  0.3439  0.2254  0.3602
 9162TIP3    H148977   0.743   4.366   3.520  0.0900  0.0871  0.1201
 9162TIP3    H248978   0.647   4.466   3.581 -2.4215 -1.2334 -1.5219
 9163TIP3   OH248979   4.640   3.751   3.208 -0.6109 -0.4081  0.4008
 9163TIP3    H148980   4.597   3.712   3.132 -0.9332 -0.6233  0.6899
 9163TIP3    H248981   4.594   3.833   3.222 -0.7405 -0.5019  0.5330
 9164TIP3   OH248982   4.798   2.068   1.105 -0.2005 -0.1127  0.2199
 9164TIP3    H148983   4.744   1.995   1.075 -0.5180  0.5729 -0.9428
 9164TIP3    H248984   4.741   2.118   1.164 -1.0061  0.7661 -1.2170
 9165TIP3   OH248985   5.455   0.862  10.717 -0.1234 -0.0098 -0.0644
 9165TIP3    H148986   5.505   0.824  10.644 -0.2910  1.1781 -0.8252
 9165TIP3    H248987   5.418   0.943  10.681 -2.3724 -0.7005  0.5661
 9166TIP3   OH248988   2.207   4.407  11.665  0.4920  0.5623 -0.3781
 9166TIP3    H148989   2.175   4.476  11.724 -2.0593 -0.3829 -0.5246
 9166TIP3    H248990   2.174   4.326  11.703  2.9635 -0.6042 -0.5113
 9167TIP3   OH248991   3.425   3.468  13.687  0.6071  0.3942 -0.2330
 9167TIP3    H148992   3.457   3.378  13.674  0.5777  0.4160 -0.4618
 9167TIP3    H248993   3.504   3.522  13.682  0.6439  0.3689  0.0467
 9168TIP3   OH248994   2.717   5.594  13.764 -0.0267 -0.1008 -0.3070
 9168TIP3    H148995   2.696   5.537  13.690 -0.7083  0.2082 -0.3630
 9168TIP3    H248996   2.768   5.539  13.823  2.9648  0.4004 -2.2149
 9169TIP3   OH248997   6.062   6.729  13.250 -0.1499  0.2559  0.1463
 9169TIP3    H148998   5.991   6.784  13.282 -0.2457  0.9963 -1.2407
 9169TIP3    H248999   6.025   6.683  13.175  1.0935  1.5185 -1.3270
 9170TIP3   OH249000   4.458   1.553   0.501 -0.6301 -0.3346  0.4323
 9170TIP3    H149001   4.402   1.502   0.560  1.6790 -0.6939  2.4559
 9170TIP3    H249002   4.535   1.574   0.553  1.5254 -0.5797 -2.4329
 9171TIP3   OH249003   4.864   6.193  12.380 -0.0563  0.2262 -0.2922
 9171TIP3    H149004   4.836   6.108  12.415 -1.2977  1.2198  1.2668
 9171TIP3    H249005   4.785   6.232  12.344  0.7369  0.2638 -2.1118
 9172TIP3   OH249006   2.636   2.026  11.295 -0.0772  0.4019  0.5243
 9172TIP3    H149007   2.685   2.102  11.328 -0.0992  0.4559  0.4342
 9172TIP3    H249008   2.701   1.956  11.291  0.5243  0.9828 -1.5193
 9173TIP3   OH249009   0.216   1.474   0.586 -0.1933  0.2222 -0.6062
 9173TIP3    H149010   0.243   1.565   0.598 -0.0599  0.2264 -0.9191
 9173TIP3    H249011   0.239   1.454   0.495 -0.5972  0.0033 -0.6646
 9174TIP3   OH249012   4.864   1.148  15.646  0.4923  0.1336  0.0878
 9174TIP3    H149013   4.841   1.078  15.585  0.0600  2.1280 -2.1497
 9174TIP3    H249014   4.960   1.152  15.642  0.6757 -1.3121  1.5009
 9175TIP3   OH249015   5.944   6.006   2.189 -0.5517  0.2861 -0.5579
 9175TIP3    H149016   5.969   5.954   2.113  0.8779  2.4117 -1.6319
 9175TIP3    H249017   5.856   6.038   2.168 -1.3751 -1.4823  0.0443
 9176TIP3   OH249018   2.686   1.118   0.234 -0.0324 -0.3402 -0.3136
 9176TIP3    H149019   2.780   1.132   0.235  0.3283 -2.4271  0.4558
 9176TIP3    H249020   2.650   1.190   0.287  1.0844  0.5551 -0.7301
 9177TIP3   OH249021   1.804   0.122   3.454  0.2139  0.2945 -0.4725
 9177TIP3    H149022   1.820   0.171   3.535 -0.2852 -0.2834 -0.0070
 9177TIP3    H249023   1.709   0.127   3.442 -0.2043 -2.4584  0.8832
 9178TIP3   OH249024   0.160   6.054  15.303  0.2757  0.3690  0.1235
 9178TIP3    H149025   0.219   6.057  15.378 -1.2261 -1.0062  1.4386
 9178TIP3    H249026   0.209   6.007  15.236  0.4943 -1.2710  1.3852
 9179TIP3   OH249027   2.627   0.887   0.106  0.1092 -0.2129 -0.5198
 9179TIP3    H149028   2.652   0.969   0.149  0.9536 -0.8096  0.1719
 9179TIP3    H249029   2.590   0.834   0.176  1.4060 -1.1611 -0.5055
 9180TIP3   OH249030   0.633   2.652   2.966  0.3118 -0.1373 -0.8764
 9180TIP3    H149031   0.568   2.642   3.036  0.2708 -1.5383 -1.0736
 9180TIP3    H249032   0.717   2.637   3.010  0.3051 -0.7570 -1.0638
 9181TIP3   OH249033   3.556   6.743  11.577 -0.3293  0.0253 -0.3414
 9181TIP3    H149034   3.538   6.703  11.492  2.1610 -1.0838 -0.4482
 9181TIP3    H249035   3.648   6.771  11.571 -0.1751  0.1620  1.8820
 9182TIP3   OH249036   6.415   1.116   2.914  0.4922 -0.3154 -0.0974
 9182TIP3    H149037   6.376   1.108   2.827 -0.0712  0.9276  0.0149
 9182TIP3    H249038   6.363   1.058   2.970 -0.1298  0.0452 -0.2946
 9183TIP3   OH249039   0.826   2.066   3.311  0.3598  0.1121  0.1750
 9183TIP3    H149040   0.814   1.972   3.326 -0.6443  0.2991  0.6244
 9183TIP3    H249041   0.878   2.071   3.231  0.0817 -0.8205 -0.0767
 9184TIP3   OH249042   4.591   6.158   5.794 -0.3841 -0.2099  0.6474
 9184TIP3    H149043   4.506   6.114   5.794  0.0159 -1.0196 -0.3162
 9184TIP3    H249044   4.578   6.236   5.740 -0.5652 -0.2169  0.6802
 9185TIP3   OH249045   0.320   3.827   5.387  0.0914  0.6768  0.5895
 9185TIP3    H149046   0.284   3.760   5.329 -0.3447  1.2857  0.1458
 9185TIP3    H249047   0.395   3.784   5.429  0.1322  0.0751 -0.0710
 9186TIP3   OH249048   0.512   1.973   5.654  0.1777 -0.7091  0.6848
 9186TIP3    H149049   0.578   1.907   5.633  1.2609  0.5348 -0.0421
 9186TIP3    H249050   0.562   2.055   5.657 -1.5878  0.5447 -1.5870
 9187TIP3   OH249051   4.993   5.948   0.305  0.4292 -0.7320  0.1133
 9187TIP3    H149052   5.045   5.872   0.280  0.7745 -0.2006 -0.8679
 9187TIP3    H249053   4.967   5.932   0.395  2.0083 -1.1947  0.5106
 9188TIP3   OH249054   6.407   6.311  11.627  0.0349  0.1309  0.1178
 9188TIP3    H149055   6.501   6.293  11.633 -0.0877 -0.4452  0.3675
 9188TIP3    H249056   6.371   6.231  11.588  0.0174  1.4100 -2.7146
 9189TIP3   OH249057   0.346   6.099  12.282 -0.2848  0.0844 -0.5107
 9189TIP3    H149058   0.302   6.057  12.357  0.3236  0.1346 -0.1134
 9189TIP3    H249059   0.301   6.065  12.205 -1.6210  0.8454 -0.0843
 9190TIP3   OH249060   5.570   0.393  16.570  0.5756  0.0648  0.0825
 9190TIP3    H149061   5.636   0.405  16.502  0.1772  0.9082 -0.1755
 9190TIP3    H249062   5.561   0.299  16.579  0.6048 -0.0582 -1.0645
 9191TIP3   OH249063   5.297   3.682  13.243  0.0525  0.0038 -0.2574
 9191TIP3    H149064   5.372   3.713  13.193 -0.6207  0.2639 -1.1177
 9191TIP3    H249065   5.295   3.739  13.320  0.7734 -0.0515 -0.1888
 9192TIP3   OH249066   5.001   5.543  11.923 -0.3785 -0.0579  0.0122
 9192TIP3    H149067   4.978   5.475  11.860  1.0145 -0.5943  0.0471
 9192TIP3    H249068   4.929   5.606  11.918  0.0074  0.2738 -2.6031
 9193TIP3   OH249069   6.073   2.767   3.847 -0.1185 -0.0691  0.2781
 9193TIP3    H149070   6.046   2.728   3.930  0.9068 -0.3738  0.4716
 9193TIP3    H249071   6.168   2.777   3.854 -0.0176 -0.0986 -0.8569
 9194TIP3   OH249072   0.588   0.396   0.874  0.0483 -0.5998  0.1566
 9194TIP3    H149073   0.515   0.358   0.922 -0.6525 -0.7628 -0.9984
 9194TIP3    H249074   0.568   0.378   0.782  0.5964  0.9887 -0.3088
 9195TIP3   OH249075   4.396   4.339  10.711  0.2109  0.0886 -0.3071
 9195TIP3    H149076   4.370   4.395  10.785  1.8946 -0.1937  0.5533
 9195TIP3    H249077   4.351   4.376  10.636 -1.5628  0.4077  0.8396
 9196TIP3   OH249078   6.764   4.738  10.816  0.2771 -1.1238  0.1913
 9196TIP3    H149079   6.833   4.785  10.863 -0.9291 -0.3678  1.2638
 9196TIP3    H249080   6.807   4.705  10.737  1.4655  0.7900 -0.0362
 9197TIP3   OH249081   0.899   4.824   1.288  0.0212  0.0237 -0.2352
 9197TIP3    H149082   0.829   4.773   1.329  1.5613 -2.4733 -0.5248
 9197TIP3    H249083   0.925   4.887   1.355 -0.6659 -0.8532  0.8829
 9198TIP3   OH249084   4.659   3.235   4.318  0.3113  0.8029 -0.1788
 9198TIP3    H149085   4.685   3.144   4.304 -1.1844 -0.0506  2.0335
 9198TIP3    H249086   4.736   3.277   4.357 -0.2358 -0.6934  2.7522
 9199TIP3   OH249087   4.414   3.089  15.086 -0.3467 -0.0335  0.5636
 9199TIP3    H149088   4.382   3.056  15.002  0.8224  1.0112 -0.3241
 9199TIP3    H249089   4.335   3.097  15.140 -1.3419  0.7103 -0.9358
 9200TIP3   OH249090   5.576   6.427   1.563  0.3251  0.1791 -0.3143
 9200TIP3    H149091   5.506   6.370   1.532 -0.1919  0.3626  0.4845
 9200TIP3    H249092   5.587   6.492   1.494  0.2701 -0.3237 -0.8054
 9201TIP3   OH249093   4.420   4.932   5.218 -0.5184 -0.2246  0.1356
 9201TIP3    H149094   4.403   4.891   5.133  0.9600  2.2681 -1.5008
 9201TIP3    H249095   4.514   4.924   5.230 -0.5977  0.2115  1.1330
 9202TIP3   OH249096   0.408   5.099   3.180  0.0500  0.4968 -0.4431
 9202TIP3    H149097   0.325   5.124   3.140  0.1370  0.4837 -0.6339
 9202TIP3    H249098   0.414   5.005   3.165 -1.0108  0.0586  1.6255
 9203TIP3   OH249099   0.511   1.632  12.681  0.3778  0.4560  0.2045
 9203TIP3    H149100   0.453   1.561  12.708  0.8454 -0.1602 -0.3492
 9203TIP3    H249101   0.493   1.643  12.587  2.3315 -0.9480 -0.4073
 9204TIP3   OH249102   2.976   4.686   0.682  0.3610  0.5139  0.0842
 9204TIP3    H149103   2.953   4.650   0.597  0.3904 -0.0576  0.3129
 9204TIP3    H249104   3.051   4.634   0.711 -0.0822  0.2405  0.7646
 9205TIP3   OH249105   0.542   0.307  14.531 -0.3747 -0.0646  0.1463
 9205TIP3    H149106   0.553   0.265  14.617 -1.1485  1.3544  0.9749
 9205TIP3    H249107   0.448   0.305  14.515 -0.1072 -1.9137 -1.5502
 9206TIP3   OH249108   5.187   0.099  11.409  0.1452  0.5031 -0.4961
 9206TIP3    H149109   5.217   0.011  11.387 -0.5145  0.3351 -0.7393
 9206TIP3    H249110   5.260   0.156  11.384  1.0069 -0.0519  0.6104
 9207TIP3   OH249111   6.434   0.392   5.376  1.3631  0.1133 -0.1204
 9207TIP3    H149112   6.509   0.366   5.323  0.8091  0.3668 -1.0511
 9207TIP3    H249113   6.403   0.310   5.416  0.9301 -0.3300 -1.3237
 9208TIP3   OH249114   1.322   2.786  14.157  0.1583  0.3236  0.6042
 9208TIP3    H149115   1.278   2.716  14.108 -0.0395  0.8593  0.0104
 9208TIP3    H249116   1.254   2.850  14.175 -0.0533 -0.3949  2.6376
 9209TIP3   OH249117   6.790   0.558   1.759  0.1894 -0.3047 -0.1543
 9209TIP3    H149118   6.787   0.507   1.840 -0.0157 -1.7876 -1.0505
 9209TIP3    H249119   6.713   0.614   1.762  0.2420 -0.2672  0.7186
 9210TIP3   OH249120   0.766   1.046   4.718 -0.1524 -0.3627 -0.0530
 9210TIP3    H149121   0.684   1.041   4.767  0.5308 -1.2685  1.0355
 9210TIP3    H249122   0.834   1.021   4.781  0.9062 -0.1658 -1.0786
 9211TIP3   OH249123   2.568   5.523   3.070 -0.2592  0.1838 -0.0286
 9211TIP3    H149124   2.644   5.580   3.058 -0.5199  0.0297 -3.3539
 9211TIP3    H249125   2.606   5.437   3.090  0.3660  0.3945 -0.2694
 9212TIP3   OH249126   0.684   4.161   4.584  0.0843  0.2727  0.4092
 9212TIP3    H149127   0.645   4.099   4.645  0.3481 -0.0542  0.2498
 9212TIP3    H249128   0.758   4.199   4.632 -0.1720  0.5834  0.5623
 9213TIP3   OH249129   1.196   4.847   1.929 -0.1033 -0.0343  0.4760
 9213TIP3    H149130   1.117   4.857   1.876 -0.5610  0.8222  1.2770
 9213TIP3    H249131   1.268   4.872   1.870 -0.6368  1.2763  0.3393
 9214TIP3   OH249132   5.374   4.681   5.048  0.1860 -0.1102  0.3979
 9214TIP3    H149133   5.287   4.670   5.087 -0.0317  0.7682  0.1888
 9214TIP3    H249134   5.412   4.755   5.096 -0.6348  1.9349 -1.9021
 9215TIP3   OH249135   4.126   0.467  15.127 -0.2140 -0.0456 -0.2488
 9215TIP3    H149136   4.132   0.542  15.186 -1.2234  0.1707 -0.4135
 9215TIP3    H249137   4.089   0.502  15.046  0.1881 -0.5429 -0.6578
 9216TIP3   OH249138   5.812   2.503   6.082  0.9076  0.1009  0.3113
 9216TIP3    H149139   5.776   2.433   6.137 -0.9188 -1.5345 -2.7351
 9216TIP3    H249140   5.746   2.572   6.084  0.6411 -0.1373 -0.1263
 9217TIP3   OH249141   0.490   0.272   2.228 -0.0049 -0.6309  0.0132
 9217TIP3    H149142   0.537   0.189   2.231 -1.0659 -1.3836 -2.0389
 9217TIP3    H249143   0.542   0.327   2.169 -0.4373 -0.6158 -0.3562
 9218TIP3   OH249144   4.493   5.416  11.265 -0.6566  0.2037  0.4179
 9218TIP3    H149145   4.554   5.486  11.244 -0.4208  0.3993  1.6615
 9218TIP3    H249146   4.494   5.412  11.361  0.4775 -2.4853  0.3784
 9219TIP3   OH249147   5.551   1.287  11.672  0.0696 -0.4922 -0.2612
 9219TIP3    H149148   5.550   1.376  11.707  0.9941 -0.2033 -0.9548
 9219TIP3    H249149   5.571   1.298  11.579 -0.9855 -1.3502 -0.6146
 9220TIP3   OH249150   0.198   1.949  15.791  0.1251 -0.1581  0.2084
 9220TIP3    H149151   0.231   1.930  15.879  0.7316 -1.8722 -0.3314
 9220TIP3    H249152   0.144   2.026  15.802  1.6105  0.7485  1.7654
 9221TIP3   OH249153   4.228   5.231  13.893 -0.6324 -0.4735  0.6584
 9221TIP3    H149154   4.163   5.291  13.929 -1.2568 -0.8252  0.1373
 9221TIP3    H249155   4.276   5.284  13.829 -1.2134 -0.5348  0.1641
 9222TIP3   OH249156   4.765   0.719   4.339  0.4532 -0.2512 -0.3218
 9222TIP3    H149157   4.780   0.730   4.433 -1.2197  1.3387 -0.1773
 9222TIP3    H249158   4.707   0.643   4.332  1.2820 -0.9127 -0.1675
 9223TIP3   OH249159   6.195   1.651   5.340  0.0276  0.0211  0.2878
 9223TIP3    H149160   6.275   1.693   5.307 -1.0070  0.8043 -1.3361
 9223TIP3    H249161   6.222   1.562   5.362  0.9424 -0.3584 -2.1339
 9224TIP3   OH249162   0.778   1.288  15.253 -0.3711  0.0434 -0.0031
 9224TIP3    H149163   0.740   1.376  15.263 -1.2025 -0.4860  2.0181
 9224TIP3    H249164   0.705   1.235  15.221  0.1203  0.0634 -1.1801
 9225TIP3   OH249165   1.119   3.400  13.186 -0.5797 -0.1046 -0.2260
 9225TIP3    H149166   1.105   3.495  13.187 -2.5679 -0.3600 -0.4181
 9225TIP3    H249167   1.054   3.366  13.125  0.7602 -1.5300 -0.9416
 9226TIP3   OH249168   3.236   6.481   1.883  0.3384 -0.1314  0.8070
 9226TIP3    H149169   3.185   6.460   1.962  0.0371  1.9887  1.2203
 9226TIP3    H249170   3.212   6.412   1.821 -2.5958  0.4106  1.1793
 9227TIP3   OH249171   3.953   4.075   0.348  0.4029  0.7456 -0.5803
 9227TIP3    H149172   4.039   4.084   0.389 -2.0348  2.6173  5.2047
 9227TIP3    H249173   3.925   4.165   0.329 -0.7265  0.2652 -1.3578
 9228TIP3   OH249174   1.612   2.716  13.335  0.5829  0.5113  0.2002
 9228TIP3    H149175   1.565   2.726  13.418  1.2226 -1.0079  0.7777
 9228TIP3    H249176   1.557   2.656  13.284  1.9609 -1.5399  1.0051
 9229TIP3   OH249177   4.223   3.596   0.084 -0.2820 -0.7877 -0.2920
 9229TIP3    H149178   4.273   3.550   0.151 -1.8107 -1.5732  0.3571
 9229TIP3    H249179   4.223   3.688   0.114 -0.2972 -0.9972  0.3770
 9230TIP3   OH249180   3.833   4.547  15.386  0.2845  0.1744  0.2478
 9230TIP3    H149181   3.920   4.565  15.349  1.1220 -1.9562  1.0002
 9230TIP3    H249182   3.775   4.541  15.310  0.4353  2.9807 -0.1937
 9231TIP3   OH249183   4.287   3.312  14.279  0.8146  0.8394  0.1281
 9231TIP3    H149184   4.206   3.358  14.258  0.4312 -0.0911 -0.5209
 9231TIP3    H249185   4.266   3.258  14.355  1.4723  2.2327  1.3655
 9232TIP3   OH249186   0.210   6.576  15.502 -0.1921  0.3120  0.1725
 9232TIP3    H149187   0.305   6.571  15.490 -0.0193  1.0064  1.1815
 9232TIP3    H249188   0.188   6.667  15.482 -0.5700  0.2750  0.4158
 9233TIP3   OH249189   2.143   1.995  17.063 -0.3019  0.2131  0.2618
 9233TIP3    H149190   2.063   1.975  17.015 -0.4950 -1.3814  1.1425
 9233TIP3    H249191   2.214   1.963  17.006 -0.4074  0.1255  0.1796
 9234TIP3   OH249192   5.081   4.491  15.884  0.2689  0.0210  0.1524
 9234TIP3    H149193   5.006   4.468  15.938  0.0028  1.3214  0.3878
 9234TIP3    H249194   5.113   4.573  15.922 -0.7823  1.7630 -2.4068
 9235TIP3   OH249195   3.316   3.858  15.967  0.0485  0.2030  0.6298
 9235TIP3    H149196   3.383   3.899  16.022 -0.6633 -0.3523  1.9432
 9235TIP3    H249197   3.302   3.921  15.896  3.1977 -0.4024 -0.7133
 9236TIP3   OH249198   2.890   5.857   5.493 -0.1702 -0.7030  0.5006
 9236TIP3    H149199   2.938   5.939   5.503 -0.0840 -0.5820 -0.7258
 9236TIP3    H249200   2.926   5.799   5.561  1.2623 -0.4079  0.0231
 9237TIP3   OH249201   5.369   1.160  14.680  0.0126 -0.3460  0.1694
 9237TIP3    H149202   5.378   1.150  14.585 -0.4912  1.1167 -0.0592
 9237TIP3    H249203   5.320   1.242  14.691  0.2596 -0.3754  1.6969
 9238TIP3   OH249204   1.196   3.048   0.660 -0.2288 -0.0593 -0.0025
 9238TIP3    H149205   1.168   2.993   0.733  0.3897  0.7478  0.8833
 9238TIP3    H249206   1.290   3.030   0.651  0.1537  1.3161  0.7833
 9239TIP3   OH249207   2.962   0.768   0.956  0.2846  0.4227 -0.4720
 9239TIP3    H149208   2.910   0.795   0.880  2.0975 -0.0593 -1.9831
 9239TIP3    H249209   2.898   0.742   1.022 -1.3883 -0.6077 -2.3816
 9240TIP3   OH249210   2.236   2.810   4.773  0.0123  0.1857  0.0927
 9240TIP3    H149211   2.307   2.756   4.807 -0.6342 -0.8375 -0.1212
 9240TIP3    H249212   2.157   2.758   4.789 -0.3829 -0.1692 -2.5013
 9241TIP3   OH249213   1.500   0.190  11.604 -0.0104  0.4779 -1.1482
 9241TIP3    H149214   1.488   0.277  11.564  0.7583 -0.0041 -2.4936
 9241TIP3    H249215   1.585   0.196  11.649 -1.0498  1.1461  0.8750
 9242TIP3   OH249216   1.941   2.115   2.970  0.1579 -0.2524 -0.5729
 9242TIP3    H149217   2.034   2.119   2.951 -0.0505  0.3995 -1.5214
 9242TIP3    H249218   1.924   2.193   3.022  0.0867 -0.2197 -0.6453
 9243TIP3   OH249219   5.819   2.002  16.959 -0.0479  0.2562  0.0158
 9243TIP3    H149220   5.763   1.937  16.917  0.6768 -0.9451  0.8388
 9243TIP3    H249221   5.762   2.047  17.021 -0.6018  0.5654 -0.6987
 9244TIP3   OH249222   6.631   3.429  14.499 -0.4172 -0.4213  0.0985
 9244TIP3    H149223   6.674   3.344  14.503  0.0656 -0.1887 -0.1421
 9244TIP3    H249224   6.573   3.423  14.423  1.1018  0.1502 -1.1413
 9245TIP3   OH249225   5.866   4.122  12.500 -0.0787  0.0907  0.8389
 9245TIP3    H149226   5.827   4.192  12.448  2.0979  0.2607 -0.7009
 9245TIP3    H249227   5.887   4.164  12.584 -0.9841  0.5954  0.8339
 9246TIP3   OH249228   3.489   4.876  15.011  0.2456  0.0469  0.1052
 9246TIP3    H149229   3.524   4.821  14.941  2.0698 -0.0890  1.0689
 9246TIP3    H249230   3.431   4.938  14.966 -0.6625 -1.6610 -1.1746
 9247TIP3   OH249231   3.692   3.441  17.269  0.0462  0.3863  0.0876
 9247TIP3    H149232   3.743   3.382  17.325 -2.3496 -2.2683 -0.2888
 9247TIP3    H249233   3.602   3.431  17.300 -0.8252  1.8070 -1.8051
 9248TIP3   OH249234   2.185   0.173  14.194 -0.1409  0.6574 -0.5948
 9248TIP3    H149235   2.105   0.222  14.212 -0.6573 -0.6748  0.9919
 9248TIP3    H249236   2.229   0.167  14.279  0.1964 -1.0861 -0.8581
 9249TIP3   OH249237   0.896   1.151   1.660 -0.5880  0.2298 -0.2431
 9249TIP3    H149238   0.945   1.228   1.632  0.0093 -0.6577 -1.8148
 9249TIP3    H249239   0.964   1.088   1.685 -1.0172 -0.1423 -0.0004
 9250TIP3   OH249240   1.503   2.314  17.191  0.3899 -0.2309  0.6350
 9250TIP3    H149241   1.578   2.271  17.231  0.2217 -0.5534  0.6026
 9250TIP3    H249242   1.527   2.322  17.098 -0.4310 -2.1465  0.2200
 9251TIP3   OH249243   3.014   6.630   1.538 -0.4060 -0.2507 -0.2624
 9251TIP3    H149244   2.950   6.572   1.497  0.0611 -2.7000  2.0939
 9251TIP3    H249245   3.087   6.572   1.560  0.1931  1.2465  2.0782
 9252TIP3   OH249246   4.068   1.251   1.928  0.6552  0.2996  0.7566
 9252TIP3    H149247   4.085   1.333   1.884 -0.0519  0.2280  0.3307
 9252TIP3    H249248   4.049   1.189   1.858 -4.0486  0.9694  1.0677
 9253TIP3   OH249249   1.997   6.233   0.107  0.1317 -0.2697  0.0162
 9253TIP3    H149250   1.977   6.213   0.016 -2.4775  0.1357  0.4109
 9253TIP3    H249251   2.075   6.289   0.104  0.5564 -0.9155 -1.8715
 9254TIP3   OH249252   4.700   6.536   6.624 -0.3472  0.1134  0.0456
 9254TIP3    H149253   4.708   6.632   6.626 -0.0351  0.0886  0.0600
 9254TIP3    H249254   4.646   6.518   6.547 -0.0578  0.2797 -0.2004
 9255TIP3   OH249255   5.962   3.704   4.079  0.2241 -0.6682  0.2313
 9255TIP3    H149256   5.931   3.698   4.169 -1.6425 -0.6697 -0.3697
 9255TIP3    H249257   5.899   3.761   4.035  0.0098 -2.1292 -1.4997
 9256TIP3   OH249258   5.016   1.675  16.160  0.3183  0.0188  0.7422
 9256TIP3    H149259   5.015   1.680  16.256 -0.7201 -0.6514  0.7728
 9256TIP3    H249260   4.974   1.756  16.132 -0.4854 -0.3499  0.8779
 9257TIP3   OH249261   3.393   3.125   5.138 -0.3556 -0.2756 -0.2561
 9257TIP3    H149262   3.427   3.035   5.142 -0.9592 -0.5379 -0.9399
 9257TIP3    H249263   3.451   3.174   5.196 -1.1124 -1.4457  1.5850
 9258TIP3   OH249264   2.187   5.830  14.164  0.3244 -0.5309  0.6339
 9258TIP3    H149265   2.128   5.756  14.150 -0.0976 -0.1079  0.1283
 9258TIP3    H249266   2.172   5.887  14.088 -1.2545  1.3376  2.2695
 9259TIP3   OH249267   4.468   5.651  13.660 -0.4732 -0.2127 -0.2330
 9259TIP3    H149268   4.553   5.619  13.628  0.0760 -0.5565  1.4437
 9259TIP3    H249269   4.461   5.615  13.749 -1.9813  0.5468 -0.0082
 9260TIP3   OH249270   0.990   2.424  12.766  0.8008 -0.2178  0.2037
 9260TIP3    H149271   0.908   2.375  12.757  1.5284 -1.3036 -0.7696
 9260TIP3    H249272   0.996   2.444  12.859 -0.9934  0.6637  0.1843
 9261TIP3   OH249273   4.539   3.023   0.810  0.2693  0.2196 -0.0417
 9261TIP3    H149274   4.477   2.980   0.868  1.0810 -2.1648 -0.8146
 9261TIP3    H249275   4.562   3.104   0.855 -1.3892 -0.0904  1.4796
 9262TIP3   OH249276   5.389   1.621   0.349 -0.2090  0.1575  0.1175
 9262TIP3    H149277   5.296   1.600   0.342  0.2388 -2.3084  0.8648
 9262TIP3    H249278   5.413   1.598   0.438  1.4526 -0.7058 -0.5159
 9263TIP3   OH249279   2.788   4.233  14.520  0.8362 -0.3272 -0.1734
 9263TIP3    H149280   2.836   4.305  14.480 -0.8993  1.5437  0.9394
 9263TIP3    H249281   2.855   4.166  14.537  2.8725  1.7393  0.3943
 9264TIP3   OH249282   3.273   6.355  15.483 -0.7708  0.2308  0.0282
 9264TIP3    H149283   3.291   6.445  15.454 -1.4071  1.3139  2.7265
 9264TIP3    H249284   3.308   6.300  15.413  2.0259  2.4921 -0.5145
 9265TIP3   OH249285   6.383   2.917   6.326 -0.2025  0.2080 -0.2154
 9265TIP3    H149286   6.478   2.923   6.338 -0.4163  1.1483  1.4069
 9265TIP3    H249287   6.353   2.866   6.401 -1.1975  2.0297  0.6893
 9266TIP3   OH249288   5.471   6.350   3.259 -0.0875 -0.2226 -0.5000
 9266TIP3    H149289   5.483   6.256   3.253 -0.2295 -0.5818  2.8417
 9266TIP3    H249290   5.376   6.362   3.260 -0.1949 -0.5351  2.6699
 9267TIP3   OH249291   6.429   4.924  16.769  0.0770  0.2920  0.6298
 9267TIP3    H149292   6.443   4.865  16.843  0.4803 -0.2327  0.1366
 9267TIP3    H249293   6.427   5.011  16.809 -0.7868 -0.0605  1.3930
 9268TIP3   OH249294   6.089   1.885  12.617  0.4065  0.0040 -0.5548
 9268TIP3    H149295   6.167   1.844  12.581  3.0456  2.5742  1.6577
 9268TIP3    H249296   6.097   1.977  12.593 -0.9461  0.6683  1.2943
 9269TIP3   OH249297   5.373   2.006  16.900  0.6132  0.0553 -0.5388
 9269TIP3    H149298   5.338   1.931  16.851 -0.4733  0.5440 -0.5357
 9269TIP3    H249299   5.342   2.082  16.851  0.8206  0.5205  0.0523
 9270TIP3   OH249300   6.774   3.487   2.634  0.0788 -0.3401 -0.6974
 9270TIP3    H149301   6.731   3.408   2.602 -0.3337 -0.5799  0.4145
 9270TIP3    H249302   6.810   3.528   2.556 -0.1603 -1.3527 -1.3533
 9271TIP3   OH249303   2.680   5.212   3.121  0.1045 -0.0568  0.5345
 9271TIP3    H149304   2.775   5.223   3.125  0.1942 -0.8270  0.6797
 9271TIP3    H249305   2.650   5.232   3.209  0.2511 -0.7777  0.7598
 9272TIP3   OH249306   1.572   0.912   4.914  0.1507  0.2365 -0.0656
 9272TIP3    H149307   1.489   0.895   4.869 -0.3344  0.7213  0.6393
 9272TIP3    H249308   1.628   0.838   4.889 -0.4386 -0.0126 -0.6693
 9273TIP3   OH249309   2.611   2.375   5.271  0.5437 -0.6410  0.4846
 9273TIP3    H149310   2.531   2.330   5.298 -0.4959  1.8461  1.8356
 9273TIP3    H249311   2.668   2.370   5.347  0.6803 -0.2093  0.4104
 9274TIP3   OH249312   5.870   4.617  11.999 -0.5802 -0.0456 -0.6110
 9274TIP3    H149313   5.948   4.575  11.963  0.0540  1.4589 -1.0753
 9274TIP3    H249314   5.796   4.574  11.955 -0.0773 -1.8817  0.2447
 9275TIP3   OH249315   6.566   4.864  14.609  0.4760  0.0031  0.0333
 9275TIP3    H149316   6.576   4.778  14.569  0.8848 -0.5059  1.1665
 9275TIP3    H249317   6.509   4.849  14.685 -0.1888  0.9086 -0.2731
 9276TIP3   OH249318   4.024   5.225  15.341  0.3865  0.2346 -0.2405
 9276TIP3    H149319   3.964   5.191  15.274 -2.1757  2.2187  0.8540
 9276TIP3    H249320   4.101   5.253  15.292 -0.8044  0.3090 -2.1789
 9277TIP3   OH249321   1.651   5.400   0.497  0.6656 -0.1985 -0.0149
 9277TIP3    H149322   1.659   5.473   0.436 -2.6965  1.1489  0.9182
 9277TIP3    H249323   1.649   5.442   0.583 -0.5715 -1.4282  0.5960
 9278TIP3   OH249324   3.100   3.162   2.140 -0.2092  0.7885  0.0832
 9278TIP3    H149325   3.083   3.230   2.205  0.2132 -0.7301  1.8497
 9278TIP3    H249326   3.094   3.208   2.056 -1.0631  2.7525  1.1480
 9279TIP3   OH249327   4.653   1.819  11.152 -0.0821  0.4578 -0.1691
 9279TIP3    H149328   4.709   1.823  11.075 -0.5088  0.9765 -0.4581
 9279TIP3    H249329   4.694   1.878  11.215  0.1388  0.2102 -0.0758
 9280TIP3   OH249330   3.619   3.989  15.013  0.4015 -0.5130 -1.1891
 9280TIP3    H149331   3.690   4.047  14.984 -1.4486  2.3707 -0.4510
 9280TIP3    H249332   3.648   3.956  15.098  0.3867  1.7758 -0.2254
 9281TIP3   OH249333   6.745   1.894  12.626  0.6739 -0.0438  0.9280
 9281TIP3    H149334   6.659   1.932  12.608  0.4091  0.1659  2.4708
 9281TIP3    H249335   6.731   1.800  12.621  0.6284 -0.0037  0.0925
 9282TIP3   OH249336   2.688   3.532  17.188  0.1198  0.3733 -0.1377
 9282TIP3    H149337   2.593   3.526  17.188  0.0568  0.4896 -2.6103
 9282TIP3    H249338   2.708   3.608  17.134  1.6291 -0.3373 -0.6301
 9283TIP3   OH249339   4.154   4.236   5.859  0.5768 -0.5758 -0.3750
 9283TIP3    H149340   4.061   4.239   5.880  0.3136  1.0124 -1.5059
 9283TIP3    H249341   4.177   4.328   5.843  2.7932 -0.6828  1.6453
 9284TIP3   OH249342   0.828   0.339   1.940 -0.2560  0.0546 -0.6437
 9284TIP3    H149343   0.792   0.286   2.011  1.9369 -1.4588 -0.5764
 9284TIP3    H249344   0.904   0.290   1.910  0.8596  2.3599 -1.7634
 9285TIP3   OH249345   0.308   2.821   1.616  0.2079  0.2306  0.3132
 9285TIP3    H149346   0.226   2.868   1.628  0.4985  0.9148 -0.3010
 9285TIP3    H249347   0.372   2.889   1.594  1.1676 -0.1556  1.7621
 9286TIP3   OH249348   1.857   1.090  14.025 -0.0365 -0.1159  0.5147
 9286TIP3    H149349   1.908   1.132  14.094  1.3477  1.3608 -1.3433
 9286TIP3    H249350   1.895   1.121  13.943 -0.5321 -3.0767 -1.0009
 9287TIP3   OH249351   4.023   0.864   2.655  0.3896 -0.1650 -0.1196
 9287TIP3    H149352   4.099   0.841   2.602 -1.2701 -3.7691 -1.2241
 9287TIP3    H249353   4.037   0.819   2.738 -0.2866 -0.5144 -0.1822
 9288TIP3   OH249354   2.043   4.984  14.568  0.0714 -0.3040  0.1984
 9288TIP3    H149355   2.084   5.054  14.517  0.0672 -1.4112 -1.4105
 9288TIP3    H249356   2.116   4.927  14.592 -0.2064 -1.1252 -0.8051
 9289TIP3   OH249357   3.093   1.769   1.299 -0.0894  0.7341 -0.1665
 9289TIP3    H149358   3.142   1.792   1.378  0.2718  1.1084 -0.4911
 9289TIP3    H249359   3.010   1.733   1.331  0.0112  0.9764  0.3758
 9290TIP3   OH249360   2.429   3.439   4.447 -0.3416 -0.2795 -0.5079
 9290TIP3    H149361   2.504   3.442   4.506 -0.3942  0.3586 -0.4657
 9290TIP3    H249362   2.464   3.402   4.365 -0.1104 -0.5029 -0.3096
 9291TIP3   OH249363   1.470   4.710   3.801  0.1955  0.5432 -0.6390
 9291TIP3    H149364   1.403   4.667   3.854  0.3159 -0.0366 -0.9508
 9291TIP3    H249365   1.547   4.711   3.858  0.7011 -1.2287 -1.2205
 9292TIP3   OH249366   5.044   1.350  12.299  0.7823  0.2595 -0.3090
 9292TIP3    H149367   5.005   1.429  12.262 -3.3040 -0.4581  1.8828
 9292TIP3    H249368   5.077   1.302  12.223 -2.8622  0.9804 -2.5774
 9293TIP3   OH249369   3.135   0.646  16.409 -0.3286  0.0008 -0.5921
 9293TIP3    H149370   3.098   0.564  16.441 -0.7842  0.5351  0.2875
 9293TIP3    H249371   3.229   0.629  16.400 -0.5069 -0.7843 -0.9772
 9294TIP3   OH249372   6.769   2.756   5.406 -0.0792 -0.1147 -0.6002
 9294TIP3    H149373   6.689   2.774   5.357 -0.0984 -1.1392 -0.9686
 9294TIP3    H249374   6.739   2.737   5.495 -0.1024  1.0165 -0.3472
 9295TIP3   OH249375   2.013   2.864   3.809  0.9145  0.1932  0.7591
 9295TIP3    H149376   1.955   2.788   3.801  0.1046  0.7178  1.4217
 9295TIP3    H249377   2.086   2.845   3.751 -0.0099 -0.4037 -0.2409
 9296TIP3   OH249378   2.774   2.039  12.202  0.7542  0.0902  0.3052
 9296TIP3    H149379   2.828   2.102  12.249  1.6249  0.3773 -1.0615
 9296TIP3    H249380   2.800   1.954  12.239  0.5956  0.3876  1.1358
 9297TIP3   OH249381   2.543   0.017  16.008 -0.4414  0.8390 -0.2132
 9297TIP3    H149382   2.577   0.092  16.058 -0.1877  0.9764 -0.5828
 9297TIP3    H249383   2.449   0.033  16.000 -0.8110 -0.0816  1.7491
 9298TIP3   OH249384   2.187   2.472  14.963 -0.1274  0.4005  0.1328
 9298TIP3    H149385   2.122   2.500  15.027  0.2929 -0.8507  1.1608
 9298TIP3    H249386   2.267   2.516  14.989 -0.2429  0.9015 -0.3333
 9299TIP3   OH249387   3.845   0.497  15.303  0.3973  0.0707  0.3074
 9299TIP3    H149388   3.879   0.439  15.234  1.0595 -0.7709  1.3185
 9299TIP3    H249389   3.861   0.585  15.269  1.2915 -0.3202 -0.3511
 9300TIP3   OH249390   4.908   6.352  11.328  0.0993  1.1775 -0.8910
 9300TIP3    H149391   4.881   6.371  11.418 -0.7292 -1.0677 -0.5976
 9300TIP3    H249392   4.860   6.416  11.274 -0.6954  1.4752  0.1318
 9301TIP3   OH249393   4.845   4.423   4.903 -0.1124  0.0332 -0.5410
 9301TIP3    H149394   4.854   4.349   4.963  0.0647 -0.9037 -1.6755
 9301TIP3    H249395   4.934   4.437   4.870 -0.4397 -0.4903 -1.7244
 9302TIP3   OH249396   2.248   6.149  12.121  0.0324 -0.2424  0.0087
 9302TIP3    H149397   2.235   6.234  12.079 -0.5207 -1.0801 -1.6120
 9302TIP3    H249398   2.299   6.168  12.199 -0.5224  1.6390 -0.0426
 9303TIP3   OH249399   2.038   0.657  11.782  0.1915  0.8055  0.0433
 9303TIP3    H149400   2.049   0.615  11.867 -1.4537 -0.4025 -0.2791
 9303TIP3    H249401   2.118   0.636  11.734  1.1383  1.4956  1.2531
 9304TIP3   OH249402   3.539   6.107   3.563 -0.4876 -0.2609 -0.1120
 9304TIP3    H149403   3.518   6.181   3.620 -1.0564  1.1318 -2.0340
 9304TIP3    H249404   3.455   6.064   3.547 -0.6293  0.3980 -1.2424
 9305TIP3   OH249405   1.191   1.757   1.474 -0.3207 -0.3983 -0.2477
 9305TIP3    H149406   1.183   1.815   1.550 -0.3187 -0.7524  0.0233
 9305TIP3    H249407   1.255   1.800   1.418  0.3062 -0.5618  0.3394
 9306TIP3   OH249408   4.428   5.382  10.149  0.2114 -0.7650 -0.2269
 9306TIP3    H149409   4.515   5.411  10.122 -0.1729  0.0896 -0.5541
 9306TIP3    H249410   4.368   5.449  10.116 -0.4763 -0.7875  0.9138
 9307TIP3   OH249411   0.006   3.327   3.443 -0.3077  0.5631 -0.1846
 9307TIP3    H149412   0.006   3.293   3.353 -2.1310  1.0572 -0.4061
 9307TIP3    H249413  -0.082   3.361   3.456  0.0806  0.9838  1.6327
 9308TIP3   OH249414   1.300   1.215   0.039 -0.4382  0.3836 -0.2072
 9308TIP3    H149415   1.233   1.231  -0.027 -1.9254  1.3121  1.4478
 9308TIP3    H249416   1.383   1.222  -0.009 -1.4014  2.4366 -1.7187
 9309TIP3   OH249417   5.815   1.672  12.038 -0.4775 -0.2828 -0.3792
 9309TIP3    H149418   5.732   1.710  12.068 -0.7105  0.2220 -1.6050
 9309TIP3    H249419   5.848   1.734  11.974  2.3225  0.9918  2.0608
 9310TIP3   OH249420   1.660   2.975   4.572  0.2292 -0.0495 -0.6631
 9310TIP3    H149421   1.732   2.988   4.510 -0.0706  0.9299 -0.8255
 9310TIP3    H249422   1.589   2.940   4.519  0.0254  0.6354 -0.8532
 9311TIP3   OH249423   6.437   2.413   0.634  0.0508 -0.3527  0.2501
 9311TIP3    H149424   6.418   2.448   0.547  0.6910  1.7191  0.8861
 9311TIP3    H249425   6.351   2.404   0.675 -0.1444  0.2545 -0.0166
 9312TIP3   OH249426   6.275   1.426   0.011 -0.0102  0.5771 -0.3601
 9312TIP3    H149427   6.194   1.455  -0.031 -0.1923 -0.3339 -0.6731
 9312TIP3    H249428   6.246   1.359   0.073  0.4742  0.4840 -0.2357
 9313TIP3   OH249429   2.447   1.378   4.045 -0.1507  0.0545  0.5919
 9313TIP3    H149430   2.460   1.347   3.956  0.2592 -0.6083  0.8749
 9313TIP3    H249431   2.369   1.433   4.040 -0.6556 -0.6861 -0.0082
 9314TIP3   OH249432   6.027   2.837   0.299 -0.1801 -0.2311  0.0697
 9314TIP3    H149433   6.021   2.891   0.220  1.0111  0.3151  0.3337
 9314TIP3    H249434   5.940   2.796   0.306 -1.3253  2.0698  0.1719
 9315TIP3   OH249435   5.621   2.300   2.299 -0.0755 -0.4940  0.5793
 9315TIP3    H149436   5.651   2.209   2.296  1.2187 -0.0739 -0.5091
 9315TIP3    H249437   5.526   2.295   2.287 -0.0495 -1.7019  0.7665
 9316TIP3   OH249438   0.958   1.902  16.553 -0.1637  0.1444 -0.2818
 9316TIP3    H149439   0.985   1.838  16.487  2.0234  0.1580  0.5084
 9316TIP3    H249440   0.982   1.861  16.636  1.8790  2.1938  0.2323
 9317TIP3   OH249441   2.628   3.829   2.026  0.2583  0.3303 -0.3540
 9317TIP3    H149442   2.561   3.805   2.090  0.3540  0.3303 -0.2520
 9317TIP3    H249443   2.702   3.858   2.079  1.0458 -1.4667 -0.3683
 9318TIP3   OH249444   6.286   5.261  10.558 -0.2940  0.1544 -0.3215
 9318TIP3    H149445   6.332   5.297  10.482 -0.6509  0.1100 -0.5593
 9318TIP3    H249446   6.352   5.260  10.628  0.1354 -0.1424 -0.7279
 9319TIP3   OH249447   2.752   0.855  11.043  0.4350  0.4158  0.6153
 9319TIP3    H149448   2.835   0.810  11.027 -0.1661 -0.4121 -0.3097
 9319TIP3    H249449   2.759   0.887  11.133  3.1150  3.4031 -0.4974
 9320TIP3   OH249450   4.223   3.943   2.283  0.0485 -0.0076 -0.0297
 9320TIP3    H149451   4.129   3.956   2.296  0.0805 -0.6164  0.9164
 9320TIP3    H249452   4.248   4.011   2.220 -1.3334 -0.9037 -1.6322
 9321TIP3   OH249453   3.595   6.523  12.808  0.2499  0.2519  0.0159
 9321TIP3    H149454   3.594   6.479  12.893  0.7044 -1.4450 -0.8070
 9321TIP3    H249455   3.523   6.482  12.760 -0.6027  1.8452 -0.1388
 9322TIP3   OH249456   3.934   0.120   4.847 -0.1048  0.3698  0.3781
 9322TIP3    H149457   3.910   0.086   4.933  1.0118 -1.6122 -0.0486
 9322TIP3    H249458   3.932   0.044   4.789 -0.3886  1.5810 -1.2781
 9323TIP3   OH249459   3.469   2.419  13.943  0.2155  0.0490  0.2621
 9323TIP3    H149460   3.382   2.439  13.910 -0.4526 -1.8945  0.7137
 9323TIP3    H249461   3.513   2.376  13.870 -0.1843 -1.4230  0.8453
 9324TIP3   OH249462   2.646   3.989  16.858  0.5318 -0.3234  0.2756
 9324TIP3    H149463   2.644   3.976  16.763  0.5313  1.1286  0.0514
 9324TIP3    H249464   2.726   4.041  16.873  0.9065 -1.1149  1.1628
 9325TIP3   OH249465   4.432   6.086   0.358  0.4148  0.0054 -0.2876
 9325TIP3    H149466   4.493   6.128   0.297  0.2152 -0.4398 -0.8031
 9325TIP3    H249467   4.350   6.079   0.309  0.2698 -0.4205  0.0122
 9326TIP3   OH249468   0.834   0.641   3.777 -0.2916  0.3344  0.1739
 9326TIP3    H149469   0.851   0.714   3.718 -2.0705 -0.2345 -1.1379
 9326TIP3    H249470   0.775   0.677   3.843  0.8999  0.7115  1.0647
 9327TIP3   OH249471   4.825   4.487  13.215 -0.0827  0.3359 -0.0407
 9327TIP3    H149472   4.802   4.464  13.305  1.2746 -0.4317  0.1499
 9327TIP3    H249473   4.898   4.428  13.194  2.8008  3.5902 -0.0011
 9328TIP3   OH249474   2.378   2.251  16.727 -0.1702 -0.0016  0.3727
 9328TIP3    H149475   2.458   2.259  16.779  0.2163 -0.0371 -0.2037
 9328TIP3    H249476   2.329   2.332  16.745  1.1165  1.1770 -1.0987
 9329TIP3   OH249477   5.590   3.570   3.880  0.0773 -0.1054  0.2684
 9329TIP3    H149478   5.577   3.527   3.964 -0.2265 -2.3904 -0.8660
 9329TIP3    H249479   5.512   3.547   3.829  0.6807  0.4305 -0.9495
 9330TIP3   OH249480   4.062   6.798   4.284  0.4086 -0.4987  0.2332
 9330TIP3    H149481   4.111   6.715   4.281 -1.3347 -1.5604 -0.6298
 9330TIP3    H249482   4.001   6.793   4.210 -0.7863  0.8736  1.0640
 9331TIP3   OH249483   1.413   3.799   2.968 -0.5778 -0.3503 -0.3338
 9331TIP3    H149484   1.418   3.756   2.883 -0.6968 -1.9936  0.4579
 9331TIP3    H249485   1.437   3.731   3.031  0.8175  1.1746  0.8710
 9332TIP3   OH249486   2.150   0.543   2.055 -0.1159 -0.1372  0.7921
 9332TIP3    H149487   2.091   0.472   2.033 -0.8559  0.0558  2.0271
 9332TIP3    H249488   2.235   0.516   2.021 -1.0757  0.0691 -2.0069
 9333TIP3   OH249489   2.919   6.338   1.474 -0.5616  0.1425 -0.2072
 9333TIP3    H149490   2.909   6.284   1.395  0.7944  0.3784 -0.5727
 9333TIP3    H249491   3.011   6.325   1.499 -0.4913  1.4967  0.2817
 9334TIP3   OH249492   2.815   3.262  16.512 -0.4707 -0.0311  0.3837
 9334TIP3    H149493   2.780   3.183  16.473  3.0466 -0.8197 -1.6164
 9334TIP3    H249494   2.774   3.267  16.598 -3.5912 -1.8802 -0.8422
 9335TIP3   OH249495   5.341   1.459  16.045  0.0432 -0.2664  0.1240
 9335TIP3    H149496   5.427   1.429  16.016  0.4287 -1.1632  2.0578
 9335TIP3    H249497   5.279   1.414  15.986  0.8564  0.0594 -1.0101
 9336TIP3   OH249498   2.610   5.969   3.088 -0.1718 -0.0513 -0.0581
 9336TIP3    H149499   2.609   6.035   3.018 -1.8751 -1.7296 -1.7265
 9336TIP3    H249500   2.697   5.930   3.083  1.0268  2.2366  1.2336
 9337TIP3   OH249501   1.870   6.567   4.692 -0.2392  0.2088  0.1276
 9337TIP3    H149502   1.844   6.649   4.734  0.6527  1.0582 -0.9374
 9337TIP3    H249503   1.823   6.500   4.741 -0.7078  1.3150  1.2600
 9338TIP3   OH249504   3.326   3.337  10.255 -0.4483  0.0458  0.0239
 9338TIP3    H149505   3.279   3.408  10.211 -1.2410 -1.1512 -1.1233
 9338TIP3    H249506   3.393   3.310  10.193 -1.0796 -1.1537 -0.1467
 9339TIP3   OH249507   4.979   4.294   2.813  0.1079 -0.4876 -0.4318
 9339TIP3    H149508   4.916   4.251   2.756 -1.9607  0.4160  1.0272
 9339TIP3    H249509   5.021   4.360   2.758 -0.3411 -0.9917 -1.3984
 9340TIP3   OH249510   1.967   5.188  13.519  0.2601 -0.1921 -0.5870
 9340TIP3    H149511   1.900   5.125  13.545 -0.6127  0.7351 -0.4932
 9340TIP3    H249512   1.986   5.237  13.598  0.7197 -0.1512 -0.7226
 9341TIP3   OH249513   2.090   3.167   2.685 -0.0320  0.4318 -0.0698
 9341TIP3    H149514   2.042   3.092   2.650 -0.3809  1.4296 -1.8177
 9341TIP3    H249515   2.034   3.200   2.755 -0.2506 -0.4468  0.1874
 9342TIP3   OH249516   1.894   4.769  13.911 -0.6709 -0.4010  0.1521
 9342TIP3    H149517   1.929   4.760  14.000  0.5728 -3.2927 -0.4867
 9342TIP3    H249518   1.834   4.843  13.916  1.7413  1.6390  2.5938
 9343TIP3   OH249519   0.849   6.454   3.796  0.0535  0.4490  0.1810
 9343TIP3    H149520   0.812   6.508   3.727 -3.0524 -1.7252 -0.0872
 9343TIP3    H249521   0.908   6.394   3.751 -0.7246  0.0993 -0.4031
 9344TIP3   OH249522   5.008   3.008   0.910 -0.3646 -1.1229  0.3948
 9344TIP3    H149523   5.096   2.997   0.946 -0.7055 -0.6544  1.4111
 9344TIP3    H249524   5.013   3.088   0.857 -0.4529 -0.4095  1.4243
 9345TIP3   OH249525   3.132   2.974   4.831  0.4555  0.1918  0.8226
 9345TIP3    H149526   3.088   3.053   4.799 -0.3892 -0.0617  1.3541
 9345TIP3    H249527   3.119   2.975   4.925 -1.8791 -1.9240  0.6183
 9346TIP3   OH249528   6.345   5.163  16.906  0.2786  0.3015 -0.3065
 9346TIP3    H149529   6.405   5.217  16.854  1.2808 -0.0786  0.4162
 9346TIP3    H249530   6.377   5.171  16.996  0.8084 -1.8902 -0.2352
 9347TIP3   OH249531   0.891   5.379   0.697  0.0862  0.0734  0.1868
 9347TIP3    H149532   0.886   5.339   0.610  0.0936  0.8201 -0.1732
 9347TIP3    H249533   0.878   5.473   0.680  1.6483  0.4402  0.7786
 9348TIP3   OH249534   3.572   2.590   2.123  0.7274 -0.3912  0.4078
 9348TIP3    H149535   3.537   2.633   2.201  0.2362  1.6144 -0.8367
 9348TIP3    H249536   3.546   2.647   2.051  2.6955 -1.2226 -1.0426
 9349TIP3   OH249537   0.271   0.373  14.531  0.1429  0.7706  0.3768
 9349TIP3    H149538   0.283   0.382  14.626  0.8395 -0.4461  0.4230
 9349TIP3    H249539   0.193   0.318  14.522  1.3257 -0.9428  0.3074
 9350TIP3   OH249540   0.502   1.526   0.490 -0.3904 -0.6223 -0.3277
 9350TIP3    H149541   0.423   1.527   0.436 -1.6009  0.4774  1.3704
 9350TIP3    H249542   0.527   1.619   0.497 -0.1026 -0.7666  0.7353
 9351TIP3   OH249543   5.912   3.930   0.233 -0.0403 -0.2489 -0.5776
 9351TIP3    H149544   5.855   3.975   0.170  0.8926 -0.7034 -1.7716
 9351TIP3    H249545   5.868   3.846   0.249 -1.2298  0.5903  0.8376
 9352TIP3   OH249546   2.428   0.547  14.350  0.2394 -0.2928 -0.3131
 9352TIP3    H149547   2.412   0.565  14.443  2.7139 -1.2499  0.3937
 9352TIP3    H249548   2.486   0.618  14.322  1.1721 -1.1111 -0.5144
 9353TIP3   OH249549   5.758   5.184   0.412  0.1181  0.0910  0.0731
 9353TIP3    H149550   5.751   5.271   0.450  1.8081  0.0286  0.6194
 9353TIP3    H249551   5.779   5.127   0.486 -1.9567 -0.9917 -0.1019
 9354TIP3   OH249552   4.208   3.900   0.459 -0.3328  0.1129  0.2764
 9354TIP3    H149553   4.230   3.983   0.500  2.7541  0.2066 -1.2826
 9354TIP3    H249554   4.238   3.834   0.522 -0.7070  0.1740  0.5252
 9355TIP3   OH249555   0.800   4.345  12.265 -0.1207 -0.6200 -0.4429
 9355TIP3    H149556   0.863   4.401  12.219 -1.1734  0.5167 -0.5437
 9355TIP3    H249557   0.850   4.309  12.338  0.4382  0.9886  0.0226
 9356TIP3   OH249558   1.903   1.832   3.083 -0.1492 -0.1429  0.0006
 9356TIP3    H149559   1.895   1.825   3.178 -0.1829 -1.1834 -0.0696
 9356TIP3    H249560   1.928   1.923   3.068  0.6857 -0.1795  1.0585
 9357TIP3   OH249561   3.318   5.449   4.580 -0.0713 -0.6257  0.0886
 9357TIP3    H149562   3.342   5.378   4.521  1.5208 -0.3154  0.3156
 9357TIP3    H249563   3.354   5.528   4.539  0.5687 -0.3255  1.1686
 9358TIP3   OH249564   1.521   0.011  16.277 -0.1077 -0.1641 -0.0316
 9358TIP3    H149565   1.505  -0.076  16.242 -0.7798 -0.0895  0.0612
 9358TIP3    H249566   1.450   0.065  16.240 -0.2834  0.1170  0.6883
 9359TIP3   OH249567   4.286   5.961   2.280  0.1160  0.0547 -0.2011
 9359TIP3    H149568   4.361   5.916   2.319  1.2074  1.2630 -0.8266
 9359TIP3    H249569   4.319   6.049   2.260 -1.4102  0.5369 -0.6945
 9360TIP3   OH249570   0.152   3.458   5.516  0.1012 -0.0765  0.1154
 9360TIP3    H149571   0.068   3.496   5.543 -0.2281 -0.8200  0.1561
 9360TIP3    H249572   0.153   3.468   5.421 -0.5199 -1.0091 -0.0056
 9361TIP3   OH249573   5.450   0.178   3.952 -0.0489 -0.5385 -0.3932
 9361TIP3    H149574   5.363   0.192   3.990  0.2807  0.8885 -0.1106
 9361TIP3    H249575   5.505   0.157   4.028  0.2859  0.7419 -0.2634
 9362TIP3   OH249576   3.184   2.193  13.382  0.1689 -0.2050 -0.0107
 9362TIP3    H149577   3.120   2.131  13.347  0.9822 -0.5525 -0.9237
 9362TIP3    H249578   3.234   2.142  13.446 -1.2518  0.4032  1.6968
 9363TIP3   OH249579   3.768   1.627  11.932 -0.2987 -0.3474  0.1102
 9363TIP3    H149580   3.759   1.641  12.027  0.4786 -0.6021  0.2296
 9363TIP3    H249581   3.705   1.687  11.893  0.4773  0.8939  0.7293
 9364TIP3   OH249582   5.812   0.521   5.269 -0.3556 -0.4450 -0.2379
 9364TIP3    H149583   5.744   0.588   5.274 -0.4001 -0.4483 -0.7238
 9364TIP3    H249584   5.765   0.439   5.254 -0.2628 -0.4940 -0.2633
 9365TIP3   OH249585   3.348   5.467  17.158  0.0156  0.1792  0.0632
 9365TIP3    H149586   3.368   5.402  17.225  2.8451 -2.6654 -3.1651
 9365TIP3    H249587   3.259   5.445  17.129 -1.1627  1.3122  2.5163
 9366TIP3   OH249588   2.931   1.893   4.803  0.1733  0.2770  0.0495
 9366TIP3    H149589   3.005   1.891   4.742  0.3062  1.2208  0.1635
 9366TIP3    H249590   2.860   1.850   4.756  0.2157  1.1698 -0.8617
 9367TIP3   OH249591   1.071   5.183   3.794  0.4888 -0.2227  0.3341
 9367TIP3    H149592   1.141   5.141   3.745  0.0079  0.4160 -0.9552
 9367TIP3    H249593   1.087   5.277   3.784 -0.5897 -0.0666 -0.0506
 9368TIP3   OH249594   5.784   2.952  15.870  0.6484  0.1906  0.0716
 9368TIP3    H149595   5.824   2.867  15.890  0.9933  0.5498  0.9225
 9368TIP3    H249596   5.692   2.931  15.854  0.5805 -0.2603  0.9821
 9369TIP3   OH249597   1.625   2.512  12.959  0.3328  0.0332  0.4530
 9369TIP3    H149598   1.598   2.465  12.880  1.1950  0.0890  0.1094
 9369TIP3    H249599   1.604   2.454  13.031 -1.5779  0.4701  0.2910
 9370TIP3   OH249600   3.284   2.973   4.421 -0.0889  0.4990  0.8007
 9370TIP3    H149601   3.266   2.909   4.353 -0.7437 -0.6047  1.9859
 9370TIP3    H249602   3.241   3.053   4.391  0.2125  0.2248 -0.3952
 9371TIP3   OH249603   5.048   1.616  14.926  0.4369  0.3774  0.0131
 9371TIP3    H149604   5.082   1.664  15.001 -0.1728  2.0242 -0.7279
 9371TIP3    H249605   5.125   1.578  14.884  0.9723  1.0070  0.4200
 9372TIP3   OH249606   1.579   3.363   5.227 -0.5308  0.0784 -0.3278
 9372TIP3    H149607   1.634   3.332   5.156 -0.1582 -0.2962  0.1144
 9372TIP3    H249608   1.490   3.364   5.191 -0.4722 -0.9692 -0.5306
 9373TIP3   OH249609   5.281   4.463  13.499  0.4859 -0.1792 -0.0128
 9373TIP3    H149610   5.337   4.512  13.438 -0.4064  3.4964  1.8156
 9373TIP3    H249611   5.311   4.491  13.585 -1.3699 -1.5017  1.1241
 9374TIP3   OH249612   4.411   0.317   3.858  0.0541 -0.5677  0.2457
 9374TIP3    H149613   4.327   0.314   3.812 -0.4946 -0.8723  1.2278
 9374TIP3    H249614   4.388   0.342   3.948  0.8069 -2.2086  0.9516
 9375TIP3   OH249615   6.207   2.516   4.783 -0.2234 -0.1781 -0.1073
 9375TIP3    H149616   6.285   2.463   4.798  0.6446  0.9980 -0.2802
 9375TIP3    H249617   6.173   2.486   4.699 -0.5234 -1.3630  0.4309
 9376TIP3   OH249618   4.130   5.459   4.673  0.3505  0.4025  0.7225
 9376TIP3    H149619   4.207   5.486   4.623  1.3942 -0.7505  1.6469
 9376TIP3    H249620   4.156   5.467   4.764 -0.1735 -1.1833  1.0456
 9377TIP3   OH249621   2.127   3.456  11.234 -0.3248 -0.1670  0.5645
 9377TIP3    H149622   2.034   3.471  11.215 -0.0651 -0.1290 -0.7730
 9377TIP3    H249623   2.138   3.362  11.227 -0.0647 -0.0835 -0.3613
 9378TIP3   OH249624   6.545   0.011   4.327  0.2894  0.0334  0.3304
 9378TIP3    H149625   6.455  -0.002   4.297  1.1842 -1.7511 -1.8930
 9378TIP3    H249626   6.565   0.101   4.301 -0.6435  0.2341  0.2492
 9379TIP3   OH249627   0.672   4.090  11.799  0.2136 -0.5343 -0.1918
 9379TIP3    H149628   0.683   4.184  11.785  0.3022 -0.5533 -0.2483
 9379TIP3    H249629   0.605   4.064  11.736  1.0370 -0.7315 -1.0081
 9380TIP3   OH249630   0.949   5.528   5.620  0.3043  0.1331  0.2957
 9380TIP3    H149631   0.908   5.547   5.536 -0.3967 -1.0137  0.3515
 9380TIP3    H249632   0.938   5.608   5.671 -0.0355  0.5375 -0.4012
 9381TIP3   OH249633   2.625   0.863   5.350  0.3193  0.1802 -0.1716
 9381TIP3    H149634   2.633   0.919   5.273 -0.6441 -0.8479 -1.0594
 9381TIP3    H249635   2.555   0.903   5.401  0.1107  0.1781 -0.4538
 9382TIP3   OH249636   6.315   2.368   1.924  0.4642  0.7308 -0.4863
 9382TIP3    H149637   6.396   2.349   1.877  0.0580 -2.1891 -0.2530
 9382TIP3    H249638   6.341   2.370   2.016  0.3003 -0.3398 -0.4013
 9383TIP3   OH249639   2.533   1.487   4.708 -0.4897  0.8726  0.5964
 9383TIP3    H149640   2.472   1.476   4.635 -0.7915 -0.3080  1.0136
 9383TIP3    H249641   2.574   1.572   4.691 -0.0843  0.3520 -1.2942
 9384TIP3   OH249642   5.469   4.522  17.262 -0.3557  0.4205 -0.1502
 9384TIP3    H149643   5.418   4.599  17.287 -1.2784 -0.0386 -0.5834
 9384TIP3    H249644   5.404   4.458  17.234  0.3231 -0.9187  1.2200
 9385TIP3   OH249645   6.720   2.953   3.289 -0.0798 -0.1774 -0.0957
 9385TIP3    H149646   6.711   2.973   3.382  1.3374 -1.0188  0.2617
 9385TIP3    H249647   6.788   3.013   3.258 -0.4011 -0.0414 -0.5404
 9386TIP3   OH249648   3.147   0.460  15.750 -0.2566  0.5195 -0.3846
 9386TIP3    H149649   3.124   0.373  15.785 -2.1700  0.1004 -2.4697
 9386TIP3    H249650   3.071   0.514  15.770 -1.2165  0.3912 -3.2432
 9387TIP3   OH249651   3.459   6.078  12.088 -0.6607 -0.2876  0.2446
 9387TIP3    H149652   3.512   6.152  12.118  0.5704 -1.8646  2.1722
 9387TIP3    H249653   3.508   6.042  12.014  0.7024 -1.3322  1.5970
 9388TIP3   OH249654   1.235   4.501  16.387  0.2470 -0.4076 -0.1125
 9388TIP3    H149655   1.286   4.561  16.332  1.7937 -0.0337  1.6343
 9388TIP3    H249656   1.196   4.557  16.454  0.6565 -1.1724  0.7904
 9389TIP3   OH249657   1.516   6.649   4.971  0.0383 -0.4708  0.5774
 9389TIP3    H149658   1.523   6.615   4.881 -1.1852 -1.4019  0.8085
 9389TIP3    H249659   1.574   6.724   4.972 -0.1112 -0.2836 -1.0855
 9390TIP3   OH249660   3.808   1.359  14.421 -0.3699  0.1501  0.1028
 9390TIP3    H149661   3.829   1.343  14.513 -1.3315 -0.5214  0.2216
 9390TIP3    H249662   3.875   1.420  14.391 -0.1146  0.4663  1.2777
 9391TIP3   OH249663   3.115   1.316  14.920 -0.4508  0.5607 -0.0990
 9391TIP3    H149664   3.052   1.259  14.963 -0.6204  0.3002 -0.6779
 9391TIP3    H249665   3.098   1.403  14.955  0.2361  0.1649  1.2748
 9392TIP3   OH249666   2.376   6.629  10.569  0.3907  0.1427  0.2894
 9392TIP3    H149667   2.373   6.725  10.575  0.5625  0.2409 -0.9698
 9392TIP3    H249668   2.467   6.609  10.549  0.2121 -0.2390 -0.1452
 9393TIP3   OH249669   3.466   0.303  15.583 -0.4755  0.1038 -1.0961
 9393TIP3    H149670   3.402   0.314  15.513  0.4850  0.4011 -1.9468
 9393TIP3    H249671   3.551   0.297  15.538  0.4547  2.7313  0.1257
 9394TIP3   OH249672   0.354   0.354   4.516  0.0532  0.2034 -0.4870
 9394TIP3    H149673   0.355   0.299   4.594 -0.2211 -2.6056 -2.3482
 9394TIP3    H249674   0.445   0.352   4.484  0.1216  1.1759 -0.3929
 9395TIP3   OH249675   1.287   2.103   4.402  0.4030  0.1237  0.2918
 9395TIP3    H149676   1.303   2.197   4.403  1.1253  0.2015  4.7458
 9395TIP3    H249677   1.213   2.091   4.462  0.3931 -2.1730 -0.0798
 9396TIP3   OH249678   4.263   3.618  10.875 -0.8550  0.3317  0.3949
 9396TIP3    H149679   4.352   3.641  10.846 -0.6173 -0.6782  0.2588
 9396TIP3    H249680   4.248   3.671  10.953 -0.7947  1.7630 -0.5384
 9397TIP3   OH249681   6.235   1.390   4.304  0.2272 -0.6616 -0.0688
 9397TIP3    H149682   6.223   1.296   4.312 -0.2275 -0.5272  0.9625
 9397TIP3    H249683   6.236   1.406   4.210 -3.1157 -1.2828 -0.3151
 9398TIP3   OH249684   5.388   4.200   2.399 -0.3539 -0.6579 -0.1309
 9398TIP3    H149685   5.421   4.249   2.475  0.8096 -2.6528  0.7258
 9398TIP3    H249686   5.295   4.187   2.417 -0.3016 -0.2367  0.4542
 9399TIP3   OH249687   0.912   1.856  12.635 -0.0854  0.1904  0.4654
 9399TIP3    H149688   0.943   1.837  12.546 -2.9928  2.7738 -1.3214
 9399TIP3    H249689   0.925   1.775  12.683  0.5082 -1.7397 -2.6720
 9400TIP3   OH249690   5.595   4.774  16.461  0.3915  0.0731  0.0505
 9400TIP3    H149691   5.522   4.834  16.440  0.4326 -0.1868 -0.8741
 9400TIP3    H249692   5.560   4.719  16.531  0.7469  1.9163  1.7841
 9401TIP3   OH249693   2.937   1.569   0.342  0.1435 -0.3087  0.0267
 9401TIP3    H149694   3.005   1.635   0.352 -0.2387 -0.0054  0.6671
 9401TIP3    H249695   2.855   1.614   0.365 -0.2050 -0.8134 -0.2044
 9402TIP3   OH249696   2.292   1.376   2.380 -0.1466 -0.4450  0.0584
 9402TIP3    H149697   2.256   1.323   2.450  0.9761 -0.9721  0.2579
 9402TIP3    H249698   2.314   1.313   2.311 -2.6846  0.2003 -1.4755
 9403TIP3   OH249699   6.512   0.632  15.472 -0.6063 -0.3014 -0.7121
 9403TIP3    H149700   6.551   0.619  15.559 -1.6618 -3.4815 -0.5708
 9403TIP3    H249701   6.499   0.543  15.439 -2.6777  0.7498 -3.0171
 9404TIP3   OH249702   0.636   1.050   2.981  0.6519 -0.6592 -0.3023
 9404TIP3    H149703   0.716   1.082   3.023  0.4461 -0.8893  0.2726
 9404TIP3    H249704   0.575   1.123   2.988  0.1669 -1.1615  1.0512
 9405TIP3   OH249705   3.245   0.657   6.457  0.0883  0.3570 -0.2154
 9405TIP3    H149706   3.227   0.706   6.376  1.9866 -0.8298 -1.4456
 9405TIP3    H249707   3.339   0.638   6.453  0.1705 -0.0181  2.1473
 9406TIP3   OH249708   0.865   4.951  15.061 -0.2551 -0.4142  0.7401
 9406TIP3    H149709   0.837   4.943  14.970 -0.4410 -1.1370  0.8508
 9406TIP3    H249710   0.911   5.034  15.065 -0.5234 -0.2257  0.0562
 9407TIP3   OH249711   4.199   3.613   2.924 -0.1625 -0.0241  0.2480
 9407TIP3    H149712   4.224   3.660   3.004  0.2072  1.6647 -0.8314
 9407TIP3    H249713   4.113   3.577   2.944  1.6188 -3.3919  2.9606
 9408TIP3   OH249714   4.029   2.395   2.481 -0.4490 -0.4488  0.4362
 9408TIP3    H149715   3.999   2.394   2.390 -2.1628  1.3688  0.9377
 9408TIP3    H249716   4.007   2.308   2.514  0.1719 -1.1280 -0.8456
 9409TIP3   OH249717   5.496   5.170   0.222 -0.6789  0.0714  0.4846
 9409TIP3    H149718   5.513   5.111   0.294  0.7908  0.8214  0.7866
 9409TIP3    H249719   5.450   5.244   0.262 -0.5488  0.1346  0.5189
 9410TIP3   OH249720   2.294   0.386   4.260  0.5061  0.1397 -0.0659
 9410TIP3    H149721   2.385   0.395   4.232  0.5513  2.4118  0.5870
 9410TIP3    H249722   2.245   0.448   4.206 -1.1601 -2.6614 -2.0631
 9411TIP3   OH249723   1.897   1.632   6.093  0.5016  0.2875 -0.2033
 9411TIP3    H149724   1.826   1.639   6.030 -0.1929 -1.4306  0.3505
 9411TIP3    H249725   1.923   1.723   6.110  0.1778  0.8333 -2.3207
 9412TIP3   OH249726   5.717   6.483   4.698  0.2761 -0.0728 -0.5596
 9412TIP3    H149727   5.777   6.429   4.749 -1.4619 -0.2991  1.4164
 9412TIP3    H249728   5.730   6.572   4.730 -1.5273 -0.3551  1.1487
 9413TIP3   OH249729   5.376   2.848  14.202 -0.1526 -0.1573  0.3822
 9413TIP3    H149730   5.363   2.915  14.135 -0.4803 -1.0367 -0.4543
 9413TIP3    H249731   5.387   2.897  14.283 -1.8911  0.8711  0.0417
 9414TIP3   OH249732   6.396   4.276  14.103 -0.8761 -0.6019  0.1194
 9414TIP3    H149733   6.457   4.299  14.173  0.4618 -1.1246 -0.8238
 9414TIP3    H249734   6.433   4.196  14.065 -1.7134 -0.4773 -0.9915
 9415TIP3   OH249735   2.689   5.177  15.647  0.1447 -0.2771  0.5632
 9415TIP3    H149736   2.609   5.167  15.699  0.0161  1.6733  0.8364
 9415TIP3    H249737   2.711   5.270  15.656  1.1101 -0.2702 -1.4687
 9416TIP3   OH249738   2.597   3.763  16.629 -0.0296 -0.1594  0.1390
 9416TIP3    H149739   2.643   3.719  16.557  1.2570  1.1422  0.1115
 9416TIP3    H249740   2.577   3.693  16.690 -0.8143 -1.2454 -1.2939
 9417TIP3   OH249741   4.078   1.122   3.801  0.5092 -0.2005 -0.5764
 9417TIP3    H149742   4.018   1.195   3.784  0.7185 -0.0392 -0.6146
 9417TIP3    H249743   4.036   1.073   3.872 -0.2635 -0.7532 -1.3880
 9418TIP3   OH249744   3.876   4.565  17.134  0.1076 -0.6513 -0.1269
 9418TIP3    H149745   3.869   4.574  17.039 -0.6669 -2.0874 -0.2428
 9418TIP3    H249746   3.897   4.472  17.147  1.5932 -0.1927  1.0602
 9419TIP3   OH249747   4.093   2.284   1.396  0.2959 -0.0175 -0.5425
 9419TIP3    H149748   4.039   2.207   1.379 -0.1658  0.1639  0.0479
 9419TIP3    H249749   4.120   2.275   1.487  0.1731  0.5479 -0.4464
 9420TIP3   OH249750   2.466   1.274  11.216  0.0675 -0.0884 -0.0912
 9420TIP3    H149751   2.464   1.336  11.289 -1.6061 -2.0898  1.7180
 9420TIP3    H249752   2.513   1.198  11.251 -1.5440 -1.4500 -0.7174
 9421TIP3   OH249753   5.628   2.442   3.024 -0.3579  0.7760  0.3227
 9421TIP3    H149754   5.696   2.452   2.957  0.2682 -0.2520  0.7768
 9421TIP3    H249755   5.590   2.356   3.007  1.3717 -0.5603  2.6070
 9422TIP3   OH249756   0.215   5.671  15.084 -0.3586 -0.9385  0.1280
 9422TIP3    H149757   0.241   5.762  15.088 -0.9909 -0.7162 -0.5511
 9422TIP3    H249758   0.255   5.631  15.161 -0.2313 -0.0537  0.5334
 9423TIP3   OH249759   1.680   2.901   5.187  1.0349 -0.5292 -0.7323
 9423TIP3    H149760   1.626   2.964   5.234  1.0753 -0.0828 -1.2804
 9423TIP3    H249761   1.763   2.947   5.171  1.0510 -0.7023 -1.1701
 9424TIP3   OH249762   3.426   2.252  16.129 -0.2566  0.0327  0.3596
 9424TIP3    H149763   3.385   2.276  16.046 -0.7775 -0.4814  0.4585
 9424TIP3    H249764   3.357   2.266  16.194 -0.0721 -0.2206  0.6117
 9425TIP3   OH249765   4.496   3.525  14.803  0.0321  0.1691  0.4553
 9425TIP3    H149766   4.432   3.543  14.735  0.5144 -2.9771 -1.0392
 9425TIP3    H249767   4.469   3.440  14.839  1.6819  0.1826  1.8475
 9426TIP3   OH249768   1.265   0.555  14.552 -0.4920 -0.6859 -0.1520
 9426TIP3    H149769   1.194   0.561  14.616  0.5680 -1.5959  1.1658
 9426TIP3    H249770   1.289   0.463  14.551 -0.5486 -0.7128 -1.9895
 9427TIP3   OH249771   4.331   3.941   4.917 -0.4458 -1.1193  0.3001
 9427TIP3    H149772   4.392   3.988   4.973 -0.2424 -2.9423  1.7281
 9427TIP3    H249773   4.250   3.936   4.969 -0.6257 -1.8425 -0.0316
 9428TIP3   OH249774   2.900   6.464  16.299  0.0664  0.2540 -0.2134
 9428TIP3    H149775   2.822   6.410  16.297 -1.0131  1.7670 -0.9113
 9428TIP3    H249776   2.890   6.518  16.377  1.3557 -0.7994  0.7365
 9429TIP3   OH249777   3.773   4.110  12.828  0.0792  0.1479  0.0536
 9429TIP3    H149778   3.709   4.039  12.818  0.0951  0.0117  0.8395
 9429TIP3    H249779   3.741   4.159  12.903 -0.2292  1.3017 -0.8131
 9430TIP3   OH249780   4.165   4.562  14.489 -0.1939  0.4182  0.3202
 9430TIP3    H149781   4.168   4.575  14.583 -0.4528 -1.9688  0.7375
 9430TIP3    H249782   4.216   4.482  14.474 -1.7730 -0.3689 -1.2952
 9431TIP3   OH249783   2.136   1.372  14.652  0.3678 -0.5566 -0.0245
 9431TIP3    H149784   2.110   1.453  14.609  0.3953 -0.1498  0.7022
 9431TIP3    H249785   2.229   1.363  14.630  0.5822  0.0664  0.5789
 9432TIP3   OH249786   3.595   1.994   2.992  0.1495 -0.1558  0.2007
 9432TIP3    H149787   3.687   2.021   2.994  0.3425 -0.7114 -0.6599
 9432TIP3    H249788   3.546   2.075   2.978  0.6070 -0.0191 -0.6549
 9433TIP3   OH249789   3.373   0.891   2.851 -0.1811 -0.6458 -0.2298
 9433TIP3    H149790   3.324   0.818   2.812 -1.2570 -0.1970  0.2262
 9433TIP3    H249791   3.394   0.861   2.939  0.0870 -0.7094 -0.3139
 9434TIP3   OH249792   5.786   6.483  16.886 -0.0731 -0.0869 -0.0549
 9434TIP3    H149793   5.806   6.570  16.920 -1.8473  1.3760 -2.4906
 9434TIP3    H249794   5.869   6.435  16.891  0.9125  1.6660  1.4456
 9435TIP3   OH249795   1.198   0.565   4.286 -1.0810 -0.8982 -0.1398
 9435TIP3    H149796   1.116   0.579   4.239 -1.4693 -1.0381  0.4781
 9435TIP3    H249797   1.174   0.508   4.359 -0.8466  0.7196  1.2530
 9436TIP3   OH249798   4.356   0.161   4.889  0.1210 -0.1123  0.5887
 9436TIP3    H149799   4.394   0.073   4.889 -0.8370 -0.5742 -0.9779
 9436TIP3    H249800   4.266   0.148   4.861 -0.1892  1.3317  0.8366
 9437TIP3   OH249801   4.943   5.093   1.541 -0.0003 -0.6125  0.4555
 9437TIP3    H149802   4.916   5.138   1.462  0.6611 -1.2144 -0.1272
 9437TIP3    H249803   4.864   5.089   1.595 -0.5009 -0.3617 -0.2493
 9438TIP3   OH249804   3.694   1.906   4.634  0.0423  0.5936  0.2924
 9438TIP3    H149805   3.761   1.972   4.612 -0.0253  0.4475 -0.3624
 9438TIP3    H249806   3.633   1.953   4.691 -0.8560  1.5797 -1.4045
 9439TIP3   OH249807   5.171   4.695  10.552 -0.2686 -0.3405 -0.2218
 9439TIP3    H149808   5.094   4.677  10.499 -1.3642 -1.1672  1.5642
 9439TIP3    H249809   5.160   4.641  10.630  1.8845 -0.1021  0.3136
 9440TIP3   OH249810   0.158   5.253   3.097  0.5306 -0.1350  0.0604
 9440TIP3    H149811   0.226   5.319   3.110  0.4106 -0.3392  2.0055
 9440TIP3    H249812   0.089   5.277   3.158 -0.2664 -1.0894 -0.4411
 9441TIP3   OH249813   3.096   0.056  17.271 -0.1063  0.3803  0.0505
 9441TIP3    H149814   3.010   0.073  17.233  0.0691  0.4968 -0.2982
 9441TIP3    H249815   3.136   0.142  17.281 -0.7745  0.5199  2.0292
 9442TIP3   OH249816   2.575   5.842  13.441  0.2548  0.2445  0.4185
 9442TIP3    H149817   2.510   5.910  13.460  0.6807  0.7799 -0.0056
 9442TIP3    H249818   2.658   5.889  13.432  0.0734  0.1667 -3.1629
 9443TIP3   OH249819   6.057   0.449  14.904  0.9880 -0.2445 -0.0095
 9443TIP3    H149820   6.086   0.391  14.834 -2.0174 -1.7539 -0.1570
 9443TIP3    H249821   6.056   0.394  14.983 -1.7617 -0.5075 -0.1172
 9444TIP3   OH249822   0.249   2.964  15.899  0.3340 -0.4941 -0.0106
 9444TIP3    H149823   0.302   2.901  15.851 -0.2608  0.3968 -1.9036
 9444TIP3    H249824   0.245   3.041  15.843 -2.1979 -0.1982  0.4369
 9445TIP3   OH249825   6.706   1.041  14.094 -0.2555  0.1135 -0.1583
 9445TIP3    H149826   6.704   0.965  14.152  1.7474  0.0959 -0.0750
 9445TIP3    H249827   6.785   1.030  14.042 -1.1293  0.9925 -1.7554
 9446TIP3   OH249828   1.344   2.443  12.026 -0.1731  0.6289 -0.1337
 9446TIP3    H149829   1.262   2.457  12.073 -0.4599  1.3578 -0.8441
 9446TIP3    H249830   1.317   2.414  11.939  0.3431  0.2633 -0.1778
 9447TIP3   OH249831   5.072   0.897  16.462  0.7075  0.1952 -0.2922
 9447TIP3    H149832   5.118   0.820  16.428 -3.0020 -2.1273 -0.5395
 9447TIP3    H249833   5.038   0.870  16.547 -2.2096  0.8063 -1.1558
 9448TIP3   OH249834   1.714   5.345  12.336 -0.4667  0.2604 -0.1346
 9448TIP3    H149835   1.755   5.279  12.393 -0.9980  0.0604  0.0280
 9448TIP3    H249836   1.762   5.338  12.254 -0.8899 -0.7545 -0.3165
 9449TIP3   OH249837   6.201   4.242   6.004 -0.4159  0.1311  0.0845
 9449TIP3    H149838   6.293   4.250   5.980  0.0099 -1.0410  1.2063
 9449TIP3    H249839   6.184   4.318   6.059  0.5310 -0.7591  1.6919
 9450TIP3   OH249840   4.197   4.800   5.368 -0.2736 -0.3067 -0.2835
 9450TIP3    H149841   4.163   4.884   5.339  0.1852 -0.4584 -1.2988
 9450TIP3    H249842   4.270   4.781   5.308  0.6605 -0.6697  0.9179
 9451TIP3   OH249843   2.831   0.018   4.509  0.3511 -0.0621  0.0346
 9451TIP3    H149844   2.818   0.071   4.587  0.9161 -1.4435  1.1158
 9451TIP3    H249845   2.885   0.071   4.451  2.4540 -0.1092  1.8383
 9452TIP3   OH249846   5.497   0.747   6.034  0.3623 -0.0250  0.4627
 9452TIP3    H149847   5.482   0.665   6.082 -1.5007 -0.4410 -0.7296
 9452TIP3    H249848   5.491   0.815   6.100  1.3870 -0.7914  1.3878
 9453TIP3   OH249849   1.344   5.765  17.271 -0.1011  0.3056 -0.0089
 9453TIP3    H149850   1.394   5.768  17.352 -0.0282  1.0440 -0.0783
 9453TIP3    H249851   1.255   5.788  17.297 -0.0595  0.6308 -0.1500
 9454TIP3   OH249852   0.490   0.199   5.761 -0.2797 -0.2117 -0.3458
 9454TIP3    H149853   0.439   0.173   5.838  0.5823  0.4043  0.4646
 9454TIP3    H249854   0.544   0.122   5.740 -0.5146 -0.3802 -0.3267
 9455TIP3   OH249855   5.372   0.235   4.662  0.3287 -0.1488 -0.2897
 9455TIP3    H149856   5.366   0.274   4.749  0.3752  0.3737 -0.5115
 9455TIP3    H249857   5.402   0.146   4.677 -0.6706 -0.3977  0.3010
 9456TIP3   OH249858   0.866   5.292   1.457 -0.4188 -0.0511  0.2706
 9456TIP3    H149859   0.843   5.368   1.510 -0.9381  0.9011 -1.2601
 9456TIP3    H249860   0.959   5.304   1.438 -0.4765  0.1578  0.1144
 9457TIP3   OH249861   4.682   3.374   4.020  0.0787  0.0171  0.3673
 9457TIP3    H149862   4.657   3.281   4.028  0.5977 -0.1255  0.3617
 9457TIP3    H249863   4.775   3.372   4.000  0.1227  0.5500  0.5039
 9458TIP3   OH249864   1.863   0.711  10.822 -0.6198  0.6059 -0.4167
 9458TIP3    H149865   1.856   0.725  10.728  1.6863 -3.2302 -1.4237
 9458TIP3    H249866   1.933   0.770  10.850  0.0253  0.4136 -1.5607
 9459TIP3   OH249867   5.990   2.290   2.323 -0.4653  0.4020 -0.5940
 9459TIP3    H149868   6.007   2.223   2.256  1.4909  1.7098 -1.5304
 9459TIP3    H249869   5.954   2.241   2.397  0.6736 -1.6769 -1.2974
 9460TIP3   OH249870   6.260   4.024  15.119  0.4599  0.6296  0.3741
 9460TIP3    H149871   6.191   4.077  15.158 -1.2508 -0.2084 -1.3634
 9460TIP3    H249872   6.308   3.989  15.194 -0.5546  1.7857  1.6204
 9461TIP3   OH249873   1.917   1.633  12.575 -0.0269 -1.1926  0.3429
 9461TIP3    H149874   1.990   1.694  12.566 -0.4637 -0.6969  0.1275
 9461TIP3    H249875   1.958   1.549  12.593  0.6776 -1.2133 -1.1866
 9462TIP3   OH249876   5.243   5.804  16.243 -0.0417  0.1556 -0.3585
 9462TIP3    H149877   5.235   5.843  16.156 -1.4938  1.3106  0.2367
 9462TIP3    H249878   5.178   5.851  16.296 -0.6271 -1.9061  0.8600
 9463TIP3   OH249879   6.708   1.206   2.798  0.1108  0.2376 -0.0021
 9463TIP3    H149880   6.654   1.275   2.836 -0.4816  0.4016 -1.1128
 9463TIP3    H249881   6.706   1.222   2.704  0.7251 -0.7472 -0.1994
 9464TIP3   OH249882   4.566   4.747  13.350 -0.4662 -0.4122  0.2224
 9464TIP3    H149883   4.658   4.752  13.323 -0.9344 -1.4230 -1.7709
 9464TIP3    H249884   4.542   4.837  13.372  0.4484  0.2437 -1.2809
 9465TIP3   OH249885   0.444   1.645  14.884  0.0375  0.0149  0.2560
 9465TIP3    H149886   0.378   1.712  14.866  0.0045 -0.0936 -0.0261
 9465TIP3    H249887   0.440   1.586  14.809  1.5884  0.8929 -0.5487
 9466TIP3   OH249888   1.130   6.400  12.236  0.1293  0.2384  0.0033
 9466TIP3    H149889   1.181   6.319  12.241 -1.4543 -0.7575  1.6778
 9466TIP3    H249890   1.119   6.426  12.327 -1.4902  0.9332 -0.3566
 9467TIP3   OH249891   0.150   1.939   3.449 -0.1766  0.7396 -0.1317
 9467TIP3    H149892   0.193   1.886   3.382 -2.0456 -0.6599 -0.3057
 9467TIP3    H249893   0.108   1.875   3.507  0.2808  1.9633  1.6152
 9468TIP3   OH249894   2.761   6.597   4.395  0.3218 -0.0954 -0.4981
 9468TIP3    H149895   2.769   6.685   4.432 -0.5137  0.0621 -0.6941
 9468TIP3    H249896   2.700   6.606   4.322 -0.6146 -1.0245  0.1430
 9469TIP3   OH249897   0.376   5.671  16.084 -0.2267  0.4036 -0.0261
 9469TIP3    H149898   0.458   5.703  16.122 -0.2293  1.6158 -0.9767
 9469TIP3    H249899   0.404   5.606  16.019 -0.0439  0.6134 -0.1568
 9470TIP3   OH249900   0.450   0.965  13.738  0.2639  0.1976 -0.3934
 9470TIP3    H149901   0.426   0.935  13.650 -1.6895 -1.8021  0.7248
 9470TIP3    H249902   0.371   0.951  13.790  2.2662 -1.7838  2.4093
 9471TIP3   OH249903   2.741   3.678  14.655 -0.4078  0.2726  0.0779
 9471TIP3    H149904   2.705   3.612  14.714 -1.5108  0.8740  0.1074
 9471TIP3    H249905   2.695   3.759  14.679 -1.2832  0.4331 -1.9426
 9472TIP3   OH249906   3.471   4.788  10.616  0.0962 -0.1828 -0.0395
 9472TIP3    H149907   3.491   4.737  10.694 -1.1574  0.2580  0.6010
 9472TIP3    H249908   3.376   4.782  10.607 -0.0207  1.5020 -0.3101
 9473TIP3   OH249909   5.332   2.515  14.310  0.4731 -0.1910 -0.0374
 9473TIP3    H149910   5.270   2.585  14.289  0.1422 -0.2279  0.7647
 9473TIP3    H249911   5.299   2.478  14.392  0.2316 -1.7680 -0.8057
 9474TIP3   OH249912   1.886   5.781   5.429  0.5794  0.2673 -0.1219
 9474TIP3    H149913   1.879   5.760   5.336  0.0306 -2.1904  0.3933
 9474TIP3    H249914   1.803   5.825   5.450  0.1989 -0.2174 -0.5717
 9475TIP3   OH249915   0.236   2.172   3.366  0.4945  0.3246 -0.6879
 9475TIP3    H149916   0.293   2.168   3.443 -2.2314  1.7572  1.5728
 9475TIP3    H249917   0.184   2.092   3.369  0.2393  0.4776 -0.9344
 9476TIP3   OH249918   0.309   3.822  16.341  0.0841 -0.3708  0.0468
 9476TIP3    H149919   0.216   3.834  16.362  0.0937  0.9938 -0.5289
 9476TIP3    H249920   0.354   3.879  16.403  0.3382  0.9420 -1.2793
 9477TIP3   OH249921   0.798   6.496  17.031  0.1466  0.0639  0.2559
 9477TIP3    H149922   0.748   6.534  16.959 -0.6816  2.2400  1.8808
 9477TIP3    H249923   0.732   6.474  17.096  1.0610  0.4419  1.3359
 9478TIP3   OH249924   1.068   4.955  16.759  0.0866 -0.4292  0.2446
 9478TIP3    H149925   1.049   5.016  16.831  2.1034 -0.3295  0.7557
 9478TIP3    H249926   1.154   4.981  16.728  0.6381 -2.4812 -0.0867
 9479TIP3   OH249927   6.403   4.455  13.553  0.6325 -0.2094 -0.5100
 9479TIP3    H149928   6.331   4.392  13.558  2.3248 -2.1385  2.0588
 9479TIP3    H249929   6.362   4.539  13.571 -1.3985 -0.7440 -2.1287
 9480TIP3   OH249930   5.296   6.620   5.398  0.1752  0.4081  0.3576
 9480TIP3    H149931   5.266   6.708   5.373  1.5541  1.2116  1.3644
 9480TIP3    H249932   5.218   6.565   5.390 -0.5627  1.5711 -0.9613
 9481TIP3   OH249933   5.900   4.321   0.096  0.0399 -0.1628 -0.2286
 9481TIP3    H149934   5.950   4.336   0.016 -0.1140  1.9323  0.0130
 9481TIP3    H249935   5.876   4.228   0.093  1.6232 -0.5615 -1.6689
 9482TIP3   OH249936   3.828   2.696  10.995 -0.4584  0.2036  0.9558
 9482TIP3    H149937   3.844   2.713  11.087 -0.1059  0.3432  0.8722
 9482TIP3    H249938   3.800   2.781  10.960  1.3171  0.6429  0.5326
 9483TIP3   OH249939   5.436   2.967  16.827  0.4806  0.0022 -0.3083
 9483TIP3    H149940   5.519   2.997  16.791 -1.3664  2.2207 -3.2175
 9483TIP3    H249941   5.411   2.894  16.770 -0.7679  1.1499 -1.3034
 9484TIP3   OH249942   6.079   4.520  14.602 -0.0488  0.0573  0.1956
 9484TIP3    H149943   6.130   4.539  14.680  2.2085  0.2750 -1.2332
 9484TIP3    H249944   6.078   4.424  14.596 -1.1176 -0.0009  0.9942
 9485TIP3   OH249945   1.350   5.146   4.956  0.6491  0.6542 -0.6404
 9485TIP3    H149946   1.319   5.168   4.869  0.1043  0.4559 -0.5007
 9485TIP3    H249947   1.289   5.190   5.016 -0.7652 -1.5434 -0.3473
 9486TIP3   OH249948   2.165   1.262  15.074 -0.1828  0.1003 -0.2585
 9486TIP3    H149949   2.078   1.242  15.041  0.3013  0.5430 -1.8844
 9486TIP3    H249950   2.223   1.201  15.029  0.5340  0.8781 -0.4240
 9487TIP3   OH249951   2.020   5.565  14.212 -0.0096 -0.1912  0.0068
 9487TIP3    H149952   1.956   5.519  14.157  2.4372 -1.2839 -2.1201
 9487TIP3    H249953   2.042   5.502  14.280 -0.8058  0.0127  0.4664
 9488TIP3   OH249954   3.721   2.286   1.291 -0.1143 -0.2660  0.3216
 9488TIP3    H149955   3.650   2.323   1.343 -0.8376  0.2627 -0.9937
 9488TIP3    H249956   3.678   2.221   1.235  0.2202  0.8341 -1.2767
 9489TIP3   OH249957   2.309   5.246  10.609  0.0779  0.5005  0.3211
 9489TIP3    H149958   2.300   5.227  10.515  2.0843 -2.6075  0.6102
 9489TIP3    H249959   2.226   5.219  10.647  0.4051 -1.4837 -0.2357
 9490TIP3   OH249960   0.299   5.696   2.867  0.1142  0.5561 -0.2294
 9490TIP3    H149961   0.229   5.759   2.884  1.9621  2.0364  2.6986
 9490TIP3    H249962   0.324   5.712   2.776 -3.8258 -0.7231 -1.7537
 9491TIP3   OH249963   1.958   1.690  16.434 -0.5113 -0.2875 -0.4551
 9491TIP3    H149964   1.873   1.730  16.418 -0.1214  1.7212  1.9205
 9491TIP3    H249965   2.021   1.748  16.390 -0.2753 -1.4334 -1.6946
 9492TIP3   OH249966   3.471   1.065  11.304  0.4150 -0.3077  0.6895
 9492TIP3    H149967   3.456   0.975  11.336  0.3007  0.0603  1.7157
 9492TIP3    H249968   3.448   1.061  11.211 -0.5191 -1.1324  0.9295
 9493TIP3   OH249969   3.560   0.551   4.315 -0.1794  0.0563  0.2939
 9493TIP3    H149970   3.534   0.586   4.230 -1.5043 -1.6863 -0.0662
 9493TIP3    H249971   3.547   0.624   4.376 -0.3530  0.9689 -0.7965
 9494TIP3   OH249972   3.288   5.009  16.446  0.1469  0.9809 -0.5983
 9494TIP3    H149973   3.366   5.003  16.502 -0.6431  1.3387  0.5811
 9494TIP3    H249974   3.250   5.094  16.468 -1.0994  0.4024 -0.4521
 9495TIP3   OH249975   4.233   5.132   0.505  0.1465 -0.0824 -0.5068
 9495TIP3    H149976   4.212   5.169   0.591  1.7621  0.4957 -0.3224
 9495TIP3    H249977   4.216   5.038   0.515  2.3901 -0.3853  1.1997
 9496TIP3   OH249978   0.435   1.844  12.883 -0.2657 -0.1947 -0.0388
 9496TIP3    H149979   0.466   1.776  12.823 -0.7676 -0.9241  0.5002
 9496TIP3    H249980   0.495   1.917  12.871  0.5303 -0.8892 -0.3357
 9497TIP3   OH249981   5.087   3.307  14.349  0.1932  0.3138 -0.3949
 9497TIP3    H149982   5.099   3.228  14.296  1.8772  0.2202  0.0936
 9497TIP3    H249983   5.174   3.344  14.358 -0.3739  1.4927  0.5442
 9498TIP3   OH249984   3.318   2.773  15.761  0.2425  0.3769  0.4392
 9498TIP3    H149985   3.325   2.857  15.716 -0.0537  0.6785  0.9455
 9498TIP3    H249986   3.276   2.794  15.845 -2.1033 -0.6132 -0.4001
 9499TIP3   OH249987   4.711   4.918   2.714 -0.4175  0.4918 -0.7243
 9499TIP3    H149988   4.757   4.882   2.638 -1.4597 -1.0799 -0.6430
 9499TIP3    H249989   4.756   5.001   2.732  3.0217 -1.3756 -0.0031
 9500TIP3   OH249990   1.595   4.976   6.254  0.0764 -0.1829 -0.5057
 9500TIP3    H149991   1.682   4.937   6.265  0.2031  0.1633 -0.2379
 9500TIP3    H249992   1.594   5.048   6.317  0.2982  0.9767 -1.7664
 9501TIP3   OH249993   3.474   5.977   0.480  0.2742  0.6315  0.0456
 9501TIP3    H149994   3.520   5.897   0.507 -1.6750 -0.5734 -0.0620
 9501TIP3    H249995   3.449   5.960   0.390  0.4642  1.6805 -0.2088
 9502TIP3   OH249996   1.794   3.333  12.496 -0.5737  0.9911  0.0758
 9502TIP3    H149997   1.704   3.357  12.518 -1.4674 -1.3023 -0.8253
 9502TIP3    H249998   1.825   3.285  12.573 -0.4215  1.0307  0.0386
 9503TIP3   OH249999   3.724   5.214   2.514  0.5978  0.3310  0.1436
 9503TIP3    H150000   3.646   5.247   2.469  0.7662  0.6451  0.0762
 9503TIP3    H250001   3.694   5.138   2.563  0.2642  0.4094  0.0608
 9504TIP3   OH250002   6.515   3.814  13.732  0.2045  0.5143 -0.5516
 9504TIP3    H150003   6.587   3.864  13.770  1.2403 -1.2406 -0.0806
 9504TIP3    H250004   6.437   3.846  13.778  1.3941 -1.7932  3.6585
 9505TIP3   OH250005   6.205   1.890   1.810 -0.1994 -0.2959  0.6351
 9505TIP3    H150006   6.186   1.973   1.854 -0.1855 -0.0673  0.2186
 9505TIP3    H250007   6.273   1.912   1.746  1.0464 -0.9664  1.6722
 9506TIP3   OH250008   1.472   3.483   2.859  0.4022  0.4659  0.1833
 9506TIP3    H150009   1.385   3.486   2.820  0.4877 -1.8648 -0.3496
 9506TIP3    H250010   1.521   3.553   2.815 -0.9705  1.3231 -0.0400
 9507TIP3   OH250011   1.252   6.270   2.454  0.0398  0.4457  0.2841
 9507TIP3    H150012   1.302   6.204   2.406 -1.6318  0.4658 -1.5753
 9507TIP3    H250013   1.316   6.309   2.514  2.0094 -0.2392 -1.2632
 9508TIP3   OH250014   5.349   4.194   5.937  0.2962  0.1736  0.5293
 9508TIP3    H150015   5.358   4.180   5.843 -0.3308  1.2369  0.3016
 9508TIP3    H250016   5.412   4.132   5.976 -0.3102 -1.1553 -0.5187
 9509TIP3   OH250017   2.527   6.811   4.944 -0.7464 -0.1956 -0.1797
 9509TIP3    H150018   2.588   6.785   4.875 -0.0742 -0.0947  0.3603
 9509TIP3    H250019   2.583   6.836   5.017 -1.4418 -0.2245  0.3796
 9510TIP3   OH250020   2.149   1.347   3.313 -0.0965  0.2049  0.6651
 9510TIP3    H150021   2.235   1.384   3.296 -0.3490  2.0856  3.0077
 9510TIP3    H250022   2.162   1.287   3.386 -0.5382 -0.6512  0.0543
 9511TIP3   OH250023   4.179   5.161  16.673 -0.1956  0.0476 -0.3326
 9511TIP3    H150024   4.127   5.133  16.749  1.6870 -1.4497  0.4949
 9511TIP3    H250025   4.180   5.257  16.679  0.5419 -0.0320  2.0540
 9512TIP3   OH250026   4.992   2.065  11.527  0.1308 -0.1101 -0.1850
 9512TIP3    H150027   5.067   2.119  11.503  1.8007 -2.5586 -0.8180
 9512TIP3    H250028   5.031   1.987  11.566 -2.1312 -1.2095 -0.0058
 9513TIP3   OH250029   3.914   0.115   2.616 -0.1787 -0.4936  0.3191
 9513TIP3    H150030   3.960   0.031   2.614  0.8466  0.0221  1.3666
 9513TIP3    H250031   3.965   0.172   2.558 -1.8221 -1.0113 -1.7544
 9514TIP3   OH250032   5.164   5.099  14.770  0.1191  0.5947  0.0535
 9514TIP3    H150033   5.105   5.031  14.802 -0.6745  1.8084  1.2416
 9514TIP3    H250034   5.130   5.122  14.683 -1.2400  1.3326  0.7570
 9515TIP3   OH250035   1.332   3.585   5.064 -0.0300 -0.2940 -0.7786
 9515TIP3    H150036   1.288   3.513   5.110  0.3038  0.5616  0.9210
 9515TIP3    H250037   1.288   3.588   4.979 -1.2985 -1.3224 -0.2037
 9516TIP3   OH250038   0.877   0.710   3.486 -0.4827  0.3593  0.3988
 9516TIP3    H150039   0.785   0.690   3.468 -0.2822  1.0962 -1.6388
 9516TIP3    H250040   0.881   0.805   3.491  0.5186  0.5334 -2.1081
 9517TIP3   OH250041   0.868   0.497   0.739  0.3791 -0.8929 -0.2665
 9517TIP3    H150042   0.911   0.420   0.701 -0.4968 -0.2558 -2.7214
 9517TIP3    H250043   0.912   0.572   0.697 -0.3540 -0.1166  0.3201
 9518TIP3   OH250044   6.327   1.629  14.690  0.0014 -0.2413 -0.2168
 9518TIP3    H150045   6.297   1.553  14.739  0.0059  0.9566  1.7623
 9518TIP3    H250046   6.398   1.666  14.743  1.1647  0.1949 -1.9823
 9519TIP3   OH250047   6.085   6.444  13.337 -0.3430 -0.0011 -0.0600
 9519TIP3    H150048   6.082   6.539  13.327 -0.0393 -0.1074 -1.3403
 9519TIP3    H250049   6.155   6.416  13.278 -0.7858 -1.0604 -0.1037
 9520TIP3   OH250050   6.707   5.148   2.556 -0.0468 -0.0875 -0.6936
 9520TIP3    H150051   6.772   5.092   2.514 -0.5236 -0.2246 -1.2633
 9520TIP3    H250052   6.702   5.116   2.646  1.9403  1.0480 -0.1100
 9521TIP3   OH250053   4.131   0.056   1.681 -0.0625  0.0904 -0.3224
 9521TIP3    H150054   4.205   0.017   1.634  1.2227 -0.5445  2.0154
 9521TIP3    H250055   4.064  -0.011   1.681 -1.1734  1.0608 -3.3970
 9522TIP3   OH250056   3.325   0.744  12.928 -0.0181  0.1630  0.0553
 9522TIP3    H150057   3.328   0.661  12.879 -1.9000 -1.1987  2.0358
 9522TIP3    H250058   3.252   0.792  12.888  0.5488  0.5102 -0.5679
 9523TIP3   OH250059   4.881   5.514  11.012  0.1350 -0.5427  0.6192
 9523TIP3    H150060   4.929   5.482  11.088  1.1268  0.7551  0.5710
 9523TIP3    H250061   4.840   5.435  10.975  1.4630 -1.5555  1.2022
 9524TIP3   OH250062   2.336   5.698   0.275  0.2278  0.4045  0.0711
 9524TIP3    H150063   2.342   5.680   0.181  2.1241  0.2365  0.1913
 9524TIP3    H250064   2.351   5.613   0.316  0.9412  0.7602  0.5511
 9525TIP3   OH250065   0.689   3.613   4.401  0.4784 -0.1520 -0.4322
 9525TIP3    H150066   0.743   3.690   4.417  0.3636 -0.0992 -0.2980
 9525TIP3    H250067   0.714   3.551   4.469  0.5305 -0.2121 -0.5057
 9526TIP3   OH250068   2.196   3.122  15.962  0.0144 -0.3894  0.1024
 9526TIP3    H150069   2.178   3.095  15.871 -1.5092  3.1984 -0.8244
 9526TIP3    H250070   2.288   3.102  15.975 -0.2492 -3.0625 -1.3834
 9527TIP3   OH250071   5.936   3.067  13.357  0.0488  0.0523 -0.4472
 9527TIP3    H150072   5.885   3.105  13.429 -0.9246  1.5034 -1.8179
 9527TIP3    H250073   5.934   3.134  13.289  0.3410 -1.5459 -2.1027
 9528TIP3   OH250074   5.545   3.242  14.165  0.0579  0.3005  0.2428
 9528TIP3    H150075   5.581   3.154  14.164  1.2539  0.7098 -2.4728
 9528TIP3    H250076   5.468   3.238  14.108  0.5383  1.1261 -0.4970
 9529TIP3   OH250077   4.446   2.300   2.792  0.4666  0.0562  0.0773
 9529TIP3    H150078   4.449   2.379   2.846 -1.6030 -0.6334  1.3186
 9529TIP3    H250079   4.388   2.322   2.720 -0.1804 -0.3311  0.4700
 9530TIP3   OH250080   0.278   5.482  13.089  0.2888 -0.5570 -0.7865
 9530TIP3    H150081   0.353   5.531  13.123 -0.5888  0.7522 -0.6694
 9530TIP3    H250082   0.308   5.450  13.003  0.1964  2.1290 -1.9219
 9531TIP3   OH250083   5.585   1.375  15.533 -0.4113 -0.2137 -0.1190
 9531TIP3    H150084   5.506   1.385  15.480  0.1324 -0.5738 -1.0241
 9531TIP3    H250085   5.652   1.346  15.471  0.4478  0.1379  0.6244
 9532TIP3   OH250086   1.141   5.241  11.886 -0.1902 -0.2393  0.1324
 9532TIP3    H150087   1.052   5.235  11.920 -1.2373  1.8882 -1.9614
 9532TIP3    H250088   1.192   5.277  11.958 -1.6131  0.9930  0.5766
 9533TIP3   OH250089   3.471   4.626   3.165  0.0121  0.3198 -0.6127
 9533TIP3    H150090   3.429   4.574   3.096 -2.3508  1.4618 -0.1391
 9533TIP3    H250091   3.399   4.676   3.203  1.7832  2.0154  0.6371
 9534TIP3   OH250092   5.413   4.736   2.583  0.4576  0.5268  0.6344
 9534TIP3    H150093   5.476   4.779   2.641  0.4417  1.4765 -0.0273
 9534TIP3    H250094   5.455   4.737   2.497 -1.5215  3.7885 -0.4679
 9535TIP3   OH250095   6.641   5.909   3.157  0.4572 -0.3888  0.6002
 9535TIP3    H150096   6.633   5.819   3.125 -0.4100 -1.1030  2.6726
 9535TIP3    H250097   6.556   5.927   3.198  0.4819  1.5340 -0.0891
 9536TIP3   OH250098   1.688   2.688   1.363 -0.0307  0.5647 -0.1878
 9536TIP3    H150099   1.603   2.720   1.394 -0.1209  0.5696 -0.4439
 9536TIP3    H250100   1.733   2.662   1.443 -0.3212  0.4467 -0.0601
 9537TIP3   OH250101   2.221   4.294   4.361 -0.3222 -0.0860 -0.0738
 9537TIP3    H150102   2.231   4.207   4.399 -3.8998 -0.4511  0.3238
 9537TIP3    H250103   2.295   4.301   4.300  1.2415 -2.5278  1.3570
 9538TIP3   OH250104   0.474   3.056   1.306  0.0715 -0.1838 -0.1562
 9538TIP3    H150105   0.554   3.051   1.253  0.9819  1.5051  0.9766
 9538TIP3    H250106   0.404   3.034   1.244  1.1486  1.0915 -1.9363
 9539TIP3   OH250107   2.450   3.617  11.192 -0.0879  0.0842 -0.4144
 9539TIP3    H150108   2.420   3.550  11.254  0.6043 -1.9940 -2.2013
 9539TIP3    H250109   2.508   3.570  11.132  0.9807  2.4602 -1.3656
 9540TIP3   OH250110   5.830   5.196   5.505  0.3121 -0.1604 -0.2017
 9540TIP3    H150111   5.842   5.285   5.473 -1.6384  1.3410  2.7416
 9540TIP3    H250112   5.828   5.205   5.600 -0.4129 -3.3005  0.1941
 9541TIP3   OH250113   0.326   6.058  15.562  0.1062  0.1196  0.1839
 9541TIP3    H150114   0.290   6.102  15.639 -2.8343  0.3867 -1.1996
 9541TIP3    H250115   0.336   5.967  15.589  1.4273  0.6094  1.5340
 9542TIP3   OH250116   2.294   5.533  16.186 -0.6341  0.3872  0.1519
 9542TIP3    H150117   2.328   5.515  16.274  1.3425  0.2833 -0.5969
 9542TIP3    H250118   2.288   5.448  16.144  0.2803  0.6075 -0.4486
 9543TIP3   OH250119   0.650   6.075  15.916  0.5966  0.2747  0.5996
 9543TIP3    H150120   0.604   6.091  15.833  0.0317 -0.9703  0.6536
 9543TIP3    H250121   0.589   6.105  15.983  0.9024  0.9327  0.5971
 9544TIP3   OH250122   4.742   2.735   2.208 -0.8287  0.2489  0.1993
 9544TIP3    H150123   4.671   2.794   2.232 -0.3507  1.3875 -1.0634
 9544TIP3    H250124   4.776   2.703   2.291 -2.4690  0.0811  0.8338
 9545TIP3   OH250125   4.852   0.139   6.324  0.2437 -0.4679  0.5580
 9545TIP3    H150126   4.843   0.045   6.315 -0.2573 -0.4838  1.1336
 9545TIP3    H250127   4.838   0.156   6.417  1.6045  0.0423  0.6981
 9546TIP3   OH250128   0.845   2.180  16.387 -0.6799 -0.1664  0.1158
 9546TIP3    H150129   0.811   2.143  16.306 -1.2889  0.9061 -0.1427
 9546TIP3    H250130   0.767   2.199  16.439 -0.2590 -1.9379  1.4839
 9547TIP3   OH250131   0.598   6.544  10.613 -0.0135 -0.0435 -0.2434
 9547TIP3    H150132   0.668   6.576  10.669 -0.5820  0.1438  0.3822
 9547TIP3    H250133   0.621   6.453  10.594  0.7081  0.1985 -0.5586
 9548TIP3   OH250134   2.765   4.592  13.576 -0.1054 -0.3293 -0.3109
 9548TIP3    H150135   2.804   4.639  13.502  0.6577 -0.2972  0.0989
 9548TIP3    H250136   2.781   4.649  13.652 -1.5380 -0.0112 -0.2363
 9549TIP3   OH250137   4.445   2.955  11.573  0.4071  0.4007 -0.2143
 9549TIP3    H150138   4.464   2.961  11.480  0.0357  0.5471 -0.2812
 9549TIP3    H250139   4.374   3.018  11.588  0.9169  0.8715  0.2855
 9550TIP3   OH250140   0.731   3.833  14.020 -0.4997  0.0333 -0.1054
 9550TIP3    H150141   0.774   3.823  14.105 -2.3438 -0.9493  0.7635
 9550TIP3    H250142   0.786   3.896  13.973  1.3540 -0.4682  1.2570
 9551TIP3   OH250143   2.070   4.240  12.178  0.3950 -0.1941 -0.4348
 9551TIP3    H150144   2.035   4.178  12.114  0.1316  1.7796 -2.3217
 9551TIP3    H250145   2.164   4.225  12.177  0.1897 -1.8278  0.6082
 9552TIP3   OH250146   3.009   5.576   3.369  0.1847 -0.1699 -0.0269
 9552TIP3    H150147   2.971   5.646   3.421  2.3466  0.1916  1.1985
 9552TIP3    H250148   3.072   5.620   3.312  0.2107 -0.9121 -0.5826
 9553TIP3   OH250149   4.750   3.389   5.175  0.6460 -0.3370 -0.7319
 9553TIP3    H150150   4.763   3.460   5.112 -2.7251 -1.0877 -2.5142
 9553TIP3    H250151   4.660   3.359   5.159  0.5550 -2.3867  2.6773
 9554TIP3   OH250152   1.035   5.227   2.420  0.3414 -0.1142 -0.2493
 9554TIP3    H150153   1.057   5.137   2.394 -1.2886 -0.6475  0.0744
 9554TIP3    H250154   0.987   5.216   2.502  1.8512  1.2243  0.8673
 9555TIP3   OH250155   4.871   3.743   4.027 -0.6277 -0.0291  0.4118
 9555TIP3    H150156   4.815   3.707   3.958 -0.6606 -0.4268  0.6420
 9555TIP3    H250157   4.881   3.835   4.004 -0.3160 -0.2447 -0.3388
 9556TIP3   OH250158   0.847   0.488   2.200 -0.5620  0.1305 -0.0310
 9556TIP3    H150159   0.849   0.572   2.245  1.1765  0.4627 -0.6442
 9556TIP3    H250160   0.757   0.481   2.167 -1.2911  0.8028  1.6957
 9557TIP3   OH250161   2.231   5.415  15.737  0.6140  0.3030  0.2129
 9557TIP3    H150162   2.259   5.485  15.795 -0.9624 -0.3466  1.8220
 9557TIP3    H250163   2.139   5.401  15.757  0.1931 -0.4802 -1.9392
 9558TIP3   OH250164   3.708   2.392   4.361 -0.6671  0.0624 -0.1289
 9558TIP3    H150165   3.718   2.449   4.438 -1.6741  2.1074 -1.4345
 9558TIP3    H250166   3.678   2.308   4.397 -1.9341  1.2126  1.6696
 9559TIP3   OH250167   4.727   0.943   3.848  0.3537 -0.2004  0.3468
 9559TIP3    H150168   4.801   0.884   3.833  1.2162  0.2211  2.5751
 9559TIP3    H250169   4.655   0.885   3.872  0.5356 -0.4851  0.2111
 9560TIP3   OH250170   2.713   6.377   0.254 -0.3226 -0.6137  0.3340
 9560TIP3    H150171   2.722   6.458   0.203  0.3873 -2.1214 -2.1518
 9560TIP3    H250172   2.791   6.375   0.309 -0.3717  0.3900  0.4699
 9561TIP3   OH250173   5.427   2.554   4.594  0.1940 -0.1774 -0.0857
 9561TIP3    H150174   5.495   2.531   4.530  1.5350 -0.7790  1.4611
 9561TIP3    H250175   5.405   2.645   4.575  1.9206  0.2425 -0.2548
 9562TIP3   OH250176   0.528   4.931  14.543  0.1740  0.2448 -0.0885
 9562TIP3    H150177   0.580   4.871  14.597  0.2188 -0.0327 -0.4353
 9562TIP3    H250178   0.521   4.887  14.459 -0.8245  0.1738  0.0183
 9563TIP3   OH250179   4.319   5.015   3.680 -0.3826  0.1014  0.2879
 9563TIP3    H150180   4.390   4.961   3.646 -0.6079  0.4615 -0.7954
 9563TIP3    H250181   4.343   5.104   3.655 -0.8896  0.2996  0.4944
 9564TIP3   OH250182   1.413   0.721  14.764 -0.3522 -0.2547 -0.1445
 9564TIP3    H150183   1.438   0.757  14.679 -0.4844  2.0503  0.7233
 9564TIP3    H250184   1.325   0.755  14.780  0.2200  0.5836  1.5166
 9565TIP3   OH250185   1.747   4.577   4.431 -0.0527  0.5290  0.0008
 9565TIP3    H150186   1.784   4.654   4.387 -1.1173  2.1846  1.8279
 9565TIP3    H250187   1.659   4.568   4.394  0.0332  0.2266 -0.1361
 9566TIP3   OH250188   0.078   4.044  17.214  0.1248  0.2159 -0.0539
 9566TIP3    H150189   0.156   4.099  17.206  0.0282  0.4413  0.5021
 9566TIP3    H250190   0.099   3.984  17.285  0.7177 -1.3167 -1.4600
 9567TIP3   OH250191   0.850   3.085  13.063  0.2298  0.3766 -0.6514
 9567TIP3    H150192   0.861   3.179  13.054 -0.2996  0.2486 -3.5004
 9567TIP3    H250193   0.878   3.049  12.979 -1.0795 -1.8585 -0.2121
 9568TIP3   OH250194   0.669   1.607   5.907  0.4306 -0.4886 -0.3869
 9568TIP3    H150195   0.728   1.677   5.879  1.1065 -1.4479 -1.4603
 9568TIP3    H250196   0.582   1.637   5.880  0.6779  0.0420 -0.6132
 9569TIP3   OH250197   3.464   2.453  14.714 -0.5367 -0.4352 -0.5846
 9569TIP3    H150198   3.383   2.410  14.687 -0.6633 -0.7422  0.2762
 9569TIP3    H250199   3.449   2.546  14.695 -1.7327 -0.2495  1.0585
 9570TIP3   OH250200   5.077   5.960   1.999 -0.0936 -0.1168 -0.5076
 9570TIP3    H150201   5.026   5.939   2.077  2.0723 -0.0667  0.9995
 9570TIP3    H250202   5.104   5.875   1.964 -0.6129 -0.1253 -0.8881
 9571TIP3   OH250203   1.206   1.047  17.019 -0.5169 -0.1526 -0.1578
 9571TIP3    H150204   1.286   1.058  16.967 -0.6139  0.4109 -0.1891
 9571TIP3    H250205   1.191   1.132  17.059 -0.6725 -0.4676  0.4716
 9572TIP3   OH250206   1.007   0.897  13.477  0.4470 -0.4417  0.1724
 9572TIP3    H150207   0.996   0.901  13.572  1.0822  1.9804  0.2205
 9572TIP3    H250208   1.093   0.936  13.462 -0.1823  0.4022 -1.4702
 9573TIP3   OH250209   5.953   0.456   4.276  0.4857  0.2768 -0.1463
 9573TIP3    H150210   5.862   0.471   4.303 -0.2967 -2.2700 -1.0601
 9573TIP3    H250211   5.954   0.482   4.184  0.7918  0.6411 -0.0404
 9574TIP3   OH250212   4.093   2.504  17.048  0.1672  0.6267 -0.1509
 9574TIP3    H150213   4.158   2.440  17.078 -1.5065 -0.7862  0.6402
 9574TIP3    H250214   4.106   2.507  16.953  1.3292  0.3232 -0.0218
 9575TIP3   OH250215   0.524   4.229  13.607  0.6800 -0.0491  0.0712
 9575TIP3    H150216   0.504   4.226  13.514  0.2037  0.6744  0.1405
 9575TIP3    H250217   0.447   4.192  13.650  1.2342 -1.1606  0.1536
 9576TIP3   OH250218   1.729   4.399   2.554 -0.0891  0.7237 -0.0707
 9576TIP3    H150219   1.635   4.380   2.544 -0.1628  0.3606  1.2380
 9576TIP3    H250220   1.737   4.437   2.641  1.2075 -0.6827  0.4569
 9577TIP3   OH250221   6.427   5.232  10.792 -0.2620  0.2589  0.0791
 9577TIP3    H150222   6.495   5.179  10.833 -1.3110 -0.7069  0.6284
 9577TIP3    H250223   6.439   5.320  10.829 -0.9615 -0.4928  2.2875
 9578TIP3   OH250224   2.813   0.175  11.170  0.0608 -0.2741  0.1926
 9578TIP3    H150225   2.754   0.214  11.105  0.6327 -1.7512 -1.2921
 9578TIP3    H250226   2.765   0.180  11.252 -1.8994 -0.8745 -0.8541
 9579TIP3   OH250227   3.242   3.949  14.778 -0.7281 -0.6560  0.3664
 9579TIP3    H150228   3.157   3.925  14.741 -0.5919 -0.5287 -0.0341
 9579TIP3    H250229   3.222   3.973  14.869 -0.8363 -2.4346  0.8429
 9580TIP3   OH250230   0.223   0.009  16.573 -0.0918 -0.0627 -0.2798
 9580TIP3    H150231   0.250   0.080  16.515 -0.6854 -0.6409 -1.3020
 9580TIP3    H250232   0.235   0.044  16.661  2.0795  0.3846 -0.7046
 9581TIP3   OH250233   4.607   5.375   3.384 -0.3493  0.2584  0.1322
 9581TIP3    H150234   4.615   5.403   3.293  0.8244  0.5205  0.2921
 9581TIP3    H250235   4.657   5.441   3.433 -0.6569 -0.0871  0.9198
 9582TIP3   OH250236   2.944   1.722  14.389 -0.3813 -0.0071  0.1493
 9582TIP3    H150237   2.938   1.706  14.483  2.0158 -0.5824  0.2664
 9582TIP3    H250238   3.001   1.799  14.382  0.8086 -0.9491 -0.8448
 9583TIP3   OH250239   6.819   4.409  16.094  0.1825  0.4274 -0.8729
 9583TIP3    H150240   6.820   4.503  16.111 -0.7023  0.9708 -3.4201
 9583TIP3    H250241   6.747   4.397  16.031  1.4235 -1.6689 -1.9783
 9584TIP3   OH250242   0.781   3.705   0.562  0.1083 -0.0174  0.3139
 9584TIP3    H150243   0.686   3.709   0.576  0.1362 -1.4680  1.1829
 9584TIP3    H250244   0.800   3.611   0.558  1.4814  0.2562 -0.1306
 9585TIP3   OH250245   4.778   0.262  15.172 -0.0373 -0.0773  0.4580
 9585TIP3    H150246   4.726   0.203  15.226 -0.7010 -0.5603 -0.6787
 9585TIP3    H250247   4.820   0.205  15.107  0.0026  0.5939 -0.1248
 9586TIP3   OH250248   1.563   2.508   5.270 -0.6243 -0.3199  0.0934
 9586TIP3    H150249   1.604   2.593   5.287 -0.2196 -0.3370 -0.7358
 9586TIP3    H250250   1.582   2.456   5.348 -1.5192  0.5784  0.9347
 9587TIP3   OH250251   4.314   4.213   5.076 -0.9390  0.0603  0.5446
 9587TIP3    H150252   4.254   4.269   5.126 -1.6333 -2.2427  2.5123
 9587TIP3    H250253   4.256   4.152   5.030 -0.1887 -0.5977  0.4583
 9588TIP3   OH250254   0.153   1.185  12.861  0.1857  0.1157 -0.0230
 9588TIP3    H150255   0.149   1.095  12.893  2.6545  0.4038  1.3597
 9588TIP3    H250256   0.183   1.177  12.771  3.3661 -0.5075  0.9310
 9589TIP3   OH250257   0.083   5.060  16.949  0.2290 -0.1185 -0.1171
 9589TIP3    H150258   0.082   5.066  16.853  3.3318  2.4237 -0.1405
 9589TIP3    H250259   0.060   5.148  16.979  1.1920 -0.3461  1.3983
 9590TIP3   OH250260   5.581   1.594   4.363  0.1958  0.2740  0.5287
 9590TIP3    H150261   5.668   1.565   4.333  0.1688  1.4765 -0.7855
 9590TIP3    H250262   5.548   1.519   4.413 -0.0411 -2.2605 -2.9826
 9591TIP3   OH250263   6.010   0.219  14.010  0.1992  0.3414  0.1620
 9591TIP3    H150264   6.068   0.173  14.070  0.5803  0.4536 -0.1187
 9591TIP3    H250265   5.967   0.285  14.064 -1.4525 -1.2650  0.9015
 9592TIP3   OH250266   3.081   3.439   1.671 -0.1639 -0.0277 -0.2139
 9592TIP3    H150267   3.007   3.498   1.661  0.2254  0.4184 -0.4595
 9592TIP3    H250268   3.156   3.487   1.638  0.3674 -0.2007  0.6878
 9593TIP3   OH250269   0.397   1.479   1.589  0.0849 -0.3429 -0.0439
 9593TIP3    H150270   0.337   1.535   1.541  0.0529  0.3692  0.7977
 9593TIP3    H250271   0.350   1.396   1.599 -0.2439 -0.2112 -0.4955
 9594TIP3   OH250272   6.423   6.154   1.103  0.5918 -0.5843  0.3073
 9594TIP3    H150273   6.432   6.121   1.192  1.0535  1.0155  0.8737
 9594TIP3    H250274   6.495   6.216   1.092 -1.1271  1.4406 -0.1328
 9595TIP3   OH250275   6.169   2.323  15.537  0.5179  0.2854  0.0738
 9595TIP3    H150276   6.094   2.274  15.503  0.9264 -0.9938  0.9221
 9595TIP3    H250277   6.131   2.392  15.590 -0.0776  0.9129 -1.1480
 9596TIP3   OH250278   5.045   0.993  17.158  0.0169 -0.5650 -0.2765
 9596TIP3    H150279   5.094   1.065  17.119 -0.4783  0.2759  0.6204
 9596TIP3    H250280   4.962   0.992  17.110  0.4483 -1.2653 -1.0327
 9597TIP3   OH250281   0.446   0.913   3.332  0.3822  0.2163 -0.0587
 9597TIP3    H150282   0.352   0.923   3.344  0.5105  0.5509  0.7035
 9597TIP3    H250283   0.455   0.835   3.277 -0.4269  1.3976 -1.9454
 9598TIP3   OH250284   0.647   5.329   1.077  0.0309  0.8705  0.0795
 9598TIP3    H150285   0.609   5.258   1.128 -2.0585 -0.1080 -2.5934
 9598TIP3    H250286   0.593   5.405   1.098  1.2894  1.3732  1.7451
 9599TIP3   OH250287   6.432   2.934  16.388 -0.5708 -0.0307  0.2387
 9599TIP3    H150288   6.349   2.888  16.377 -0.3510 -0.3559 -0.0520
 9599TIP3    H250289   6.498   2.875  16.353 -0.1617  0.0472  0.8477
 9600TIP3   OH250290   4.794   2.931  16.499  0.1225 -0.4077 -0.4357
 9600TIP3    H150291   4.727   2.879  16.545 -0.1025 -0.4911 -0.8502
 9600TIP3    H250292   4.769   2.925  16.406  0.7979 -0.5744 -0.6127
 9601TIP3   OH250293   0.761   2.461  14.259 -0.6491 -0.4181 -0.7917
 9601TIP3    H150294   0.719   2.547  14.268  1.0625  0.3977 -0.0328
 9601TIP3    H250295   0.795   2.443  14.347 -1.0363 -1.9335 -0.9273
 9602TIP3   OH250296   5.894   0.991   0.819  0.3504 -0.3908 -0.7973
 9602TIP3    H150297   5.929   0.957   0.901 -1.8561 -0.4691  0.1851
 9602TIP3    H250298   5.821   0.932   0.798  0.2634  0.2158 -2.2954
 9603TIP3   OH250299   3.741   5.587   5.871 -0.1020  0.1672 -0.3306
 9603TIP3    H150300   3.649   5.574   5.895 -0.0156 -1.2871 -0.6980
 9603TIP3    H250301   3.741   5.589   5.776  0.4102 -1.5631 -0.4097
 9604TIP3   OH250302   3.202   3.894   3.972 -0.3605 -0.0639 -0.3591
 9604TIP3    H150303   3.258   3.938   4.036 -2.2032  1.7655  0.1184
 9604TIP3    H250304   3.137   3.961   3.948  0.2882 -0.5933 -4.2470
 9605TIP3   OH250305   3.842   3.497  14.686  0.4826 -0.0226  0.0343
 9605TIP3    H150306   3.796   3.434  14.743  1.5712 -2.6179 -1.7406
 9605TIP3    H250307   3.934   3.486  14.709  0.8607 -0.5315 -1.6130
 9606TIP3   OH250308   3.374   1.612  10.179  0.3059 -0.3691  0.0557
 9606TIP3    H150309   3.403   1.695  10.217  0.2357  0.5852 -1.8409
 9606TIP3    H250310   3.279   1.612  10.190  0.2364  0.1185 -0.4847
 9607TIP3   OH250311   5.254   5.859   2.470  0.1635 -0.3056  0.1960
 9607TIP3    H150312   5.330   5.816   2.510 -0.7266 -1.2014  1.0020
 9607TIP3    H250313   5.207   5.897   2.545  1.3203  2.8660 -0.5386
 9608TIP3   OH250314   0.858   0.497  17.098 -0.1665  0.1243  0.0459
 9608TIP3    H150315   0.795   0.449  17.151 -1.1042  2.0119  0.7156
 9608TIP3    H250316   0.943   0.475  17.136 -0.6738  0.0182  1.1565
 9609TIP3   OH250317   6.495   6.386  15.997  0.0740 -0.6344  0.2277
 9609TIP3    H150318   6.560   6.441  15.952  0.5684 -0.2809  1.3447
 9609TIP3    H250319   6.417   6.391  15.940 -0.5007  2.6561  1.0727
 9610TIP3   OH250320   1.021   4.139  12.018  0.4282  0.2878  0.1063
 9610TIP3    H150321   1.013   4.213  12.078  2.0537 -1.2858  2.4337
 9610TIP3    H250322   0.936   4.095  12.022  0.3168  0.5524  0.7920
 9611TIP3   OH250323   0.242   5.140  10.787  0.8355  0.2211  0.4789
 9611TIP3    H150324   0.285   5.138  10.701 -1.7294 -0.1074 -0.8765
 9611TIP3    H250325   0.196   5.223  10.789  1.3066  0.4754  1.8186
 9612TIP3   OH250326   3.407   2.574   3.411  0.2124 -0.5232  0.2310
 9612TIP3    H150327   3.470   2.608   3.346 -0.6820 -2.3906 -1.7543
 9612TIP3    H250328   3.460   2.521   3.470  0.9036  0.2909  0.3525
 9613TIP3   OH250329   3.914   5.401   3.814 -0.1453  0.5036 -0.0385
 9613TIP3    H150330   3.898   5.324   3.869  1.1325 -0.5672 -1.1094
 9613TIP3    H250331   3.829   5.446   3.810 -0.5122  0.0790  1.9596
 9614TIP3   OH250332   1.551   2.403   5.005 -0.2942 -0.5797  0.4540
 9614TIP3    H150333   1.541   2.418   5.099 -3.3869 -2.1865  0.5167
 9614TIP3    H250334   1.518   2.482   4.964 -0.0505 -0.3472  0.7021
 9615TIP3   OH250335   5.185   5.505  13.993  0.4772  0.0740  0.5713
 9615TIP3    H150336   5.120   5.557  14.038  0.9227 -0.8536  2.3754
 9615TIP3    H250337   5.235   5.568  13.941 -0.7111  1.0312  0.5524
 9616TIP3   OH250338   1.083   2.360  13.892 -0.2698  0.8444 -0.0351
 9616TIP3    H150339   1.146   2.410  13.839 -0.9644  0.9149 -0.8027
 9616TIP3    H250340   1.007   2.418  13.899  0.2275  1.3428  2.0496
 9617TIP3   OH250341   0.345   4.784   3.772  0.4205  0.0604  0.0670
 9617TIP3    H150342   0.305   4.822   3.851  0.0804 -0.2342  0.0344
 9617TIP3    H250343   0.422   4.839   3.757  0.3714  0.2515  0.4829
 9618TIP3   OH250344   3.176   6.598  16.648 -0.6014  0.4022 -0.5533
 9618TIP3    H150345   3.239   6.538  16.687 -0.0178  0.6303 -1.1147
 9618TIP3    H250346   3.202   6.603  16.556  0.5349  2.9238 -0.1900
 9619TIP3   OH250347   2.284   0.611  11.333  0.1864 -0.1015  0.0976
 9619TIP3    H150348   2.236   0.540  11.289  0.3527 -0.2245  0.1155
 9619TIP3    H250349   2.259   0.690  11.284  0.5037 -0.2636 -0.3293
 9620TIP3   OH250350   6.008   5.107  11.271  0.3452 -0.0344 -0.2711
 9620TIP3    H150351   6.012   5.164  11.194 -0.9824  1.3713  0.6290
 9620TIP3    H250352   6.023   5.166  11.345  1.6864 -1.3702  0.5709
 9621TIP3   OH250353   5.374   6.003  15.999  0.5449 -0.5918 -0.2952
 9621TIP3    H150354   5.367   6.077  16.059 -1.0511  0.3435 -1.5757
 9621TIP3    H250355   5.423   6.036  15.924 -1.3167 -0.3839 -1.4691
 9622TIP3   OH250356   6.809   0.062  15.108  0.5333  0.2645 -0.4190
 9622TIP3    H150357   6.770   0.132  15.055 -2.2043 -1.2140 -0.5395
 9622TIP3    H250358   6.837   0.106  15.189 -1.1146  1.5238 -0.4839
 9623TIP3   OH250359   2.095   5.897  11.086 -0.4580 -0.4691 -0.9792
 9623TIP3    H150360   2.099   5.990  11.105 -2.4817  0.0686 -2.7456
 9623TIP3    H250361   2.175   5.861  11.124 -0.1376  1.7722  0.6972
 9624TIP3   OH250362   6.456   1.871  10.348 -0.2412 -0.3907 -0.1035
 9624TIP3    H150363   6.499   1.785  10.353  2.0984  0.7794  2.8516
 9624TIP3    H250364   6.415   1.882  10.434 -1.5533  0.9972 -0.8532
 9625TIP3   OH250365   1.826   0.021  16.945  0.2705  0.3569  0.2390
 9625TIP3    H150366   1.921   0.006  16.949  0.3833  0.9815 -0.0615
 9625TIP3    H250367   1.804   0.011  16.853 -0.1541 -0.8938  0.4515
 9626TIP3   OH250368   5.520   5.140   4.069  0.0335 -0.5032 -0.5510
 9626TIP3    H150369   5.528   5.230   4.101  0.1848 -0.1373 -1.5734
 9626TIP3    H250370   5.505   5.088   4.148  3.3099 -0.0673  0.5307
 9627TIP3   OH250371   3.258   4.768  14.114 -0.5068 -0.3389  0.3718
 9627TIP3    H150372   3.299   4.844  14.073  1.0326 -1.4859 -0.3180
 9627TIP3    H250373   3.318   4.744  14.185 -0.3053 -1.6273 -0.2033
 9628TIP3   OH250374   6.279   0.633   3.482  0.0763 -0.0205 -0.3233
 9628TIP3    H150375   6.277   0.635   3.386  3.5112  0.0240 -0.5287
 9628TIP3    H250376   6.277   0.725   3.508 -2.1176 -0.0463 -0.1851
 9629TIP3   OH250377   4.394   4.073   5.862 -0.4556 -0.5236  0.4205
 9629TIP3    H150378   4.329   4.142   5.857 -0.8267 -0.8929  0.0810
 9629TIP3    H250379   4.370   4.022   5.940 -0.5937 -0.6781  0.2777
 9630TIP3   OH250380   4.466   4.918  17.020 -0.2511 -0.3706 -0.2661
 9630TIP3    H150381   4.429   4.899  16.934  0.0563 -0.0996 -0.4575
 9630TIP3    H250382   4.475   5.013  17.023 -1.2211 -0.2920  0.4658
 9631TIP3   OH250383   0.341   4.322  12.536  0.6613  0.3494 -0.3662
 9631TIP3    H150384   0.396   4.303  12.613  0.2040 -3.0832 -0.7565
 9631TIP3    H250385   0.385   4.395  12.493  3.0619 -0.1019  1.1412
 9632TIP3   OH250386   0.063   3.368  17.041  0.2462  0.1092 -0.0482
 9632TIP3    H150387   0.090   3.295  17.096  1.0696 -1.1088 -1.9315
 9632TIP3    H250388  -0.019   3.339  17.000 -1.2304  1.6476  1.6546
 9633TIP3   OH250389   2.279   3.143   4.154  0.2024 -0.5027 -0.0054
 9633TIP3    H150390   2.243   3.080   4.092  0.5209  0.5219 -1.2875
 9633TIP3    H250391   2.206   3.200   4.176 -0.0696 -1.2565  1.0985
 9634TIP3   OH250392   2.286   2.580  12.347  0.4673  0.0349  0.1911
 9634TIP3    H150393   2.214   2.589  12.410 -0.4791 -1.7510 -0.5481
 9634TIP3    H250394   2.362   2.555  12.401  0.0366 -0.0203  0.7855
 9635TIP3   OH250395   3.636   3.176   5.971 -0.0564 -0.5822 -0.0696
 9635TIP3    H150396   3.564   3.166   5.908 -0.0314  0.6498 -0.3285
 9635TIP3    H250397   3.645   3.090   6.012 -2.3335 -0.5231  0.6755
 9636TIP3   OH250398   2.770   5.263  12.092  0.1078  0.9882 -0.2651
 9636TIP3    H150399   2.694   5.295  12.140 -0.2856  1.3350 -1.0949
 9636TIP3    H250400   2.834   5.241  12.160 -0.6994  0.7615  0.4356
 9637TIP3   OH250401   1.355   1.026  13.956 -0.1921 -0.3200 -0.7730
 9637TIP3    H150402   1.372   0.932  13.963 -1.4540 -0.5630 -0.6767
 9637TIP3    H250403   1.440   1.065  13.937  0.9595 -1.1498  2.0954
 9638TIP3   OH250404   0.896   3.394  15.530  0.2942  0.1750  0.2378
 9638TIP3    H150405   0.870   3.463  15.469 -0.0830  0.3928  0.6386
 9638TIP3    H250406   0.936   3.327  15.475 -0.1406  0.3226 -0.2639
 9639TIP3   OH250407   3.972   6.030  11.590  0.2664 -0.0313 -0.1729
 9639TIP3    H150408   4.056   5.992  11.616  0.2503  0.0757  0.0428
 9639TIP3    H250409   3.996   6.107  11.539  0.3045 -0.9971 -1.6506
 9640TIP3   OH250410   1.234   1.890  16.760 -0.3140  0.6059 -0.2013
 9640TIP3    H150411   1.166   1.824  16.774 -0.7026  0.9472 -0.4271
 9640TIP3    H250412   1.213   1.958  16.824  0.7190  0.0361  0.7688
 9641TIP3   OH250413   4.050   1.659  12.594  0.5598  0.0294 -0.0069
 9641TIP3    H150414   4.105   1.604  12.537  0.0124 -1.2671  0.6848
 9641TIP3    H250415   3.987   1.699  12.534  1.3831  0.4568 -0.6136
 9642TIP3   OH250416   5.100   0.462  11.478 -0.1793 -0.0722 -0.2417
 9642TIP3    H150417   5.147   0.395  11.528 -1.3437 -1.3929 -0.8564
 9642TIP3    H250418   5.151   0.542  11.492  2.7375 -1.5660 -1.5093
 9643TIP3   OH250419   4.514   1.011   1.253 -0.1440 -0.3676  0.1332
 9643TIP3    H150420   4.601   1.020   1.213 -0.5486  0.2940 -0.6272
 9643TIP3    H250421   4.487   0.922   1.229  0.5033 -0.7495  0.7677
 9644TIP3   OH250422   6.577   4.037   1.777 -0.1019 -0.1564  0.1339
 9644TIP3    H150423   6.642   3.987   1.827 -0.3572  1.2449  2.0032
 9644TIP3    H250424   6.541   4.098   1.841 -1.7547  0.5388 -1.3932
 9645TIP3   OH250425   0.439   6.276   4.040 -0.5945  0.4035 -0.6366
 9645TIP3    H150426   0.351   6.286   4.076 -0.2028  1.3064  0.1266
 9645TIP3    H250427   0.494   6.256   4.116 -0.2145 -0.7714 -1.1865
 9646TIP3   OH250428   0.203   1.246   1.696 -0.5386  0.1429 -0.4678
 9646TIP3    H150429   0.145   1.217   1.767  0.4030 -0.6222  0.0187
 9646TIP3    H250430   0.149   1.239   1.617 -0.9335 -1.2042 -0.1192
 9647TIP3   OH250431   0.904   1.493   2.880 -0.2639  0.8253 -0.3458
 9647TIP3    H150432   0.849   1.422   2.848  0.4795  0.1941 -0.2445
 9647TIP3    H250433   0.844   1.552   2.926 -0.7250 -0.3085  0.5348
 9648TIP3   OH250434   4.112   2.552  13.522  0.4874  0.7579 -0.0935
 9648TIP3    H150435   4.152   2.470  13.549  0.2154  0.2622 -1.1185
 9648TIP3    H250436   4.024   2.550  13.560  0.5649  0.6835  0.0808
 9649TIP3   OH250437   2.249   1.193  10.470  0.5556  0.0043 -0.2908
 9649TIP3    H150438   2.335   1.161  10.498  0.1707 -1.2836 -0.4984
 9649TIP3    H250439   2.187   1.129  10.506 -0.3354  0.9900 -0.0264
 9650TIP3   OH250440   6.323   5.531   0.483  0.5353  0.0355  0.0675
 9650TIP3    H150441   6.326   5.609   0.538  0.7258 -0.3395  0.5979
 9650TIP3    H250442   6.249   5.546   0.424  1.1837  1.0483 -0.5009
 9651TIP3   OH250443   5.245   3.362  12.215 -0.1647  0.2396 -0.4140
 9651TIP3    H150444   5.256   3.268  12.207  0.7104  0.3328 -0.3981
 9651TIP3    H250445   5.322   3.391  12.266  0.0502  1.0771 -1.1936
 9652TIP3   OH250446   0.596   1.928  14.506 -0.0408  0.3253  0.2591
 9652TIP3    H150447   0.592   1.939  14.411 -1.9957  0.7409  0.3572
 9652TIP3    H250448   0.552   1.845  14.523 -0.9131  0.9061  0.8994
 9653TIP3   OH250449   5.446   2.015   5.833 -0.3643  0.1297  0.0228
 9653TIP3    H150450   5.418   2.030   5.924  1.6636  0.0132  0.7198
 9653TIP3    H250451   5.530   1.970   5.841 -0.2081 -0.0154 -1.9374
 9654TIP3   OH250452   0.129   1.691  15.131 -0.0861  0.1499  0.2968
 9654TIP3    H150453   0.150   1.702  15.224 -0.2077  2.4953  0.1192
 9654TIP3    H250454   0.200   1.737  15.086 -0.4970 -0.2110 -0.7351
 9655TIP3   OH250455   6.260   3.069   0.955  0.2148 -0.1046 -0.2695
 9655TIP3    H150456   6.235   3.070   0.862  2.1100 -4.0682 -1.0578
 9655TIP3    H250457   6.178   3.049   1.001 -0.2432 -1.1092 -1.4529
 9656TIP3   OH250458   2.432   3.056   0.644 -0.4887  0.1409  0.6090
 9656TIP3    H150459   2.472   3.095   0.722  0.8058 -0.9526  0.5289
 9656TIP3    H250460   2.372   2.990   0.678  0.1042 -0.3630  0.7039
 9657TIP3   OH250461   3.857   5.407   0.624 -0.0130 -0.5671 -0.5407
 9657TIP3    H150462   3.762   5.400   0.637 -0.0653  0.1554 -0.5033
 9657TIP3    H250463   3.866   5.455   0.541  0.3213 -1.1730 -0.8629
 9658TIP3   OH250464   0.768   6.555   5.412 -0.0572 -0.2742 -0.0905
 9658TIP3    H150465   0.787   6.649   5.416  0.9624 -0.5047  1.0234
 9658TIP3    H250466   0.679   6.550   5.376 -0.2634  1.1217  0.1573
 9659TIP3   OH250467   4.596   3.765   3.974  0.3351  0.0370  1.1039
 9659TIP3    H150468   4.514   3.742   4.017 -0.6739 -1.3888 -1.3802
 9659TIP3    H250469   4.595   3.860   3.969 -1.3608  0.0358  0.8403
 9660TIP3   OH250470   6.412   2.743  14.761  0.4809  0.3272 -0.3463
 9660TIP3    H150471   6.431   2.657  14.723 -1.5599  0.2717 -1.3553
 9660TIP3    H250472   6.497   2.775  14.790  1.4035 -1.7291 -0.5716
 9661TIP3   OH250473   2.337   1.192  17.217 -0.4502 -0.3398 -0.4475
 9661TIP3    H150474   2.301   1.172  17.303 -1.1854 -0.4309 -0.7714
 9661TIP3    H250475   2.289   1.270  17.188 -0.5063 -0.5554 -0.9470
 9662TIP3   OH250476   2.874   6.623  12.989 -0.1830 -0.2602  0.3547
 9662TIP3    H150477   2.948   6.642  12.931 -0.1930 -1.2977 -0.0311
 9662TIP3    H250478   2.817   6.566  12.937 -0.6497 -0.4680  1.0719
 9663TIP3   OH250479   1.981   4.340   6.015 -0.1232  0.3227 -0.6410
 9663TIP3    H150480   2.012   4.346   5.925  0.9315  0.3156 -0.2829
 9663TIP3    H250481   2.058   4.355   6.069 -0.7378  0.3046  0.2700
 9664TIP3   OH250482   0.947   6.666  16.601 -0.4097  0.5297  0.1098
 9664TIP3    H150483   0.934   6.608  16.525 -1.0654 -0.8501  1.2405
 9664TIP3    H250484   0.951   6.754  16.563 -3.1562  0.1474 -1.3360
 9665TIP3   OH250485   6.494   3.008   5.679 -0.1506 -0.0822  0.1767
 9665TIP3    H150486   6.525   2.918   5.683  0.8675  0.2646  0.2054
 9665TIP3    H250487   6.558   3.054   5.625  1.4554  1.4386  3.1045
 9666TIP3   OH250488   5.359   1.070  15.421  0.3378 -0.2614 -0.6532
 9666TIP3    H150489   5.351   1.164  15.407  1.1850  0.0167  0.6175
 9666TIP3    H250490   5.394   1.037  15.338  1.0861  0.6951 -0.7413
 9667TIP3   OH250491   3.471   0.910   0.805  0.5077 -0.1559  0.3647
 9667TIP3    H150492   3.413   0.966   0.856 -1.9857 -0.2518 -2.1358
 9667TIP3    H250493   3.423   0.827   0.797  1.9646 -1.0026 -0.0262
 9668TIP3   OH250494   1.098   5.011   2.134 -0.2854 -0.8834  0.2311
 9668TIP3    H150495   1.095   4.971   2.047 -1.4712 -0.9121  0.2690
 9668TIP3    H250496   1.129   5.100   2.119 -0.5802 -0.8575 -0.2442
 9669TIP3   OH250497   0.130   5.354  16.083 -0.1748 -0.0717  0.4763
 9669TIP3    H150498   0.151   5.378  16.173  3.5418 -0.0911 -0.2189
 9669TIP3    H250499   0.207   5.306  16.052 -0.9769  0.5468 -2.9314
 9670TIP3   OH250500   4.898   6.556  10.802 -0.3402 -0.1044 -0.2955
 9670TIP3    H150501   4.952   6.635  10.805 -0.5758  0.0519 -0.1684
 9670TIP3    H250502   4.821   6.577  10.855  0.3063 -0.9569  1.0348
 9671TIP3   OH250503   4.831   3.101   5.013 -0.1750  0.0181  0.2093
 9671TIP3    H150504   4.847   3.176   5.071  0.3645 -1.9190  2.7601
 9671TIP3    H250505   4.915   3.087   4.968  1.0021 -1.2024  2.5538
 9672TIP3   OH250506   3.011   4.431   6.051 -0.5958  0.2033 -0.2990
 9672TIP3    H150507   2.929   4.474   6.026 -0.6824 -0.2219 -0.7819
 9672TIP3    H250508   2.994   4.338   6.035 -0.2374  0.0453  0.2282
 9673TIP3   OH250509   1.618   3.115   2.306 -0.4832  0.2873  0.5680
 9673TIP3    H150510   1.565   3.124   2.385 -1.6618 -0.9431 -0.0522
 9673TIP3    H250511   1.573   3.168   2.241  0.5945  1.4598  0.7384
 9674TIP3   OH250512   5.421   6.052   1.987  0.7503  0.3322 -0.3822
 9674TIP3    H150513   5.486   6.122   1.999  1.2254 -0.2036  0.2375
 9674TIP3    H250514   5.464   5.974   2.020 -0.2852  0.0006  0.2299
 9675TIP3   OH250515   1.133   4.480  10.828 -0.3963 -0.4507  0.5039
 9675TIP3    H150516   1.143   4.574  10.814 -1.9881 -0.4361 -0.9420
 9675TIP3    H250517   1.168   4.440  10.748  1.9358 -1.2588  1.8337
 9676TIP3   OH250518   4.687   0.820   3.052 -0.6062 -0.1370  0.2202
 9676TIP3    H150519   4.657   0.815   2.961 -1.3968 -0.0783  0.4688
 9676TIP3    H250520   4.770   0.868   3.048  0.3167 -1.7227 -0.6738
 9677TIP3   OH250521   5.304   0.612   4.886 -0.5615  0.3089  0.0919
 9677TIP3    H150522   5.342   0.526   4.869 -0.7916 -0.0588  1.2985
 9677TIP3    H250523   5.318   0.662   4.805 -0.3480 -0.8287 -0.5890
 9678TIP3   OH250524   0.158   4.590  11.453  0.2174  0.3230 -0.6399
 9678TIP3    H150525   0.195   4.526  11.514 -0.8905  0.8815  0.6553
 9678TIP3    H250526   0.124   4.536  11.381 -0.0580 -0.5107  0.0889
 9679TIP3   OH250527   4.519   2.420   2.157  0.0520  0.0695 -0.1390
 9679TIP3    H150528   4.492   2.368   2.081 -0.6965 -0.5888  0.5489
 9679TIP3    H250529   4.476   2.377   2.232 -0.1595  1.3717  0.5186
 9680TIP3   OH250530   1.898   1.003  15.808 -0.4324 -0.5726 -0.4220
 9680TIP3    H150531   1.856   0.949  15.874 -2.9974  1.3300 -0.3319
 9680TIP3    H250532   1.832   1.011  15.738  0.9042  0.1817 -1.6593
 9681TIP3   OH250533   2.121   0.854  11.458 -0.7965 -0.1160 -0.3104
 9681TIP3    H150534   2.211   0.860  11.427 -0.7504  0.5112 -0.0667
 9681TIP3    H250535   2.076   0.801  11.392  0.1866 -2.1096  0.5421
 9682TIP3   OH250536   1.380   3.967  12.190 -0.6877 -0.0421  0.1312
 9682TIP3    H150537   1.411   4.055  12.168 -1.1113  0.5136  1.6183
 9682TIP3    H250538   1.396   3.915  12.111  0.3189  1.1710 -0.4918
 9683TIP3   OH250539   2.457   1.183  10.970  0.0419  0.1063  0.4558
 9683TIP3    H150540   2.422   1.093  10.966  1.1212 -0.3154  0.3030
 9683TIP3    H250541   2.449   1.207  11.062  0.0163 -0.2535  0.5492
 9684TIP3   OH250542   6.494   5.573  16.613  0.1173  0.3072  0.1783
 9684TIP3    H150543   6.482   5.637  16.542 -0.3804  0.1308  0.1056
 9684TIP3    H250544   6.417   5.517  16.608  0.3725 -0.0702  0.4847
 9685TIP3   OH250545   1.727   3.955  12.775 -0.2621  0.9307 -0.3167
 9685TIP3    H150546   1.822   3.969  12.777 -0.3509  1.5423  0.9608
 9685TIP3    H250547   1.709   3.926  12.686  1.4114 -1.3517 -0.0051
 9686TIP3   OH250548   6.558   1.330  16.510 -0.7890  0.2556  0.2690
 9686TIP3    H150549   6.558   1.426  16.508 -0.0012  0.3349  2.1393
 9686TIP3    H250550   6.605   1.305  16.431 -1.3291  1.3852 -0.4434
 9687TIP3   OH250551   6.732   0.478   1.270 -0.4680 -0.4729  0.1860
 9687TIP3    H150552   6.788   0.481   1.348 -2.2230  2.4850  1.4993
 9687TIP3    H250553   6.654   0.528   1.295 -1.7915 -0.7603 -2.9852
 9688TIP3   OH250554   4.139   0.849   4.896  0.8049 -0.2232  0.2332
 9688TIP3    H150555   4.069   0.910   4.921 -0.8821 -1.5341 -1.0114
 9688TIP3    H250556   4.217   0.882   4.941 -0.5873  1.3299  1.6647
 9689TIP3   OH250557   0.356   5.024   0.792  0.1948 -0.6186  0.2008
 9689TIP3    H150558   0.265   5.042   0.817  0.5792 -0.2020  1.3639
 9689TIP3    H250559   0.402   5.013   0.875  1.0286 -1.7889 -0.3848
 9690TIP3   OH250560   5.463   4.772   1.407 -0.3214  0.6187 -0.4040
 9690TIP3    H150561   5.453   4.857   1.364 -0.1932  0.3069 -1.0638
 9690TIP3    H250562   5.544   4.736   1.370 -0.4533  0.1479 -0.2376
 9691TIP3   OH250563   3.076   3.248  16.629 -0.3670  0.1447  0.3983
 9691TIP3    H150564   3.010   3.293  16.575  0.5558  1.8473  0.6080
 9691TIP3    H250565   3.107   3.316  16.690  0.2332 -1.1290  1.5687
 9692TIP3   OH250566   6.366   3.121  14.810  0.6373 -0.6555 -0.3744
 9692TIP3    H150567   6.376   3.026  14.813  0.7812 -0.6196  1.7583
 9692TIP3    H250568   6.282   3.138  14.852  1.4432  0.2471  0.9141
 9693TIP3   OH250569   1.690   1.049  15.633 -0.0215 -0.0185  0.0994
 9693TIP3    H150570   1.641   0.979  15.590  1.7169 -1.5332  0.4981
 9693TIP3    H250571   1.622   1.106  15.670 -1.4956 -0.6470 -1.4853
 9694TIP3   OH250572   6.330   5.124  14.471  0.4766 -0.8708 -0.6633
 9694TIP3    H150573   6.387   5.138  14.396 -0.2942 -0.0062 -1.1083
 9694TIP3    H250574   6.299   5.034  14.461 -0.8780 -0.2778 -2.3062
 9695TIP3   OH250575   2.985   4.073  12.737  0.4151  0.3782 -0.2529
 9695TIP3    H150576   3.041   4.134  12.688 -1.2399  1.6660 -0.6411
 9695TIP3    H250577   3.018   4.078  12.826  1.7068  0.1376 -0.6966
 9696TIP3   OH250578   3.432   5.264   0.823  0.1555  0.3095 -0.1676
 9696TIP3    H150579   3.424   5.311   0.905  0.3905  0.9209 -0.4922
 9696TIP3    H250580   3.433   5.172   0.848  0.9395  0.5100  0.5682
 9697TIP3   OH250581   5.939   5.806  16.127  0.2837  0.2928 -0.3666
 9697TIP3    H150582   5.991   5.885  16.141  1.2714 -0.5123  0.6431
 9697TIP3    H250583   5.988   5.757  16.061 -0.6763  0.8109 -1.4925
 9698TIP3   OH250584   3.576   3.818  14.821 -0.0835 -0.0181 -0.1677
 9698TIP3    H150585   3.615   3.883  14.879 -0.4271  0.9080 -0.9405
 9698TIP3    H250586   3.513   3.771  14.876 -0.9441  1.3404  0.0593
 9699TIP3   OH250587   1.539   4.591  15.327  0.7705 -0.7117 -0.3849
 9699TIP3    H150588   1.448   4.607  15.352  0.5638 -1.0425 -0.9240
 9699TIP3    H250589   1.589   4.610  15.407  0.1115 -1.8275  0.3222
 9700TIP3   OH250590   6.610   4.831   0.113 -0.4805 -0.9572 -0.2078
 9700TIP3    H150591   6.649   4.888   0.179 -0.1065  0.2180 -1.3859
 9700TIP3    H250592   6.519   4.822   0.140 -0.8930  1.2587 -0.5904
 9701TIP3   OH250593   2.882   0.265  14.977 -0.1443  0.0996 -0.3409
 9701TIP3    H150594   2.793   0.284  15.008 -0.1691 -2.3862  1.4513
 9701TIP3    H250595   2.939   0.296  15.047  0.1865 -0.6687 -0.2566
 9702TIP3   OH250596   6.105   3.833   3.022 -0.1952  0.1723  0.5086
 9702TIP3    H150597   6.076   3.777   3.093 -0.6832  1.3458  1.2690
 9702TIP3    H250598   6.055   3.805   2.946 -2.6494  1.4451  1.5357
 9703TIP3   OH250599   3.707   0.927  11.008 -0.3352  0.1452 -0.2780
 9703TIP3    H150600   3.691   0.896  10.919  0.2223 -0.4730 -0.1736
 9703TIP3    H250601   3.778   0.991  10.998  1.5465 -1.7683 -0.0251
 9704TIP3   OH250602   0.389   2.709  12.461 -0.4726 -0.6118  0.1515
 9704TIP3    H150603   0.467   2.737  12.413 -1.8478  2.5734 -0.4845
 9704TIP3    H250604   0.370   2.621  12.428  0.3906  0.2410 -2.9735
 9705TIP3   OH250605   2.055   4.834  12.493  0.1630 -0.2339 -0.6486
 9705TIP3    H150606   2.027   4.772  12.561  0.4246  1.2370  0.8673
 9705TIP3    H250607   2.150   4.839  12.503  0.3190 -0.6828 -1.7607
 9706TIP3   OH250608   0.063   3.557   4.997  0.4181  0.0076  0.3808
 9706TIP3    H150609   0.098   3.631   4.948 -0.3537  1.3675  1.7677
 9706TIP3    H250610   0.003   3.514   4.937 -0.4197  1.5495  0.0783
 9707TIP3   OH250611   1.417   4.927   5.108 -0.2213  0.3845  0.0057
 9707TIP3    H150612   1.352   4.873   5.063  0.5881 -0.2351 -0.4562
 9707TIP3    H250613   1.430   5.001   5.049 -1.1912  0.9998  0.5476
 9708TIP3   OH250614   6.782   4.108  12.309 -0.2047  0.7041 -0.0364
 9708TIP3    H150615   6.766   4.064  12.225 -0.8626  0.0791  0.4060
 9708TIP3    H250616   6.700   4.097  12.357  0.5136  0.1654  1.0926
 9709TIP3   OH250617   3.365   1.548   0.715 -0.0916  0.3795  0.2875
 9709TIP3    H150618   3.398   1.572   0.629 -1.0990 -0.0563 -0.2388
 9709TIP3    H250619   3.413   1.468   0.738 -1.1053 -0.5578 -0.7117
 9710TIP3   OH250620   6.538   6.397  11.294 -0.0228 -0.3352 -0.2616
 9710TIP3    H150621   6.595   6.403  11.371  0.7946 -1.0121 -0.7943
 9710TIP3    H250622   6.571   6.321  11.246 -0.9182 -0.2947 -0.9682
 9711TIP3   OH250623   1.407   2.422   2.271 -0.0155 -0.3238 -0.0759
 9711TIP3    H150624   1.323   2.380   2.285 -1.4131  2.4205  0.3600
 9711TIP3    H250625   1.398   2.468   2.188  0.4034  1.4267  0.8150
 9712TIP3   OH250626   6.725   6.103  15.403 -0.2745 -0.3354 -0.6865
 9712TIP3    H150627   6.765   6.175  15.451 -2.4862  1.5862 -1.5424
 9712TIP3    H250628   6.799   6.057  15.362  1.1639  2.0918 -0.9866
 9713TIP3   OH250629   5.793   0.893  16.313 -0.3488  0.6479  0.1532
 9713TIP3    H150630   5.752   0.902  16.227  0.2263  0.1100 -0.1844
 9713TIP3    H250631   5.759   0.966  16.364 -1.9997  0.0198 -0.0012
 9714TIP3   OH250632   3.186   3.765  16.192  0.0848  0.1803 -0.7003
 9714TIP3    H150633   3.258   3.725  16.240 -0.2256 -1.0589 -1.2190
 9714TIP3    H250634   3.225   3.796  16.111 -0.2568 -2.3694 -1.9475
 9715TIP3   OH250635   3.577   4.784   2.608 -0.0059  0.4577  0.1383
 9715TIP3    H150636   3.493   4.822   2.585  0.1276  0.2788 -0.6999
 9715TIP3    H250637   3.569   4.761   2.701 -0.4580  1.5145  0.3697
 9716TIP3   OH250638   6.092   3.680  14.235 -0.6547 -0.6710 -1.0404
 9716TIP3    H150639   6.034   3.732  14.290 -1.5195 -0.7344 -1.8672
 9716TIP3    H250640   6.173   3.674  14.285 -1.0507  0.1844 -0.2594
 9717TIP3   OH250641   0.386   0.960  16.420 -0.6471 -0.4104 -0.3960
 9717TIP3    H150642   0.379   0.887  16.482  0.5248 -1.4871 -1.4779
 9717TIP3    H250643   0.346   1.034  16.466 -2.3561 -1.8400  0.5251
 9718TIP3   OH250644   5.651   3.053   4.821  0.7160 -0.0161  0.7183
 9718TIP3    H150645   5.598   2.974   4.831 -1.3958  1.0694 -0.9249
 9718TIP3    H250646   5.739   3.021   4.803 -0.5968 -2.1920 -3.0041
 9719TIP3   OH250647   0.747   6.658  13.676 -0.0660 -0.3799  0.1736
 9719TIP3    H150648   0.710   6.570  13.683 -2.1579  0.2756 -1.5154
 9719TIP3    H250649   0.684   6.714  13.721  0.5456  0.4131  0.0689
 9720TIP3   OH250650   0.387   2.835  15.271  0.1839  0.6369  0.2046
 9720TIP3    H150651   0.362   2.928  15.269 -1.2060  0.2858  0.2642
 9720TIP3    H250652   0.330   2.794  15.206 -0.5978 -0.4797  1.5508
 9721TIP3   OH250653   5.194   5.841  12.040  0.3059 -0.2905 -0.0341
 9721TIP3    H150654   5.188   5.916  11.980  0.8558  1.3684  1.8893
 9721TIP3    H250655   5.112   5.844  12.089  0.7565 -0.3633  0.7228
 9722TIP3   OH250656   4.264   0.686  13.926 -0.0386 -0.9623  0.0444
 9722TIP3    H150657   4.260   0.734  13.843  0.3864 -0.2657  0.4093
 9722TIP3    H250658   4.236   0.597  13.905  0.6966 -0.9648 -0.9787
 9723TIP3   OH250659   0.487   1.235   0.537 -0.1933  0.2547  0.3128
 9723TIP3    H150660   0.556   1.247   0.602  0.7165 -1.5786 -0.2456
 9723TIP3    H250661   0.467   1.324   0.507  1.1470  0.9185  1.2727
 9724TIP3   OH250662   3.058   5.231   4.197  0.2500  0.2123  0.1054
 9724TIP3    H150663   3.106   5.212   4.117  0.6734 -1.4355  0.7171
 9724TIP3    H250664   3.076   5.324   4.215  1.0249  0.3111 -1.1006
 9725TIP3   OH250665   4.687   0.757  13.406 -0.3895  0.3151 -0.0583
 9725TIP3    H150666   4.714   0.841  13.443  1.0761 -0.2721  0.2522
 9725TIP3    H250667   4.664   0.703  13.482 -1.0389  0.3150 -0.2426
 9726TIP3   OH250668   4.816   3.884  10.856  0.1886  0.1283  0.0800
 9726TIP3    H150669   4.856   3.814  10.907  1.3770  0.4961 -0.3340
 9726TIP3    H250670   4.775   3.840  10.781 -1.5976 -0.4247  1.2975
 9727TIP3   OH250671   1.706   6.240   5.881  0.1997  0.3805  0.3612
 9727TIP3    H150672   1.776   6.243   5.946  1.1237 -0.2949 -0.5736
 9727TIP3    H250673   1.722   6.160   5.832 -0.9556  0.4612 -0.1899
 9728TIP3   OH250674   3.184   6.060   4.981 -0.4071  0.3497 -0.0032
 9728TIP3    H150675   3.093   6.034   4.995 -0.3639  0.3316  0.2501
 9728TIP3    H250676   3.216   5.998   4.915  0.0352 -1.0215  1.4401
 9729TIP3   OH250677   1.994   4.584  16.218 -0.4098 -0.1951 -0.2674
 9729TIP3    H150678   1.962   4.527  16.287 -2.3171  0.0678 -0.8856
 9729TIP3    H250679   2.022   4.664  16.263  2.9201 -1.6916  0.6905
 9730TIP3   OH250680   6.732   6.755   3.752 -0.0060  0.2029 -0.1082
 9730TIP3    H150681   6.765   6.840   3.722  1.1582 -0.8776 -2.0496
 9730TIP3    H250682   6.809   6.710   3.786 -0.2013 -0.8225 -0.9698
 9731TIP3   OH250683   1.575   3.043  15.299 -0.2398  0.6035  0.0414
 9731TIP3    H150684   1.495   3.007  15.260 -0.3003  1.3807 -0.5772
 9731TIP3    H250685   1.614   2.969  15.345 -0.7119 -0.0849 -0.6307
 9732TIP3   OH250686   3.202   6.272   6.263 -0.0339  0.0031  0.3678
 9732TIP3    H150687   3.264   6.325   6.213 -2.7189  0.0401 -3.3441
 9732TIP3    H250688   3.156   6.335   6.319  0.3323  0.7241 -0.1314
 9733TIP3   OH250689   0.086   5.935  12.672  0.0168  0.1875  0.1198
 9733TIP3    H150690   0.040   5.855  12.648 -0.4615  0.5475 -0.1830
 9733TIP3    H250691   0.173   5.906  12.699 -0.0384 -0.3962 -0.3238
 9734TIP3   OH250692   3.206   3.369   5.160  0.1630 -0.0560  0.3779
 9734TIP3    H150693   3.294   3.393   5.189  0.6641 -2.3311  0.9066
 9734TIP3    H250694   3.192   3.282   5.197 -1.2371 -0.8991 -1.9776
 9735TIP3   OH250695   4.913   2.336  16.886 -0.0256  0.2478  0.3452
 9735TIP3    H150696   4.901   2.430  16.874 -1.3982  0.0451 -0.0024
 9735TIP3    H250697   4.862   2.315  16.965  0.7098 -0.1227  0.7344
 9736TIP3   OH250698   5.615   0.611   3.766 -0.5498 -0.0772 -0.2725
 9736TIP3    H150699   5.571   0.527   3.780  0.5859 -0.4419  1.4197
 9736TIP3    H250700   5.705   0.588   3.746 -0.4978  0.7299 -1.0386
 9737TIP3   OH250701   3.190   1.386   0.237 -0.9804 -0.7545  0.3723
 9737TIP3    H150702   3.144   1.304   0.217 -2.4838 -0.6629  2.9958
 9737TIP3    H250703   3.123   1.441   0.277  0.6504  0.7228  1.1672
 9738TIP3   OH250704   1.689   1.619  13.584  0.0673  0.2289  0.8213
 9738TIP3    H150705   1.683   1.604  13.678 -0.6323 -1.7338  0.4951
 9738TIP3    H250706   1.716   1.535  13.548  2.5388  1.5151 -0.5576
 9739TIP3   OH250707   1.149   2.276  11.749 -0.0365 -0.3411 -0.0102
 9739TIP3    H150708   1.140   2.310  11.660  0.9277  0.7643  0.2771
 9739TIP3    H250709   1.225   2.218  11.745 -1.6124 -2.4834 -0.4718
 9740TIP3   OH250710   6.009   5.149  14.622  0.5014  0.1662 -0.8896
 9740TIP3    H150711   6.074   5.079  14.633  1.2939  0.6690 -2.2508
 9740TIP3    H250712   5.925   5.103  14.626  0.6409 -0.1925  3.6575
 9741TIP3   OH250713   6.170   5.283   5.286 -0.6002  0.6346  0.1149
 9741TIP3    H150714   6.081   5.267   5.256 -0.4558  0.2311 -0.0960
 9741TIP3    H250715   6.211   5.333   5.215 -0.5510  0.5105  0.0553
 9742TIP3   OH250716   2.060   6.795  16.634 -0.1266  0.5926 -0.2610
 9742TIP3    H150717   1.965   6.807  16.639 -0.3279 -1.1727  0.9161
 9742TIP3    H250718   2.083   6.827  16.547 -1.6160  2.0503 -0.1843
 9743TIP3   OH250719   2.135   2.252  13.326  0.0632 -0.4985 -0.0589
 9743TIP3    H150720   2.140   2.175  13.384 -1.7753 -0.6815 -0.0735
 9743TIP3    H250721   2.125   2.326  13.386 -2.9400 -0.7858 -0.0148
 9744TIP3   OH250722   6.773   3.833   5.046 -0.2474  0.3582 -0.1371
 9744TIP3    H150723   6.856   3.786   5.034  0.0421  1.1525 -1.4644
 9744TIP3    H250724   6.779   3.907   4.986 -1.1311  1.5169  1.1665
 9745TIP3   OH250725   5.283   1.435  14.707 -0.4264 -0.6756  0.2184
 9745TIP3    H150726   5.361   1.473  14.747  0.3306 -2.5389  0.6084
 9745TIP3    H250727   5.280   1.473  14.619 -0.2655  0.9648  0.8808
 9746TIP3   OH250728   0.749   1.811   5.591  0.0675 -0.4288 -0.2745
 9746TIP3    H150729   0.793   1.805   5.676 -0.7966 -1.6576  0.1124
 9746TIP3    H250730   0.810   1.768   5.530  0.3510 -0.2134 -0.1486
 9747TIP3   OH250731   5.982   0.535  12.149  0.5093 -0.6098  0.0467
 9747TIP3    H150732   5.994   0.616  12.199 -1.1692 -0.4294  0.2133
 9747TIP3    H250733   5.926   0.481  12.204 -0.6136 -0.7785 -1.2150
 9748TIP3   OH250734   4.862   3.350   1.611 -0.1494 -0.2265 -0.4155
 9748TIP3    H150735   4.875   3.257   1.627 -1.6464 -0.6083 -1.2189
 9748TIP3    H250736   4.940   3.377   1.562 -0.7483 -1.6337 -2.2720
 9749TIP3   OH250737   6.352   3.796  11.855 -0.1547  0.0802 -0.1660
 9749TIP3    H150738   6.325   3.794  11.763  2.9794  0.0918 -1.1948
 9749TIP3    H250739   6.366   3.704  11.878 -1.3176  0.0460  0.4610
 9750TIP3   OH250740   1.235   0.159   6.258  0.5545  0.4091 -0.2144
 9750TIP3    H150741   1.204   0.110   6.334  1.9185 -1.1926 -0.6268
 9750TIP3    H250742   1.264   0.092   6.197 -0.6504  1.6517 -2.2595
 9751TIP3   OH250743   2.540   6.615   2.248  0.0486 -0.2216  0.0014
 9751TIP3    H150744   2.549   6.535   2.195 -0.5799  0.2610 -0.8714
 9751TIP3    H250745   2.575   6.684   2.192 -0.1620  0.2276  0.4202
 9752TIP3   OH250746   0.762   2.169   3.719  1.0035 -0.5792 -0.4230
 9752TIP3    H150747   0.786   2.077   3.710 -3.0001 -1.6654 -2.2835
 9752TIP3    H250748   0.732   2.194   3.632  3.1269  2.9949 -0.3170
 9753TIP3   OH250749   2.161   0.180  15.787 -0.4035  0.5324  0.6360
 9753TIP3    H150750   2.172   0.162  15.881 -0.5424 -0.2426  0.5086
 9753TIP3    H250751   2.235   0.236  15.765 -1.1474  1.9294  1.5175
 9754TIP3   OH250752   6.673   5.534  14.898 -0.6529  0.2633 -0.2016
 9754TIP3    H150753   6.655   5.445  14.868  0.2234 -0.2686  0.8117
 9754TIP3    H250754   6.768   5.541  14.898 -0.6838  0.8678  0.6848
 9755TIP3   OH250755   3.369   3.767   2.546  0.1637 -0.0928  0.1117
 9755TIP3    H150756   3.460   3.758   2.576  0.0736  1.1734  0.8336
 9755TIP3    H250757   3.346   3.857   2.567 -1.6612 -0.7334  1.0232
 9756TIP3   OH250758   2.728   0.604   0.829 -0.1394 -0.4751  0.3945
 9756TIP3    H150759   2.717   0.570   0.741  0.7707  1.2511 -0.4381
 9756TIP3    H250760   2.762   0.530   0.880  2.1053 -0.7839 -1.4014
 9757TIP3   OH250761   1.103   6.723   0.590 -0.7714  0.6473 -0.3202
 9757TIP3    H150762   1.066   6.660   0.652  0.3219 -0.7196 -0.9908
 9757TIP3    H250763   1.067   6.697   0.505  1.0215 -0.2317 -0.8673
 9758TIP3   OH250764   6.622   2.919  13.461 -0.3017 -0.0165 -0.0394
 9758TIP3    H150765   6.716   2.910  13.478 -0.2819  2.8536  2.1937
 9758TIP3    H250766   6.583   2.845  13.508  0.7190  0.3219  1.4451
 9759TIP3   OH250767   1.143   3.598   2.239  0.1884 -0.6141  0.1226
 9759TIP3    H150768   1.122   3.511   2.274 -1.3906 -0.7582 -1.0868
 9759TIP3    H250769   1.064   3.650   2.255  1.6220  1.1209  2.2216
 9760TIP3   OH250770   2.485   2.003  12.524  0.1983  0.3324  0.4723
 9760TIP3    H150771   2.498   2.022  12.431  2.4061  1.0122  0.8553
 9760TIP3    H250772   2.465   1.910  12.527 -0.8416  0.4894 -0.7267
 9761TIP3   OH250773   2.456   4.305  16.823 -0.5351  0.3792  0.1028
 9761TIP3    H150774   2.505   4.228  16.797 -1.1582 -0.5624  1.5625
 9761TIP3    H250775   2.512   4.379  16.799  0.6603 -0.5801 -0.1318
 9762TIP3   OH250776   4.205   3.131   3.397  0.3623 -0.5137 -0.0087
 9762TIP3    H150777   4.276   3.166   3.344 -0.2549 -1.3286 -1.4113
 9762TIP3    H250778   4.133   3.192   3.385  0.4241 -0.3452  0.4403
 9763TIP3   OH250779   3.712   0.121   5.668  0.6468  0.2827  0.3501
 9763TIP3    H150780   3.645   0.057   5.644  0.2398  0.5356  0.8096
 9763TIP3    H250781   3.752   0.086   5.747  0.5656  0.4904  0.4845
 9764TIP3   OH250782   2.266   3.528   5.371 -0.0415  0.3158  0.2272
 9764TIP3    H150783   2.261   3.433   5.373 -0.6334  0.3452  0.4930
 9764TIP3    H250784   2.258   3.555   5.463  1.5806  0.5703  0.3128
 9765TIP3   OH250785   0.099   1.237   5.984  0.2958  0.5627  0.0734
 9765TIP3    H150786   0.006   1.240   6.005  0.2433  0.4614 -0.1472
 9765TIP3    H250787   0.143   1.237   6.070  0.0742 -0.0126  0.1927
 9766TIP3   OH250788   3.919   5.190  12.700  0.3680 -0.3306  0.4789
 9766TIP3    H150789   3.987   5.125  12.717  0.2001 -0.1345  2.1213
 9766TIP3    H250790   3.852   5.170  12.766 -1.7756 -1.3032 -1.8329
 9767TIP3   OH250791   5.711   6.232  15.040 -0.0181  0.6583 -0.0245
 9767TIP3    H150792   5.630   6.229  14.990 -0.4315  0.4383  0.6357
 9767TIP3    H250793   5.720   6.324  15.066 -0.4055  0.5778  0.4318
 9768TIP3   OH250794   6.707   5.110  14.639  0.4410  0.1953  0.0302
 9768TIP3    H150795   6.657   5.179  14.595  1.6714  1.4607  0.5259
 9768TIP3    H250796   6.658   5.030  14.623  0.7163  0.5841 -3.5493
 9769TIP3   OH250797   3.543   4.743   2.891  0.4473  0.1227 -0.4141
 9769TIP3    H150798   3.483   4.702   2.954  1.1825 -0.5202 -0.1124
 9769TIP3    H250799   3.608   4.787   2.946  1.3172 -0.7630 -0.6973
 9770TIP3   OH250800   1.145   3.286  14.002 -0.0943 -0.2568 -0.1571
 9770TIP3    H150801   1.159   3.230  13.926  1.6307 -0.8642  0.5602
 9770TIP3    H250802   1.211   3.354  13.994  1.2069 -1.2441  1.6006
 9771TIP3   OH250803   3.306   3.291   4.873 -0.5832  0.0691  0.1225
 9771TIP3    H150804   3.346   3.211   4.908  0.2870 -0.3476 -1.6857
 9771TIP3    H250805   3.221   3.296   4.916  0.7135  0.1255  2.9511
 9772TIP3   OH250806   1.237   0.857   1.961  0.5218 -0.2021 -0.2909
 9772TIP3    H150807   1.222   0.772   2.001  0.1692 -0.0779 -0.1569
 9772TIP3    H250808   1.315   0.891   2.005  0.6572 -0.4495 -0.3384
 9773TIP3   OH250809   3.336   4.950   1.270 -0.3805 -0.0408 -0.2964
 9773TIP3    H150810   3.247   4.915   1.278 -0.4983  0.3474  0.0975
 9773TIP3    H250811   3.376   4.895   1.203 -0.9676 -0.1145 -0.5973
 9774TIP3   OH250812   3.822   3.138   5.282 -0.0174 -0.1235 -0.2727
 9774TIP3    H150813   3.726   3.135   5.285 -0.0140  0.1998  0.2949
 9774TIP3    H250814   3.842   3.203   5.215 -0.2139  0.8890  0.6244
 9775TIP3   OH250815   0.938   4.897   2.341 -0.3568  0.0353 -0.8646
 9775TIP3    H150816   0.975   4.971   2.293 -0.8826  1.7089  1.1839
 9775TIP3    H250817   0.843   4.909   2.335 -0.4445 -0.3756 -0.4013
 9776TIP3   OH250818   3.361   3.685   0.962  0.5896  0.0059  0.0123
 9776TIP3    H150819   3.296   3.623   0.994  0.4778  0.2085  0.1856
 9776TIP3    H250820   3.434   3.631   0.931 -0.0902 -0.2788 -1.1796
 9777TIP3   OH250821   6.380   2.964   3.147  0.5913 -0.5086  0.6938
 9777TIP3    H150822   6.292   2.946   3.115  0.8021  1.1944 -1.0509
 9777TIP3    H250823   6.437   2.910   3.093  0.6248 -2.0602  2.2189
 9778TIP3   OH250824   1.275   4.674  15.432 -0.0441 -0.9183 -0.1434
 9778TIP3    H150825   1.231   4.597  15.395  0.6039 -1.6748  0.6107
 9778TIP3    H250826   1.212   4.711  15.493 -0.9595  0.0937 -1.6510
 9779TIP3   OH250827   1.989   1.314  11.769  0.4618  0.0794  0.2267
 9779TIP3    H150828   2.024   1.341  11.854  2.1629  0.4364 -0.5476
 9779TIP3    H250829   2.066   1.294  11.716 -0.5776 -0.7369 -1.0555
 9780TIP3   OH250830   3.573   2.885   3.354  0.4162 -0.1825 -0.2538
 9780TIP3    H150831   3.513   2.895   3.428 -1.1667 -2.6772 -1.0452
 9780TIP3    H250832   3.657   2.862   3.394  0.0111  0.0780  0.7906
 9781TIP3   OH250833   2.256   4.948   3.361 -0.2361 -0.8980  0.5530
 9781TIP3    H150834   2.281   4.955   3.269  1.1014  0.8415  1.0081
 9781TIP3    H250835   2.325   4.993   3.409 -2.5436  1.2819  2.1457
 9782TIP3   OH250836   1.895   6.734  11.486  0.0924 -0.1274 -0.1187
 9782TIP3    H150837   1.801   6.722  11.496 -0.3505  2.0742 -1.0396
 9782TIP3    H250838   1.910   6.825  11.508  1.6815  0.1133 -1.9521
 9783TIP3   OH250839   0.441   1.488   4.960  0.0584  0.3052 -0.1092
 9783TIP3    H150840   0.425   1.475   4.867  1.8269  0.4048 -0.4509
 9783TIP3    H250841   0.374   1.551   4.988 -0.3376  0.4461 -1.3409
 9784TIP3   OH250842   4.424   3.918   4.662  0.1010 -0.4209 -0.4099
 9784TIP3    H150843   4.391   3.906   4.751 -0.6250  0.6310 -0.5195
 9784TIP3    H250844   4.347   3.905   4.607 -0.0035  1.3340 -0.7192
 9785TIP3   OH250845   3.570   0.616  14.139  0.2080  0.2764  0.0284
 9785TIP3    H150846   3.491   0.661  14.168  1.7305  1.9979  1.7463
 9785TIP3    H250847   3.639   0.648  14.196  2.3578 -0.5345 -1.9325
 9786TIP3   OH250848   5.073   4.193   3.744  0.6441  0.5679 -0.9563
 9786TIP3    H150849   5.070   4.098   3.734 -0.5950  0.4166  0.5583
 9786TIP3    H250850   5.148   4.220   3.691  0.8055 -1.2066 -1.6901
 9787TIP3   OH250851   3.517   2.370   4.829 -0.4693  0.0917 -0.3706
 9787TIP3    H150852   3.550   2.424   4.756 -1.3133  2.0129  0.5821
 9787TIP3    H250853   3.425   2.356   4.809 -0.0926 -1.7675 -0.9996
 9788TIP3   OH250854   4.522   2.784  17.170 -0.2254  0.5723 -0.3763
 9788TIP3    H150855   4.433   2.765  17.200  0.3067  0.2252  1.0946
 9788TIP3    H250856   4.578   2.732  17.229  0.9544  0.8816 -1.1903
 9789TIP3   OH250857   1.899   5.432  10.922  0.6311  0.3988  0.1861
 9789TIP3    H150858   1.896   5.337  10.909  0.3029  0.5211 -0.7236
 9789TIP3    H250859   1.952   5.444  11.001  0.5440 -0.5460  0.3974
 9790TIP3   OH250860   0.552   4.679   4.381 -0.0746 -0.3401 -0.4931
 9790TIP3    H150861   0.648   4.680   4.386 -0.0024 -1.3556 -1.2486
 9790TIP3    H250862   0.530   4.762   4.338  0.4681 -0.1046 -0.3292
 9791TIP3   OH250863   6.392   5.998   3.243 -0.5960  0.4238 -0.4533
 9791TIP3    H150864   6.335   6.055   3.192 -1.6281  1.3270  1.6099
 9791TIP3    H250865   6.346   5.984   3.326  1.7028  0.3572  0.9190
 9792TIP3   OH250866   0.811   2.777   0.161  0.1951 -0.0538  0.3650
 9792TIP3    H150867   0.799   2.770   0.066 -0.9377  1.8585  0.3215
 9792TIP3    H250868   0.865   2.701   0.184  0.9979 -0.2319 -1.8786
 9793TIP3   OH250869   0.711   2.353  12.653 -0.0550  0.0761  0.8846
 9793TIP3    H150870   0.706   2.446  12.673 -1.2140  0.0837  0.6738
 9793TIP3    H250871   0.619   2.326  12.643  0.2871 -0.9477  0.3322
 9794TIP3   OH250872   5.689   0.871  13.590  0.3004 -0.2282 -0.2385
 9794TIP3    H150873   5.665   0.783  13.563  3.3821 -1.1999 -0.2191
 9794TIP3    H250874   5.623   0.895  13.655 -0.3149 -2.7768  0.1890
 9795TIP3   OH250875   4.014   6.620  16.711  0.5863  0.2527 -0.1208
 9795TIP3    H150876   4.000   6.526  16.704  2.1007  0.0050 -0.1609
 9795TIP3    H250877   3.949   6.650  16.775 -0.2556 -0.7161 -0.4953
 9796TIP3   OH250878   4.775   1.085   1.331 -0.0822  0.2476  0.1184
 9796TIP3    H150879   4.788   1.149   1.402  1.1073 -1.7164  1.7832
 9796TIP3    H250880   4.845   1.021   1.344  0.1867 -0.1947 -2.9130
 9797TIP3   OH250881   5.072   2.822   4.469  0.0867 -0.7702  0.6090
 9797TIP3    H150882   5.123   2.903   4.476  0.9937 -1.4179  1.6913
 9797TIP3    H250883   5.080   2.780   4.554 -0.2627 -2.0774  0.0298
 9798TIP3   OH250884   5.965   0.445   4.651 -0.2159  0.2437 -0.1925
 9798TIP3    H150885   6.005   0.408   4.730  1.3328  1.5805 -0.2847
 9798TIP3    H250886   5.967   0.540   4.666 -3.0379  0.4099 -0.4270
 9799TIP3   OH250887   1.755   2.947  12.952  0.1550  0.4235  0.0751
 9799TIP3    H150888   1.765   3.037  12.981 -0.9149 -0.0433  2.1409
 9799TIP3    H250889   1.842   2.909  12.961 -0.0766  0.3368  2.8801
 9800TIP3   OH250890   4.892   4.189  12.676 -0.2753 -0.3519  0.2775
 9800TIP3    H150891   4.919   4.261  12.734 -0.6452  0.4750 -0.5462
 9800TIP3    H250892   4.943   4.202  12.597  0.3966 -1.6146  0.4738
 9801TIP3   OH250893   0.163   0.311   4.325 -0.0483 -0.0020  0.4508
 9801TIP3    H150894   0.213   0.305   4.406  0.2444  0.7362  0.3343
 9801TIP3    H250895   0.073   0.325   4.352 -0.4906 -2.8176  0.7001
 9802TIP3   OH250896   2.307   3.963  17.036 -0.5939 -0.7786  0.1656
 9802TIP3    H150897   2.400   3.959  17.061 -1.4677 -1.5476  3.7118
 9802TIP3    H250898   2.290   4.057  17.024  0.6497 -0.6444 -0.8083
 9803TIP3   OH250899   1.478   4.675   3.525  0.4212 -0.0035  0.2430
 9803TIP3    H150900   1.385   4.667   3.504 -0.1332 -1.6740  2.7868
 9803TIP3    H250901   1.479   4.703   3.617  2.4494  0.8380  0.0055
 9804TIP3   OH250902   5.338   4.347   2.094 -0.6084 -0.1418  0.2048
 9804TIP3    H150903   5.366   4.292   2.167 -0.2429 -0.5627 -0.2453
 9804TIP3    H250904   5.338   4.436   2.129 -1.3649 -0.4387  0.9854
 9805TIP3   OH250905   5.725   3.529   5.560  0.1580 -0.0064  0.2296
 9805TIP3    H150906   5.708   3.479   5.640  3.2098  1.4507  2.0300
 9805TIP3    H250907   5.795   3.481   5.516 -2.5108 -1.6358 -2.5839
 9806TIP3   OH250908   0.791   1.567   2.541 -0.3582  0.2366  0.0443
 9806TIP3    H150909   0.872   1.516   2.532 -0.2604  0.4092 -0.0529
 9806TIP3    H250910   0.818   1.646   2.587 -0.5660  0.0684  0.4510
 9807TIP3   OH250911   3.737   0.899  12.975  0.0947 -0.0110 -0.0376
 9807TIP3    H150912   3.777   0.986  12.975 -3.1505  1.6046 -0.0069
 9807TIP3    H250913   3.728   0.877  13.068  1.8186 -0.9056 -0.0444
 9808TIP3   OH250914   3.373   1.717   0.350  0.5091  0.0349 -0.2708
 9808TIP3    H150915   3.432   1.655   0.393 -0.9047 -0.7107  0.6485
 9808TIP3    H250916   3.336   1.768   0.422 -1.5343 -0.9143 -0.5849
 9809TIP3   OH250917   5.304   4.917  10.773  0.0320 -0.4494 -0.0765
 9809TIP3    H150918   5.359   4.924  10.851 -1.0517 -1.5364  0.8387
 9809TIP3    H250919   5.356   4.955  10.703  0.9883  0.7136  1.1972
 9810TIP3   OH250920   2.424   3.867   2.676  0.5643 -0.3168 -0.0370
 9810TIP3    H150921   2.386   3.824   2.753 -1.4651 -2.0809 -1.8688
 9810TIP3    H250922   2.404   3.960   2.689  1.2703 -0.4080  2.0441
 9811TIP3   OH250923   0.744   3.477   5.390  0.4154 -0.5519  0.2000
 9811TIP3    H150924   0.773   3.524   5.467 -0.9172  0.2184  0.2638
 9811TIP3    H250925   0.654   3.507   5.375  1.2003  0.7198 -2.7144
 9812TIP3   OH250926   1.061   0.404   2.869  0.1657  0.0247 -0.0842
 9812TIP3    H150927   1.141   0.427   2.821  0.8029  1.7731  1.6413
 9812TIP3    H250928   1.092   0.384   2.958 -1.1719 -0.9113  0.2012
 9813TIP3   OH250929   3.943   2.916   1.030  0.6243 -0.6602 -0.3463
 9813TIP3    H150930   3.950   2.821   1.039 -1.5471 -0.9130 -0.7212
 9813TIP3    H250931   3.889   2.929   0.951 -1.4625  0.7390  1.1931
 9814TIP3   OH250932   6.633   4.442  10.697  0.0120  0.1139  0.2396
 9814TIP3    H150933   6.662   4.401  10.616 -0.1331 -0.1506  0.3198
 9814TIP3    H250934   6.573   4.511  10.670 -0.2651 -0.1659  0.1357
 9815TIP3   OH250935   1.635   4.349   1.474  0.0984 -0.4014  0.0640
 9815TIP3    H150936   1.617   4.405   1.398  1.0172 -2.0377 -1.4357
 9815TIP3    H250937   1.549   4.314   1.499 -0.1187 -0.4105 -0.6834
 9816TIP3   OH250938   0.682   2.465  11.759 -0.1148  0.0899  0.2219
 9816TIP3    H150939   0.701   2.530  11.826 -0.2454  1.0314 -0.6378
 9816TIP3    H250940   0.587   2.470  11.747 -0.0171  0.3366 -0.4444
 9817TIP3   OH250941   3.376   3.835   5.198  0.3154  0.3912  0.6241
 9817TIP3    H150942   3.300   3.800   5.152  0.4216  1.0667 -0.0907
 9817TIP3    H250943   3.357   3.821   5.291 -1.3732  1.8598  0.5563
 9818TIP3   OH250944   0.361   6.515  15.899 -0.5514  0.0321 -1.3981
 9818TIP3    H150945   0.407   6.593  15.930 -1.0302  0.5533 -1.9780
 9818TIP3    H250946   0.362   6.455  15.974  0.8179  0.1380 -1.2993
 9819TIP3   OH250947   6.189   4.429   3.627 -0.4205 -0.4641  0.2036
 9819TIP3    H150948   6.162   4.449   3.717  0.6079  0.5717  0.3085
 9819TIP3    H250949   6.236   4.346   3.634 -1.0279 -0.7929  0.4797
 9820TIP3   OH250950   5.076   2.678  14.310  0.1165  0.1432  0.2467
 9820TIP3    H150951   4.994   2.642  14.276 -0.5992  0.9255  1.0886
 9820TIP3    H250952   5.054   2.768  14.335  1.6634  0.9516 -1.1173
 9821TIP3   OH250953   4.820   2.355  11.709 -0.7438  0.1094 -0.9469
 9821TIP3    H150954   4.862   2.269  11.709  0.0530  0.4068  1.6973
 9821TIP3    H250955   4.883   2.412  11.664  0.3870 -0.0401  0.3745
 9822TIP3   OH250956   4.397   6.162  12.505  0.2783 -1.0671  0.1767
 9822TIP3    H150957   4.333   6.233  12.499  1.9361  0.5543  0.6513
 9822TIP3    H250958   4.386   6.127  12.594 -0.4856 -1.3463 -0.0267
 9823TIP3   OH250959   3.648   5.283  14.655 -0.3572  0.1244 -0.1412
 9823TIP3    H150960   3.693   5.289  14.739 -2.4007  0.6911  0.9877
 9823TIP3    H250961   3.698   5.218  14.605  1.3224  0.3077  1.2223
 9824TIP3   OH250962   4.749   1.851  13.387  0.0143 -0.3791 -0.1021
 9824TIP3    H150963   4.781   1.903  13.461  1.1282 -0.3986 -0.5653
 9824TIP3    H250964   4.653   1.859  13.393  0.1299  1.0607  0.3186
 9825TIP3   OH250965   3.521   0.667  13.614  0.1403  0.2158  0.3982
 9825TIP3    H150966   3.604   0.672  13.566 -0.2269  0.1203 -0.2641
 9825TIP3    H250967   3.525   0.584  13.660  0.4048  0.1992  0.3499
 9826TIP3   OH250968   4.067   2.612   5.384 -0.1198  0.0180 -0.2966
 9826TIP3    H150969   3.977   2.612   5.350 -0.0727  0.2104 -0.4270
 9826TIP3    H250970   4.064   2.553   5.459 -0.0704 -0.9613 -1.0444
 9827TIP3   OH250971   2.829   5.616   3.108  0.3080 -0.1201 -0.2882
 9827TIP3    H150972   2.808   5.641   3.197  0.5496 -1.1852  0.0899
 9827TIP3    H250973   2.832   5.698   3.059 -0.6025  0.4016  0.5122
 9828TIP3   OH250974   6.727   5.485  16.707  0.3033 -0.6179 -0.0069
 9828TIP3    H150975   6.646   5.533  16.693  0.0944 -0.7735  0.6206
 9828TIP3    H250976   6.776   5.538  16.770 -0.6273 -1.9600  1.9630
 9829TIP3   OH250977   6.357   6.596  13.141 -0.2152 -0.2884  0.3677
 9829TIP3    H150978   6.341   6.506  13.169 -1.0962 -0.5051 -0.7387
 9829TIP3    H250979   6.440   6.592  13.094 -0.8642 -0.8239 -0.7970
 9830TIP3   OH250980   4.316   6.374   5.451  0.2304 -0.1230 -0.1527
 9830TIP3    H150981   4.272   6.298   5.490 -0.0511  0.4727  0.7209
 9830TIP3    H250982   4.253   6.408   5.387  0.2173 -0.4151 -0.2969
 9831TIP3   OH250983   2.278   3.110   6.594 -0.2749  0.0115  0.2226
 9831TIP3    H150984   2.210   3.109   6.527  0.3138 -0.7522 -0.3770
 9831TIP3    H250985   2.236   3.150   6.670 -0.7731  1.5147 -0.7804
 9832TIP3   OH250986   3.863   6.169  16.261  0.4178  0.3799  0.5231
 9832TIP3    H150987   3.870   6.113  16.184 -0.0801 -1.1272  1.5436
 9832TIP3    H250988   3.784   6.140  16.306  0.2926  1.7296  1.2399
 9833TIP3   OH250989   4.734   2.012   2.597  0.3546  0.1743 -0.4210
 9833TIP3    H150990   4.642   2.011   2.571 -0.7421  0.6594  2.9031
 9833TIP3    H250991   4.759   2.104   2.594  0.1331  0.2669  0.4368
 9834TIP3   OH250992   6.248   0.960  14.015 -0.1419 -0.1450 -0.1734
 9834TIP3    H150993   6.264   0.880  13.964  2.0703  0.4474 -0.5270
 9834TIP3    H250994   6.281   0.939  14.103  0.3954  0.3201 -0.2528
 9835TIP3   OH250995   5.938   1.027   5.723  0.0240 -0.1301 -0.4342
 9835TIP3    H150996   5.918   1.066   5.638  1.2104  2.2684  0.3185
 9835TIP3    H250997   6.023   0.985   5.710 -0.5186 -1.1840 -0.7978
 9836TIP3   OH250998   4.075   2.162   4.716 -0.5278 -0.0898 -0.3540
 9836TIP3    H150999   4.009   2.104   4.753  0.6537 -0.0110  2.0733
 9836TIP3    H251000   4.112   2.208   4.791  0.5764  1.6987 -1.8935
 9837TIP3   OH251001   3.960   5.861  13.550 -0.0919 -0.0815  0.2162
 9837TIP3    H151002   4.052   5.834  13.557 -0.2965 -1.1300 -0.7988
 9837TIP3    H251003   3.942   5.862  13.456 -1.5972 -1.7027  0.4318
 9838TIP3   OH251004   0.086   4.180  15.801  0.0099  0.0028 -0.5426
 9838TIP3    H151005   0.177   4.208  15.806 -0.2991  1.4592 -2.1874
 9838TIP3    H251006   0.069   4.139  15.886  2.0807 -0.0083 -0.0778
 9839TIP3   OH251007   6.375   1.750   2.426 -0.3558 -0.5493  0.3924
 9839TIP3    H151008   6.327   1.688   2.371 -1.0626 -0.3583  0.7740
 9839TIP3    H251009   6.462   1.711   2.437  0.2822  0.0476 -1.9575
 9840TIP3   OH251010   3.638   2.178  10.793 -0.2302 -0.3503  0.3985
 9840TIP3    H151011   3.564   2.233  10.767 -0.2312  0.7593  2.5216
 9840TIP3    H251012   3.599   2.095  10.818 -0.9037  0.4331  2.1166
 9841TIP3   OH251013   2.486   1.393   1.955 -0.0661  0.7901 -0.4203
 9841TIP3    H151014   2.424   1.389   2.027  1.4765 -1.5696  0.9180
 9841TIP3    H251015   2.557   1.448   1.987  0.2429  0.4066 -0.4261
 9842TIP3   OH251016   5.415   0.846   5.756  0.0063 -0.0365 -0.0196
 9842TIP3    H151017   5.341   0.894   5.793  0.7855 -0.0757  1.6626
 9842TIP3    H251018   5.424   0.769   5.811  1.6723  0.2667  0.1791
 9843TIP3   OH251019   1.267   0.754  13.085 -0.7057 -0.1426  0.2947
 9843TIP3    H151020   1.259   0.718  13.174  0.5664  3.3354  1.9673
 9843TIP3    H251021   1.176   0.762  13.055 -1.1898 -0.9366  1.4555
 9844TIP3   OH251022   4.123   4.972   2.959 -0.1231  0.1458  0.2811
 9844TIP3    H151023   4.050   4.914   2.938  0.3662  0.1365 -1.5350
 9844TIP3    H251024   4.097   5.057   2.926  0.6129  0.1792 -0.2481
 9845TIP3   OH251025   5.707   5.234   6.083 -0.3182  0.0689 -0.2691
 9845TIP3    H151026   5.736   5.160   6.137 -1.2247 -0.3506 -0.3446
 9845TIP3    H251027   5.754   5.309   6.119  1.1862 -0.6476 -0.6615
 9846TIP3   OH251028   3.076   3.673   4.092  0.0423 -0.4769  0.6016
 9846TIP3    H151029   3.017   3.629   4.031 -1.7687  0.9743  1.1946
 9846TIP3    H251030   3.093   3.758   4.051  0.8545 -0.4453  0.9766
 9847TIP3   OH251031   2.460   4.289   0.416 -0.4743  0.7138 -0.0385
 9847TIP3    H151032   2.375   4.302   0.457 -0.6611  2.6192 -0.9420
 9847TIP3    H251033   2.467   4.194   0.406 -3.7200  0.5440 -2.3802
 9848TIP3   OH251034   0.749   5.538  16.192 -0.4155  0.1078 -0.0103
 9848TIP3    H151035   0.841   5.514  16.180 -0.4428  0.3173 -0.6257
 9848TIP3    H251036   0.744   5.567  16.283  0.3510  1.1149 -0.2805
 9849TIP3   OH251037   0.850   4.455   4.975 -0.3125  0.6382 -0.1746
 9849TIP3    H151038   0.920   4.508   5.012  1.0832 -0.4900 -1.1034
 9849TIP3    H251039   0.819   4.505   4.899 -0.1406  0.8881 -0.0808
 9850TIP3   OH251040   5.206   4.438  11.121 -0.0916 -0.0097  0.1238
 9850TIP3    H151041   5.208   4.408  11.030  2.2835  0.4210 -0.0061
 9850TIP3    H251042   5.157   4.520  11.118  1.3165  0.8240 -1.0510
 9851TIP3   OH251043   3.735   4.226  14.561 -0.7295  0.0565  0.1249
 9851TIP3    H151044   3.744   4.295  14.495 -1.1246  0.3140  0.3321
 9851TIP3    H251045   3.746   4.272  14.644  0.3630 -0.3638  0.2287
 9852TIP3   OH251046   2.686   0.488   0.574  1.0384 -0.0127 -0.2447
 9852TIP3    H151047   2.721   0.400   0.557 -1.0708 -0.8375 -0.5869
 9852TIP3    H251048   2.643   0.513   0.493  0.6008  0.8559  0.2406
 9853TIP3   OH251049   1.935   0.983   4.299  0.3859 -0.4235  0.1056
 9853TIP3    H151050   1.846   1.000   4.329  0.6654 -0.2204  0.8370
 9853TIP3    H251051   1.927   0.973   4.204 -0.0153  2.7353 -0.3281
 9854TIP3   OH251052   2.932   5.783   3.554  0.0189 -0.3701 -0.4782
 9854TIP3    H151053   2.974   5.855   3.602  2.8847 -0.5775 -2.4248
 9854TIP3    H251054   2.911   5.718   3.621  0.1698  1.0044  0.9494
 9855TIP3   OH251055   0.134   1.620  17.104 -1.1037  0.6820 -0.0789
 9855TIP3    H151056   0.047   1.618  17.065 -0.2872  1.3872 -2.1053
 9855TIP3    H251057   0.166   1.709  17.087 -1.1613  1.5054  3.4988
 9856TIP3   OH251058   3.671   3.006   4.957  0.0535  0.3227 -0.1333
 9856TIP3    H151059   3.643   2.918   4.931  0.9682  0.0581 -0.2570
 9856TIP3    H251060   3.623   3.024   5.038 -1.7673  0.5894 -1.2220
 9857TIP3   OH251061   4.541   6.340   5.312 -0.3775  0.0051 -0.2139
 9857TIP3    H151062   4.504   6.358   5.226  0.6507  1.6251 -0.3766
 9857TIP3    H251063   4.468   6.348   5.372 -0.9796 -0.4731 -0.8745
 9858TIP3   OH251064   0.585   5.932   5.430 -0.3350 -0.4042  0.1977
 9858TIP3    H151065   0.515   5.986   5.466 -0.2233 -0.0439 -0.1165
 9858TIP3    H251066   0.557   5.842   5.446 -1.8689 -0.3313 -1.7415
 9859TIP3   OH251067   3.540   4.982  16.587  0.0958  0.1206 -0.0488
 9859TIP3    H151068   3.513   4.993  16.678 -1.7228  0.3390 -0.5835
 9859TIP3    H251069   3.604   5.051  16.572 -0.1793  0.5773  0.8315
 9860TIP3   OH251070   1.160   1.976  12.464 -0.0357  0.0393 -0.1881
 9860TIP3    H151071   1.236   1.927  12.435  1.9978  3.4682 -1.2145
 9860TIP3    H251072   1.089   1.946  12.408  1.7682  0.2383 -2.7467
 9861TIP3   OH251073   6.237   2.134   2.517  0.2357 -0.5463 -0.1758
 9861TIP3    H151074   6.158   2.162   2.563 -0.6315  0.1027 -1.9508
 9861TIP3    H251075   6.224   2.041   2.500  1.0826 -1.0786  1.7954
 9862TIP3   OH251076   1.932   6.558  16.388  0.4430 -0.8757 -0.2236
 9862TIP3    H151077   1.893   6.475  16.362 -0.8488 -0.2490 -0.3881
 9862TIP3    H251078   1.866   6.624  16.366  1.8738  0.3393 -1.1689
 9863TIP3   OH251079   0.331   1.550   2.978  0.0097  0.5322 -0.3069
 9863TIP3    H151080   0.288   1.473   2.940  0.2430  0.7371 -1.0024
 9863TIP3    H251081   0.309   1.546   3.071 -2.6877  1.3916 -0.8198
 9864TIP3   OH251082   5.838   6.127   4.877  0.6141  0.6252 -0.7650
 9864TIP3    H151083   5.915   6.094   4.925  0.5508 -0.2156 -1.2283
 9864TIP3    H251084   5.846   6.222   4.883  1.8074  0.5616 -0.9758
 9865TIP3   OH251085   4.288   0.764   4.464 -0.4563 -0.1546 -0.1976
 9865TIP3    H151086   4.382   0.781   4.466 -0.6032  0.6866  0.3005
 9865TIP3    H251087   4.265   0.762   4.371  0.4975 -3.1711 -0.4802
 9866TIP3   OH251088   3.572   1.543   2.094  0.1267  0.1156  0.2608
 9866TIP3    H151089   3.598   1.535   2.002  1.1004  0.4040  0.4981
 9866TIP3    H251090   3.634   1.606   2.131 -0.3994  0.1768  1.0641
 9867TIP3   OH251091   5.155   5.873  10.371  0.3007  0.0910 -0.2594
 9867TIP3    H151092   5.072   5.831  10.390 -0.2288  1.5117  0.7644
 9867TIP3    H251093   5.218   5.801  10.366 -1.1993 -1.1609 -2.6068
 9868TIP3   OH251094   4.786   0.390   5.928 -0.0727  0.3617  0.0823
 9868TIP3    H151095   4.774   0.298   5.903 -0.3898  0.2059  0.7902
 9868TIP3    H251096   4.866   0.390   5.981 -1.5302 -0.0079  2.4578
 9869TIP3   OH251097   2.052   1.365   5.643 -0.2669  0.3012  0.4106
 9869TIP3    H151098   2.097   1.449   5.645 -0.3016  0.3677 -0.7898
 9869TIP3    H251099   2.015   1.360   5.555 -0.6234 -0.7865  0.6073
 9870TIP3   OH251100   6.202   3.614  16.748  0.2630 -0.2387  0.6012
 9870TIP3    H151101   6.196   3.540  16.688  0.1302 -0.2179  0.5887
 9870TIP3    H251102   6.117   3.618  16.791 -1.0282  1.9387 -1.8277
 9871TIP3   OH251103   5.325   6.202  14.444 -0.1662 -0.0064 -0.3662
 9871TIP3    H151104   5.371   6.148  14.509 -0.5027 -0.6864 -0.6839
 9871TIP3    H251105   5.390   6.268  14.418 -0.3745  0.9989  1.4824
 9872TIP3   OH251106   2.372   0.831  13.352  0.0749  0.2589  0.6652
 9872TIP3    H151107   2.444   0.848  13.412 -0.3316  1.0704  0.9433
 9872TIP3    H251108   2.406   0.767  13.290  1.1561  0.9128  0.5642
 9873TIP3   OH251109   4.158   6.781   5.016  0.4625  0.1260 -0.4549
 9873TIP3    H151110   4.174   6.864   5.061  0.1402  0.5794 -1.1582
 9873TIP3    H251111   4.243   6.758   4.978  0.3707  0.5415 -0.9222
 9874TIP3   OH251112   2.912   4.510  13.120 -0.4361  0.1843  0.6394
 9874TIP3    H151113   2.891   4.513  13.026  1.8090  1.4413  0.1069
 9874TIP3    H251114   2.997   4.466  13.123 -0.1970  0.7105  2.0310
 9875TIP3   OH251115   4.098   2.412   4.315  0.4845  0.5272 -0.0148
 9875TIP3    H151116   4.121   2.326   4.350  0.9514  0.4012 -0.6106
 9875TIP3    H251117   4.023   2.440   4.367  1.4925  0.5873  1.4432
 9876TIP3   OH251118   6.573   5.831  14.091  0.5505  0.7669 -0.6039
 9876TIP3    H151119   6.555   5.834  14.185  1.0624 -0.3766 -0.4421
 9876TIP3    H251120   6.510   5.891  14.052 -0.9939 -0.1782  0.2950
 9877TIP3   OH251121   4.094   3.918  12.620  0.1353  0.0298 -0.3558
 9877TIP3    H151122   4.155   3.846  12.608  0.8656  0.5543  0.1059
 9877TIP3    H251123   4.133   3.971  12.690 -1.6157 -0.4374  1.0649
 9878TIP3   OH251124   0.064   1.115   1.923 -0.0139 -0.2842  0.2325
 9878TIP3    H151125  -0.001   1.082   1.985  0.6657 -0.9513  0.6147
 9878TIP3    H251126   0.057   1.210   1.929 -0.4494 -0.3471  0.8089
 9879TIP3   OH251127   5.854   2.642   3.159 -0.4225 -0.0312  0.1838
 9879TIP3    H151128   5.889   2.586   3.229  0.7228 -0.8142 -0.9798
 9879TIP3    H251129   5.896   2.611   3.079 -1.8975  0.6745 -0.9259
 9880TIP3   OH251130   6.357   3.361   1.496  0.9046 -0.5111  0.7368
 9880TIP3    H151131   6.320   3.449   1.490 -1.7039 -1.5469  0.2438
 9880TIP3    H251132   6.442   3.368   1.453 -0.2283  1.2866 -1.4560
 9881TIP3   OH251133   4.168   3.675  13.836 -0.0161  0.0385  0.1280
 9881TIP3    H151134   4.177   3.747  13.773  0.9648  0.3069  0.5527
 9881TIP3    H251135   4.131   3.717  13.914 -0.6780 -0.1788 -0.0665
 9882TIP3   OH251136   5.545   2.590   5.136 -0.2744 -0.7598  0.2970
 9882TIP3    H151137   5.640   2.594   5.145 -0.0010  2.8344 -2.0322
 9882TIP3    H251138   5.529   2.527   5.066  0.5718 -0.0429 -0.5585
 9883TIP3   OH251139   5.098   3.961   5.131  0.0840  0.2925  0.8678
 9883TIP3    H151140   5.110   3.922   5.044 -0.2862  1.0945  0.4542
 9883TIP3    H251141   5.091   4.055   5.115 -0.1688  0.4318  1.7509
 9884TIP3   OH251142   4.459   6.778  14.409 -0.3223 -0.3308  0.0391
 9884TIP3    H151143   4.492   6.857  14.367 -4.3985  0.9587 -1.2465
 9884TIP3    H251144   4.473   6.792  14.503  2.6092 -0.0323 -0.3669
 9885TIP3   OH251145   6.453   3.404  11.380 -0.2714 -0.0289 -0.0757
 9885TIP3    H151146   6.409   3.485  11.357 -0.5772 -0.2895 -0.4131
 9885TIP3    H251147   6.476   3.415  11.472 -0.2288  0.4753 -0.1412
 9886TIP3   OH251148   6.124   6.393   0.742  0.7650  0.4553  0.0266
 9886TIP3    H151149   6.213   6.394   0.778  0.3594  0.1492  1.0948
 9886TIP3    H251150   6.132   6.347   0.659  2.0996  3.0057 -1.3653
 9887TIP3   OH251151   6.496   3.418  15.406 -0.0829 -0.0659  0.5552
 9887TIP3    H151152   6.506   3.503  15.449 -1.8147  0.8208 -0.6802
 9887TIP3    H251153   6.419   3.379  15.447  0.1318 -0.6310  0.4374
 9888TIP3   OH251154   4.164   1.759  11.053 -0.0972 -0.1040  0.1083
 9888TIP3    H151155   4.151   1.665  11.040 -0.0738 -0.2741  1.1527
 9888TIP3    H251156   4.209   1.789  10.974  0.3500 -1.0725 -0.0192
 9889TIP3   OH251157   4.259   6.449  17.030 -0.6990  0.2628  0.2301
 9889TIP3    H151158   4.240   6.355  17.022 -0.2568  0.2834 -1.3677
 9889TIP3    H251159   4.283   6.476  16.942  1.6891  1.3408  1.1445
 9890TIP3   OH251160   4.126   2.862   5.265  0.0720  0.3371  0.4072
 9890TIP3    H151161   4.217   2.889   5.250 -0.2639  0.5634 -1.3769
 9890TIP3    H251162   4.134   2.779   5.312  1.2008  0.4672  0.4692
 9891TIP3   OH251163   1.283   1.860   4.966  0.9521  0.4375 -0.2476
 9891TIP3    H151164   1.367   1.839   5.008  1.2780 -0.2750 -1.2361
 9891TIP3    H251165   1.290   1.825   4.878 -0.4140  0.3177 -0.3361
 9892TIP3   OH251166   2.154   1.615  14.060 -0.3482 -0.2459  0.0467
 9892TIP3    H151167   2.190   1.533  14.094  1.9875 -0.2417 -2.1098
 9892TIP3    H251168   2.201   1.684  14.108  0.0587 -0.2260 -0.3669
 9893TIP3   OH251169   5.829   4.744   5.590  0.5122  0.8763  0.2114
 9893TIP3    H151170   5.755   4.782   5.542  0.9192  2.1807  0.5778
 9893TIP3    H251171   5.798   4.658   5.618  0.0265  0.3500 -1.7901
 9894TIP3   OH251172   3.260   2.019   1.594 -0.8223  0.0557 -0.2178
 9894TIP3    H151173   3.290   2.109   1.585 -1.1157  0.0825 -0.9488
 9894TIP3    H251174   3.325   1.967   1.548 -1.9027  0.1237 -1.9122
 9895TIP3   OH251175   2.609   6.557  12.049 -0.6936 -0.5124 -0.1420
 9895TIP3    H151176   2.524   6.569  12.007 -0.5637  1.4455  0.0766
 9895TIP3    H251177   2.665   6.520  11.980 -1.7435 -2.0854 -0.2112
 9896TIP3   OH251178   2.687   3.845   4.387  1.0897 -0.3773 -0.2656
 9896TIP3    H151179   2.657   3.879   4.471  1.6055  2.7149 -1.1787
 9896TIP3    H251180   2.666   3.915   4.325  0.7408 -2.5276 -2.7384
 9897TIP3   OH251181   5.107   5.637   1.114 -0.2666 -0.3373 -0.0938
 9897TIP3    H151182   5.158   5.605   1.188 -0.5734 -2.6675 -0.7980
 9897TIP3    H251183   5.018   5.605   1.131 -0.5165 -0.1664 -1.0328
 9898TIP3   OH251184   0.442   1.285   2.798 -0.6444 -0.1344  0.0238
 9898TIP3    H151185   0.448   1.271   2.893 -0.7969 -0.3191  0.0066
 9898TIP3    H251186   0.348   1.281   2.779 -0.6117 -0.1228 -0.1389
 9899TIP3   OH251187   4.693   3.247   4.643  0.6839  0.1066 -0.7504
 9899TIP3    H151188   4.670   3.327   4.597  0.2031  0.9813  0.9629
 9899TIP3    H251189   4.783   3.262   4.674 -0.1321  0.9184  1.4075
 9900TIP3   OH251190   2.417   5.497   2.748  0.0913  0.1023 -0.0387
 9900TIP3    H151191   2.367   5.521   2.670  3.9974 -0.3644 -2.9888
 9900TIP3    H251192   2.422   5.578   2.800 -2.5743  0.4185 -0.1501
 9901TIP3   OH251193   4.949   3.803   6.332 -0.2634 -0.2428 -0.2763
 9901TIP3    H151194   4.967   3.870   6.266  1.1015 -0.6200 -0.3076
 9901TIP3    H251195   4.963   3.847   6.416 -1.5430  0.1082 -0.2339
 9902TIP3   OH251196   5.361   5.918   3.914 -0.0162  0.1248  0.1793
 9902TIP3    H151197   5.302   5.898   3.987  1.0811  0.6466  1.2433
 9902TIP3    H251198   5.338   6.008   3.890  0.4355  0.3852  0.6997
 9903TIP3   OH251199   6.729   2.745   0.241 -0.6527 -0.0103 -0.0029
 9903TIP3    H151200   6.664   2.736   0.310 -0.1577 -0.1707  0.4531
 9903TIP3    H251201   6.776   2.662   0.240 -1.5081 -0.5212 -1.4429
 9904TIP3   OH251202   1.983   1.712  15.431 -0.6976 -0.6651 -0.0247
 9904TIP3    H151203   2.025   1.632  15.400 -1.5994 -1.1156 -0.1144
 9904TIP3    H251204   1.935   1.686  15.509 -0.7231 -0.1369  0.1404
 9905TIP3   OH251205   5.662   2.389   0.656  0.4314 -0.9268 -0.0735
 9905TIP3    H151206   5.694   2.373   0.567 -0.2725 -0.7617 -0.3617
 9905TIP3    H251207   5.579   2.342   0.661  0.5548 -1.0899  0.5626
 9906TIP3   OH251208   4.069   1.354   5.170  0.5795  1.0093 -0.0694
 9906TIP3    H151209   3.980   1.387   5.160 -0.7860 -2.2942 -0.0864
 9906TIP3    H251210   4.075   1.326   5.261  1.4579  0.8304 -0.1714
 9907TIP3   OH251211   5.982   6.378  15.455 -0.0206  0.3870  0.5757
 9907TIP3    H151212   5.984   6.474  15.447  0.0763  0.4051  0.7821
 9907TIP3    H251213   5.978   6.363  15.550  0.2317  0.1861  0.5567
 9908TIP3   OH251214   0.796   1.452  16.879 -0.6162 -0.2359 -0.4756
 9908TIP3    H151215   0.861   1.517  16.854  0.8890 -0.8488  1.5566
 9908TIP3    H251216   0.774   1.474  16.970 -1.5267 -1.4036 -0.3925
 9909TIP3   OH251217   0.326   0.197   2.720  0.0866 -0.3564 -0.1511
 9909TIP3    H151218   0.314   0.116   2.770  1.1878  0.4751  1.5430
 9909TIP3    H251219   0.402   0.181   2.665  0.9860 -0.1275  0.9955
 9910TIP3   OH251220   3.605   1.014   0.584  0.0143 -0.4890 -0.1421
 9910TIP3    H151221   3.563   0.985   0.665 -1.5656 -2.5341 -1.5977
 9910TIP3    H251222   3.689   1.050   0.612 -1.8094  2.0438  2.7191
 9911TIP3   OH251223   5.634   6.709  11.276 -0.2879 -0.3960 -0.1892
 9911TIP3    H151224   5.652   6.626  11.232  1.0813 -0.8297  1.0850
 9911TIP3    H251225   5.640   6.775  11.207 -1.4884 -1.3378 -1.2437
 9912TIP3   OH251226   0.277   2.393  13.442 -0.2540  0.1180  0.7950
 9912TIP3    H151227   0.242   2.366  13.527  0.4677  0.6450  1.2748
 9912TIP3    H251228   0.234   2.477  13.424 -2.9627 -1.5006 -0.9827
 9913TIP3   OH251229   0.291   4.006   6.094 -0.0552 -0.8548  0.1473
 9913TIP3    H151230   0.200   4.020   6.121  0.0977  0.1541  0.1777
 9913TIP3    H251231   0.340   4.078   6.135  0.3991 -0.1041 -1.6309
 9914TIP3   OH251232   2.991   1.500   0.718  0.2875 -0.5268  0.4122
 9914TIP3    H151233   2.941   1.523   0.796  1.4054  2.2497  0.4268
 9914TIP3    H251234   3.068   1.557   0.722  0.0153  0.2824 -3.0739
 9915TIP3   OH251235   0.969   0.126  12.013 -0.3006  0.1158  0.6415
 9915TIP3    H151236   0.917   0.083  11.944  2.2829 -2.2446 -0.0384
 9915TIP3    H251237   0.990   0.212  11.976 -1.4022  0.0394 -0.2351
 9916TIP3   OH251238   5.041   6.440   0.391  0.1994 -0.1244 -0.0494
 9916TIP3    H151239   5.088   6.361   0.366  0.5702  0.6318 -1.8828
 9916TIP3    H251240   5.102   6.511   0.374 -0.7548  0.6997 -0.1430
 9917TIP3   OH251241   2.390   1.950  15.790  0.1959  0.0361  0.1986
 9917TIP3    H151242   2.461   1.911  15.738  0.3632 -1.7997  1.6854
 9917TIP3    H251243   2.311   1.935  15.739  0.7110  1.1100 -0.9623
 9918TIP3   OH251244   4.823   0.534   2.622 -0.1844  0.2497  0.0905
 9918TIP3    H151245   4.823   0.616   2.572 -2.7559  0.3960  0.1972
 9918TIP3    H251246   4.730   0.512   2.631  0.3071 -1.1594  2.5716
 9919TIP3   OH251247   5.488   2.492   5.846  0.6020 -0.0722  0.0587
 9919TIP3    H151248   5.479   2.414   5.901  0.4991  0.1887  0.4150
 9919TIP3    H251249   5.514   2.561   5.906  0.6866  0.1727 -0.2545
 9920TIP3   OH251250   1.943   6.155   1.694  0.1561  0.7252 -0.3549
 9920TIP3    H151251   1.912   6.232   1.743  0.2087  0.6745 -0.2424
 9920TIP3    H251252   2.035   6.146   1.718  0.1314  0.5836 -0.3125
 9921TIP3   OH251253   4.522   0.508   0.710 -0.1799 -0.2577  0.4993
 9921TIP3    H151254   4.606   0.517   0.755 -1.1234  1.2448  2.0967
 9921TIP3    H251255   4.538   0.541   0.622  1.3498 -1.8177  0.1431
 9922TIP3   OH251256   0.415   0.151  13.120  0.2290  0.1172 -0.5202
 9922TIP3    H151257   0.415   0.062  13.154  1.5015  0.1746 -0.3211
 9922TIP3    H251258   0.386   0.205  13.194  2.6341  0.1986  0.4625
 9923TIP3   OH251259   0.194   0.863   6.032  0.3797  0.1516  0.6047
 9923TIP3    H151260   0.124   0.857   5.967  0.0730  0.3349  0.9113
 9923TIP3    H251261   0.275   0.854   5.982  0.1090 -1.5245  0.4239
 9924TIP3   OH251262   2.031   0.243   0.391 -0.1832  0.3759  0.2261
 9924TIP3    H151263   2.005   0.328   0.425 -1.6702  0.1077 -0.1577
 9924TIP3    H251264   1.970   0.226   0.319  2.1500  0.4504 -1.9315
 9925TIP3   OH251265   4.014   5.703   3.195 -0.4823  0.2442  0.0221
 9925TIP3    H151266   3.951   5.745   3.137  0.9422  0.7359 -1.2392
 9925TIP3    H251267   4.086   5.676   3.137 -0.5023 -2.3127  1.0443
 9926TIP3   OH251268   5.663   5.491   2.025  0.4744 -0.1243  0.6728
 9926TIP3    H151269   5.711   5.563   1.985  1.9226 -0.8166  1.0765
 9926TIP3    H251270   5.659   5.424   1.957 -0.3942  0.1296  0.4702
 9927TIP3   OH251271   5.331   1.489  12.317  0.4813 -0.3027 -0.3456
 9927TIP3    H151272   5.381   1.409  12.329 -1.5491 -2.3480 -3.8284
 9927TIP3    H251273   5.258   1.481  12.378  1.7204  0.3000  1.2583
 9928TIP3   OH251274   1.176   1.301   5.840  1.0293 -0.3838 -0.0085
 9928TIP3    H151275   1.210   1.215   5.815  0.8101 -0.4801  0.0146
 9928TIP3    H251276   1.205   1.314   5.930  1.4153 -0.2489 -0.1510
 9929TIP3   OH251277   0.068   1.968  12.411  0.7512  0.0838 -0.4224
 9929TIP3    H151278  -0.006   1.935  12.462 -0.1919  1.9212 -0.5543
 9929TIP3    H251279   0.138   1.979  12.476 -0.8820  3.8883  0.9625
 9930TIP3   OH251280   2.326   3.595  15.499 -0.3388 -0.3288 -0.0057
 9930TIP3    H151281   2.357   3.607  15.589  2.0300  0.6996 -0.8712
 9930TIP3    H251282   2.249   3.651  15.492 -0.5722 -0.4491  1.3866
 9931TIP3   OH251283   1.971   4.290  13.033  0.1613 -0.2638  0.0850
 9931TIP3    H151284   1.966   4.255  13.123  0.1641  1.3805  0.7485
 9931TIP3    H251285   2.052   4.339  13.031 -0.6700  1.1465 -0.2732
 9932TIP3   OH251286   2.648   5.770   4.293  0.1402 -0.0046 -0.4535
 9932TIP3    H151287   2.647   5.680   4.261  0.0678  0.3879 -1.6014
 9932TIP3    H251288   2.741   5.792   4.297  0.1147  0.4253 -1.8416
 9933TIP3   OH251289   0.988   6.062  11.102  0.9431  0.7126 -0.2478
 9933TIP3    H151290   1.044   6.110  11.163  0.1421 -1.0129  2.0162
 9933TIP3    H251291   0.898   6.086  11.128  0.5895  0.1452 -0.9166
 9934TIP3   OH251292   4.834   3.640   0.515 -0.3664 -0.1194 -0.2779
 9934TIP3    H151293   4.815   3.722   0.560  0.2659 -0.5145  0.7380
 9934TIP3    H251294   4.757   3.584   0.533 -0.6586  0.1398 -0.7140
 9935TIP3   OH251295   2.022   3.681  13.114  0.0978 -0.7762 -0.2295
 9935TIP3    H151296   2.107   3.714  13.144  0.3767  0.1649 -1.9291
 9935TIP3    H251297   2.040   3.644  13.028 -1.4832  1.1144 -1.4582
 9936TIP3   OH251298   4.995   1.195  16.725  0.2286 -0.1157  0.2285
 9936TIP3    H151299   5.028   1.194  16.635 -1.4476  0.8027 -0.4532
 9936TIP3    H251300   5.017   1.108  16.760 -2.8690 -2.3504 -2.6004
 9937TIP3   OH251301   4.782   4.810  15.147 -0.1661 -0.3549  0.0689
 9937TIP3    H151302   4.784   4.904  15.131 -0.7690 -0.3189  0.2104
 9937TIP3    H251303   4.713   4.776  15.090 -0.3802 -0.6207  0.4784
 9938TIP3   OH251304   3.806   4.842   0.282  0.3951 -0.4667  0.4892
 9938TIP3    H151305   3.871   4.794   0.231 -1.4862 -1.9846 -0.6057
 9938TIP3    H251306   3.838   4.837   0.372  2.2065 -0.4093 -0.1168
 9939TIP3   OH251307   0.318   1.774   2.604  0.1398 -0.1956 -0.1176
 9939TIP3    H151308   0.332   1.794   2.697 -0.6328 -0.8834  0.1621
 9939TIP3    H251309   0.374   1.699   2.587  0.8776  0.4144 -0.4216
 9940TIP3   OH251310   4.563   5.248  10.659 -0.0018  1.0239 -0.5175
 9940TIP3    H151311   4.535   5.222  10.747  3.1001  1.4216  0.7334
 9940TIP3    H251312   4.516   5.189  10.601  0.1712 -1.4686  1.6524
 9941TIP3   OH251313   3.377   6.448   5.441 -0.5513  0.0378 -0.0056
 9941TIP3    H151314   3.285   6.470   5.421  0.1466  2.2675 -1.1366
 9941TIP3    H251315   3.387   6.358   5.412 -2.9243 -1.0874  2.2114
 9942TIP3   OH251316   4.321   1.704  11.458  0.4032  0.9175 -0.0247
 9942TIP3    H151317   4.378   1.745  11.522 -0.5039  1.7816  0.2528
 9942TIP3    H251318   4.353   1.734  11.373  0.5760  1.1064  0.1092
 9943TIP3   OH251319   2.789   6.456   4.063  0.4105 -0.1492 -0.7791
 9943TIP3    H151320   2.841   6.519   4.113  0.4907 -0.9148  0.1148
 9943TIP3    H251321   2.846   6.428   3.992  0.7719 -0.0486 -0.5274
 9944TIP3   OH251322   6.520   2.982   2.541  0.2183 -0.2037  0.1053
 9944TIP3    H151323   6.430   2.955   2.521  0.4659 -0.2666 -0.9754
 9944TIP3    H251324   6.570   2.959   2.463  0.9025  1.2207  0.0988
 9945TIP3   OH251325   2.700   2.598   0.802 -0.4987 -0.0567  0.1524
 9945TIP3    H151326   2.751   2.555   0.870  1.1400  0.4872 -0.6834
 9945TIP3    H251327   2.741   2.684   0.791 -1.0596  0.0769 -1.1338
 9946TIP3   OH251328   0.928   6.579  12.766  0.2922 -0.2243  0.0717
 9946TIP3    H151329   0.848   6.631  12.762  0.0593 -0.6267 -1.8289
 9946TIP3    H251330   0.923   6.531  12.849 -1.1492  0.1949  0.2384
 9947TIP3   OH251331   4.701   3.382   0.484  0.4080  0.0523  0.0023
 9947TIP3    H151332   4.761   3.355   0.415 -0.0207 -0.2978 -0.2399
 9947TIP3    H251333   4.683   3.301   0.533  0.7316  0.3021  0.5463
 9948TIP3   OH251334   0.342   5.341  14.937  0.6169  0.0756 -0.0433
 9948TIP3    H151335   0.374   5.256  14.908  0.7872  0.2947 -0.5109
 9948TIP3    H251336   0.365   5.345  15.030  1.9820  0.2434 -0.3685
 9949TIP3   OH251337   3.966   4.286  16.732  0.1513 -0.2813 -0.4067
 9949TIP3    H151338   3.961   4.358  16.794  0.5737 -1.5859  1.1961
 9949TIP3    H251339   3.914   4.216  16.771  1.9609 -1.7862 -0.5665
 9950TIP3   OH251340   1.978   0.672  11.263 -0.4402  0.5198 -0.4359
 9950TIP3    H151341   1.910   0.734  11.237 -0.9974 -0.6021 -1.7936
 9950TIP3    H251342   2.021   0.647  11.181  1.6597  1.2032  0.3923
 9951TIP3   OH251343   3.203   6.107  16.518 -0.1609 -0.0793 -0.3743
 9951TIP3    H151344   3.155   6.185  16.492 -1.9533 -0.2369  2.1417
 9951TIP3    H251345   3.291   6.139  16.541 -1.0598  1.3895  1.2821
 9952TIP3   OH251346   1.476   1.780  16.675 -0.2016  0.2649 -0.2209
 9952TIP3    H151347   1.396   1.831  16.666 -0.7692 -0.2410  1.5444
 9952TIP3    H251348   1.452   1.707  16.732  1.3614 -0.2215 -0.1386
 9953TIP3   OH251349   0.669   4.347  13.820  0.1928 -0.0107  0.2777
 9953TIP3    H151350   0.666   4.440  13.795  0.2422 -0.2627 -0.7019
 9953TIP3    H251351   0.620   4.302  13.751 -0.2867 -0.6660  1.0203
 9954TIP3   OH251352   6.513   2.250  16.508 -0.0919  0.0562 -0.1987
 9954TIP3    H151353   6.524   2.296  16.424 -0.1709 -0.8828 -0.7277
 9954TIP3    H251354   6.561   2.168  16.497  0.3157  0.1408  0.8560
 9955TIP3   OH251355   5.168   0.674  16.117 -0.1637 -0.1464 -0.1320
 9955TIP3    H151356   5.106   0.613  16.076 -0.2169 -0.3280  0.2179
 9955TIP3    H251357   5.157   0.660  16.211  0.0479  0.1812 -0.0573
 9956TIP3   OH251358   5.664   3.938  15.919  0.4818  0.7333 -0.0856
 9956TIP3    H151359   5.631   4.027  15.922 -0.6259  0.3230  0.9411
 9956TIP3    H251360   5.724   3.932  15.993 -0.2816  0.3388  0.5168
 9957TIP3   OH251361   3.683   5.808   5.387  0.0874  0.7527 -0.0545
 9957TIP3    H151362   3.658   5.745   5.320  1.0770  0.0443  0.2132
 9957TIP3    H251363   3.665   5.893   5.349  0.3154  0.3505 -1.0940
 9958TIP3   OH251364   6.627   5.030   1.659 -0.4264 -0.3517 -0.3397
 9958TIP3    H151365   6.583   5.089   1.598  1.2044 -0.0640 -1.3066
 9958TIP3    H251366   6.693   5.085   1.703  0.2286 -1.1516 -0.2902
 9959TIP3   OH251367   0.086   2.229  11.971  0.0200  0.1597  0.3611
 9959TIP3    H151368   0.110   2.157  12.029  0.1096  1.3787  1.9107
 9959TIP3    H251369   0.094   2.193  11.883 -0.7043 -1.9379  1.1040
 9960TIP3   OH251370   0.064   6.769  12.275  0.3912  0.0776  0.0409
 9960TIP3    H151371   0.144   6.821  12.286 -0.5958  2.0592 -1.6035
 9960TIP3    H251372   0.026   6.765  12.363  1.4002  0.5674  0.5187
 9961TIP3   OH251373   1.282   4.482   3.367  0.4425 -0.3058 -0.1467
 9961TIP3    H151374   1.366   4.441   3.348 -0.4368 -2.0541 -0.4755
 9961TIP3    H251375   1.237   4.418   3.424 -0.6247  0.6336  0.0960
 9962TIP3   OH251376   4.488   3.329   5.141  0.2240 -0.0489 -0.1629
 9962TIP3    H151377   4.445   3.264   5.086  1.4123  0.6275 -1.9744
 9962TIP3    H251378   4.450   3.315   5.228  0.4971 -3.2339 -0.4148
 9963TIP3   OH251379   5.225   5.588  12.162  0.4137 -0.0757  0.3470
 9963TIP3    H151380   5.211   5.519  12.098  1.3513 -0.3097  0.3718
 9963TIP3    H251381   5.228   5.669  12.111 -1.1804  0.0197  0.3737
 9964TIP3   OH251382   4.677   0.561  14.461  0.6600 -0.2788 -0.0387
 9964TIP3    H151383   4.751   0.603  14.505  0.4915 -0.7926  0.7613
 9964TIP3    H251384   4.711   0.534  14.376  0.4284  2.6743 -1.2083
 9965TIP3   OH251385   2.979   0.746   4.019 -0.1712  0.2710 -0.4820
 9965TIP3    H151386   3.029   0.699   3.952 -2.3465  1.2130 -2.9440
 9965TIP3    H251387   2.894   0.702   4.020  0.2604 -0.7615  2.9793
 9966TIP3   OH251388   0.655   2.128   4.422 -0.1187  0.0538  0.0465
 9966TIP3    H151389   0.731   2.076   4.398  0.4036 -0.5329  2.6104
 9966TIP3    H251390   0.690   2.216   4.440 -0.1834  0.0259  0.3218
 9967TIP3   OH251391   1.921   3.850  16.313 -0.2927 -0.0600  0.0431
 9967TIP3    H151392   1.900   3.809  16.229 -0.7909  0.4085 -0.0636
 9967TIP3    H251393   1.943   3.777  16.370  0.5116 -0.3549 -0.6219
 9968TIP3   OH251394   3.751   0.553  14.617  0.0497 -0.4071 -0.0856
 9968TIP3    H151395   3.786   0.474  14.659  1.2320  1.2365  2.2091
 9968TIP3    H251396   3.665   0.565  14.656  0.9782  0.8843  1.7082
 9969TIP3   OH251397   5.400   4.834   4.723  0.3956  0.0499 -0.6410
 9969TIP3    H151398   5.494   4.824   4.712  0.3090 -1.1497 -0.4988
 9969TIP3    H251399   5.389   4.854   4.816  0.5374  0.6786 -0.7584
 9970TIP3   OH251400   6.329   0.487  13.408  0.0346  0.4365  0.0195
 9970TIP3    H151401   6.284   0.480  13.492  0.0782  3.1551  0.3482
 9970TIP3    H251402   6.403   0.426  13.416 -0.1356  0.4055  1.8190
 9971TIP3   OH251403   2.009   3.411  15.468  0.2372 -0.9164 -0.3883
 9971TIP3    H151404   1.947   3.484  15.478  0.4531 -0.6967 -0.6454
 9971TIP3    H251405   2.074   3.426  15.537  1.4101  0.2816 -1.6893
 9972TIP3   OH251406   0.123   2.371  14.973 -0.1431 -0.0972  0.3001
 9972TIP3    H151407   0.122   2.444  15.034  0.6741 -1.1761  1.6622
 9972TIP3    H251408   0.160   2.298  15.023 -0.6761 -1.3758 -1.0889
 9973TIP3   OH251409   2.606   3.595   5.444  0.0150 -0.2417  0.3765
 9973TIP3    H151410   2.535   3.546   5.485  0.1383 -0.5258  0.2528
 9973TIP3    H251411   2.657   3.529   5.397  2.6927 -0.8186  3.6548
 9974TIP3   OH251412   5.589   2.425  13.996  0.5494  0.0272 -0.5305
 9974TIP3    H151413   5.571   2.518  13.982  0.7768  0.1408 -0.1047
 9974TIP3    H251414   5.507   2.389  14.029  1.5846  1.0582  3.8549
 9975TIP3   OH251415   2.933   0.640   0.530  0.4546 -0.5113  0.3279
 9975TIP3    H151416   2.861   0.579   0.540 -0.7394  1.1069  2.2728
 9975TIP3    H251417   3.011   0.589   0.552 -0.3867 -1.5756  0.9002
 9976TIP3   OH251418   2.341   2.174   1.327 -0.1943  0.2235 -0.1020
 9976TIP3    H151419   2.277   2.175   1.398 -0.5908 -1.0779 -0.4261
 9976TIP3    H251420   2.381   2.087   1.332 -0.4469  0.0009 -1.6599
 9977TIP3   OH251421   2.058   2.993  14.821  0.1861 -0.0656 -0.4402
 9977TIP3    H151422   2.029   2.922  14.878 -0.2169  0.1106 -0.4222
 9977TIP3    H251423   2.005   3.068  14.847  1.5648  0.6432  0.4989
 9978TIP3   OH251424   3.975   0.329   1.577 -0.2350  0.4789  0.4291
 9978TIP3    H151425   3.984   0.247   1.626 -0.4323 -0.5902 -1.2634
 9978TIP3    H251426   3.886   0.326   1.541  0.2951  0.6986 -0.9308
 9979TIP3   OH251427   1.374   5.780   0.764  0.2578 -0.5291 -0.3796
 9979TIP3    H151428   1.294   5.735   0.736  0.2258  0.0347 -1.2312
 9979TIP3    H251429   1.431   5.778   0.687  0.4773  0.3841 -0.2519
 9980TIP3   OH251430   6.452   4.746  15.935 -0.2532  1.1014 -0.1445
 9980TIP3    H151431   6.413   4.732  15.849  1.8741 -1.2855 -0.8606
 9980TIP3    H251432   6.422   4.673  15.988  1.9444 -0.0118 -0.3043
 9981TIP3   OH251433   3.901   0.255   3.577  0.0259 -0.2011  0.6882
 9981TIP3    H151434   3.888   0.271   3.670 -0.4226 -0.0484  0.5991
 9981TIP3    H251435   3.898   0.342   3.537  2.9454  0.0825  0.8431
 9982TIP3   OH251436   5.265   6.446  14.987 -0.0612  0.6258 -0.3273
 9982TIP3    H151437   5.194   6.507  14.967 -0.2285  0.1786 -1.1439
 9982TIP3    H251438   5.227   6.386  15.051  0.0220  1.2178  0.2813
 9983TIP3   OH251439   2.198   1.402   2.798 -0.0755  0.7459  0.2981
 9983TIP3    H151440   2.203   1.342   2.724 -2.4870  1.5088 -0.5955
 9983TIP3    H251441   2.208   1.489   2.759  3.4878  1.0559  1.5817
 9984TIP3   OH251442   4.463   1.424  15.905 -0.1987 -0.4234  0.6065
 9984TIP3    H151443   4.401   1.421  15.978 -0.1341 -1.3189  0.6304
 9984TIP3    H251444   4.461   1.336  15.868  0.6928 -0.3207  0.2971
 9985TIP3   OH251445   1.992   2.193   3.628 -0.0209 -0.1358  0.0586
 9985TIP3    H151446   1.924   2.261   3.629  0.7130  0.6181  0.5535
 9985TIP3    H251447   1.959   2.125   3.686 -0.2199  0.3544  0.5247
 9986TIP3   OH251448   3.408   5.334  12.291  0.1547  0.0361  0.1507
 9986TIP3    H151449   3.497   5.359  12.315 -0.2212  1.2842  0.3088
 9986TIP3    H251450   3.355   5.411  12.312 -0.9439 -0.6482 -0.0504
 9987TIP3   OH251451   2.289   4.512   5.860 -0.7750 -0.2321  0.5901
 9987TIP3    H151452   2.372   4.533   5.818 -1.6809 -0.8365 -1.6403
 9987TIP3    H251453   2.290   4.562   5.941  1.6904 -0.1309  0.5531
 9988TIP3   OH251454   0.197   0.391  15.125  0.1933 -0.1364 -0.3290
 9988TIP3    H151455   0.214   0.475  15.084  1.4566 -0.6696 -0.9584
 9988TIP3    H251456   0.134   0.410  15.195  0.1542  1.2434 -0.7201
 9989TIP3   OH251457   6.719   3.841  15.424 -0.1138 -0.2581 -0.5803
 9989TIP3    H151458   6.761   3.772  15.476  2.6983  0.4395 -1.7653
 9989TIP3    H251459   6.687   3.904  15.489  1.3132 -0.4962  0.3834
 9990TIP3   OH251460   5.629   0.339   2.088 -0.1447 -0.3422 -0.2160
 9990TIP3    H151461   5.589   0.278   2.150  0.1883 -1.0474 -0.6888
 9990TIP3    H251462   5.716   0.304   2.072  0.2672  0.5856 -0.0457
 9991TIP3   OH251463   5.488   2.850   5.057  0.0354  0.0374  0.3854
 9991TIP3    H151464   5.499   2.757   5.078  1.5953 -0.4518 -2.1356
 9991TIP3    H251465   5.543   2.896   5.121  0.8131 -0.9575  0.4577
 9992TIP3   OH251466   2.493   6.245   1.456  0.4514  0.6007 -0.6091
 9992TIP3    H151467   2.543   6.204   1.385  2.0647  1.7693 -0.2138
 9992TIP3    H251468   2.530   6.333   1.462 -0.8064  1.0660  0.5954
 9993TIP3   OH251469   3.880   2.323   3.431 -0.0837 -0.5458 -0.4051
 9993TIP3    H151470   3.874   2.228   3.422  1.0176 -0.5461 -1.5324
 9993TIP3    H251471   3.937   2.336   3.507 -1.0156 -0.7497  0.3498
 9994TIP3   OH251472   6.313   6.555   3.588  0.3706 -0.2374 -0.4040
 9994TIP3    H151473   6.379   6.607   3.633 -1.0892  0.8532  0.5952
 9994TIP3    H251474   6.257   6.522   3.659 -1.1765  0.3455 -1.2919
 9995TIP3   OH251475   2.281   6.436  11.290 -0.1917  0.2401 -0.1077
 9995TIP3    H151476   2.245   6.489  11.220  2.3132 -0.6795 -2.2358
 9995TIP3    H251477   2.322   6.499  11.349 -1.2388  0.9263 -0.0748
 9996TIP3   OH251478   1.524   2.672  11.373  0.3806 -0.2545 -0.1595
 9996TIP3    H151479   1.482   2.683  11.459 -0.1143 -1.3804 -0.2443
 9996TIP3    H251480   1.618   2.678  11.391  0.2461  1.2807  0.1837
 9997TIP3   OH251481   3.050   6.276   2.805  0.1218  0.1452 -0.2662
 9997TIP3    H151482   3.111   6.340   2.769 -0.1378  1.4100  1.4624
 9997TIP3    H251483   2.999   6.324   2.870 -0.2634 -1.7481  0.9080
 9998TIP3   OH251484   3.796   2.178   1.733 -0.8079  0.2333 -0.2352
 9998TIP3    H151485   3.827   2.267   1.750  0.4744 -0.1494 -0.4590
 9998TIP3    H251486   3.701   2.184   1.743 -0.6718  1.4170  0.6763
 9999TIP3   OH251487   2.742   6.314   5.430  0.2391 -0.2909  0.0461
 9999TIP3    H151488   2.656   6.353   5.447  1.2598  1.9823  0.3244
 9999TIP3    H251489   2.724   6.243   5.368 -2.1165 -1.4533  1.9297
10000TIP3   OH251490   1.043   0.911  12.153 -0.0454 -0.3117 -0.5279
10000TIP3    H151491   0.965   0.915  12.099  0.5824  0.5737 -1.4124
10000TIP3    H251492   1.031   0.834  12.209 -1.3679 -0.3900 -0.8993
10001TIP3   OH251493   6.118   2.670  14.167 -0.0093  0.4897  0.6022
10001TIP3    H151494   6.161   2.735  14.111  1.3540  1.7575  2.9538
10001TIP3    H251495   6.097   2.718  14.247 -0.7456 -1.5275  1.6970
10002TIP3   OH251496   6.165   6.511   2.639  0.4745 -0.2573 -0.3737
10002TIP3    H151497   6.076   6.478   2.643  0.0994  0.6280 -1.1206
10002TIP3    H251498   6.156   6.602   2.611  1.6486 -0.4003 -1.3192
10003TIP3   OH251499   3.814   0.465   3.111 -0.2778 -0.6420 -0.1545
10003TIP3    H151500   3.858   0.411   3.046  2.2655 -0.9891  1.6712
10003TIP3    H251501   3.783   0.403   3.177  0.9882 -0.0965  1.0160
10004TIP3   OH251502   5.863   3.139  15.676  0.7786 -0.3686  0.0033
10004TIP3    H151503   5.815   3.082  15.737  0.2171  1.5638  1.4675
10004TIP3    H251504   5.940   3.166  15.725  1.3558 -0.3429 -0.9127
10005TIP3   OH251505   3.809   3.753  10.901 -0.3274 -0.5574 -0.1451
10005TIP3    H151506   3.827   3.756  10.995  1.3996 -1.7669 -0.3745
10005TIP3    H251507   3.857   3.676  10.871  1.3063  1.2196 -2.4463
10006TIP3   OH251508   3.508   0.432   4.688 -0.3635 -0.5362 -0.2856
10006TIP3    H151509   3.414   0.442   4.703 -0.7777 -2.9370 -0.9487
10006TIP3    H251510   3.519   0.443   4.594  0.1699  0.5197 -0.1170
10007TIP3   OH251511   0.548   5.228  11.882  0.2209  0.4802  0.1638
10007TIP3    H151512   0.540   5.323  11.888  0.1227  0.6063 -1.5889
10007TIP3    H251513   0.626   5.214  11.828  1.7465 -0.5059  2.4605
10008TIP3   OH251514   3.040   1.296   5.244  0.1116 -0.1846 -0.5064
10008TIP3    H151515   3.085   1.325   5.165  0.2631 -0.4816 -0.5315
10008TIP3    H251516   2.958   1.345   5.245  1.1260  1.5813  0.3759
10009TIP3   OH251517   4.954   1.296  14.889 -0.1945  0.5550 -0.0657
10009TIP3    H151518   4.929   1.363  14.825 -0.0794 -0.3298 -1.0603
10009TIP3    H251519   4.876   1.242  14.900  0.0189  0.2476 -0.0373
10010TIP3   OH251520   3.278   5.890   4.781  0.1170 -0.0679  0.6266
10010TIP3    H151521   3.327   5.968   4.753  0.6028 -0.7552 -0.4920
10010TIP3    H251522   3.319   5.818   4.734  0.3034 -1.1587  2.3739
10011TIP3   OH251523   3.981   4.461   1.628 -0.2339  0.6149 -0.1745
10011TIP3    H151524   3.889   4.449   1.654 -0.1614 -0.5008 -0.3867
10011TIP3    H251525   4.021   4.375   1.641  0.6956  0.9932 -0.4523
10012TIP3   OH251526   4.878   1.449   3.773  0.8697 -0.5907  0.0831
10012TIP3    H151527   4.865   1.479   3.683  1.5433 -2.3266 -0.6231
10012TIP3    H251528   4.886   1.354   3.766  0.3553 -0.8115  2.0557
10013TIP3   OH251529   6.203   2.221  17.207 -0.1731  0.0965  0.0006
10013TIP3    H151530   6.114   2.252  17.186 -0.1269 -0.7255 -1.5806
10013TIP3    H251531   6.255   2.246  17.131  0.8555  0.1180  0.6977
10014TIP3   OH251532   3.186   2.366   4.817  0.1005  0.2833 -0.1195
10014TIP3    H151533   3.202   2.410   4.901 -0.9846  0.6062 -0.0650
10014TIP3    H251534   3.206   2.432   4.751 -1.4304  0.8602 -0.0406
10015TIP3   OH251535   4.897   5.128   4.681  0.0215  0.4415 -0.0289
10015TIP3    H151536   4.803   5.113   4.671  0.1141 -0.9759  0.9662
10015TIP3    H251537   4.915   5.206   4.629 -1.2450 -0.7603 -2.4185
10016TIP3   OH251538   5.909   0.138  11.143 -0.0251 -0.6238 -0.0890
10016TIP3    H151539   5.930   0.223  11.103 -1.4024 -0.6840 -0.9998
10016TIP3    H251540   5.979   0.125  11.207  0.4488  1.0025 -0.2060
10017TIP3   OH251541   2.959   3.874   1.365 -0.0437 -0.4745 -0.2013
10017TIP3    H151542   3.015   3.796   1.365 -0.4936 -0.8055  0.0974
10017TIP3    H251543   2.993   3.928   1.294  1.2295 -0.2463  0.5360
10018TIP3   OH251544   1.975   2.447  16.140 -0.3601 -0.0690  0.4476
10018TIP3    H151545   2.054   2.420  16.187 -0.5993  1.5295  1.8544
10018TIP3    H251546   1.998   2.438  16.047  1.1041 -0.5964  0.8322
10019TIP3   OH251547   0.252   5.351   0.414 -0.8598 -0.2421  0.2739
10019TIP3    H151548   0.328   5.321   0.364 -1.6968 -0.5950 -0.8344
10019TIP3    H251549   0.242   5.443   0.389 -0.4999 -0.0502  0.8187
10020TIP3   OH251550   2.757   0.072  14.404 -0.2187 -0.1407  0.3204
10020TIP3    H151551   2.726   0.032  14.323  0.4824 -0.9929  0.4519
10020TIP3    H251552   2.853   0.068  14.397 -0.1509  0.1145  1.0265
10021TIP3   OH251553   4.210   6.668  14.916 -0.2048  0.2676 -0.3069
10021TIP3    H151554   4.171   6.644  14.832 -0.4158  2.0188 -0.7331
10021TIP3    H251555   4.246   6.755  14.902  1.2662 -0.0932  0.9475
10022TIP3   OH251556   2.081   4.600  11.195  0.5432 -0.4685 -0.3095
10022TIP3    H151557   2.019   4.645  11.253 -0.6237  0.6843 -2.3638
10022TIP3    H251558   2.127   4.539  11.253 -4.9666 -4.2180  0.9043
10023TIP3   OH251559   2.235   4.713  17.158  0.0100  0.7107 -0.3641
10023TIP3    H151560   2.311   4.770  17.142  0.5488 -0.4763 -2.3413
10023TIP3    H251561   2.169   4.772  17.195  1.8235  1.7967  1.3632
10024TIP3   OH251562   2.068   1.203  15.658  0.2121 -0.3415 -0.0566
10024TIP3    H151563   2.047   1.110  15.664 -0.1295 -0.1982  1.2351
10024TIP3    H251564   1.996   1.240  15.607 -1.5255 -0.2568  2.2905
10025TIP3   OH251565   4.818   3.919  13.999  0.0428  0.2377  0.0056
10025TIP3    H151566   4.723   3.922  13.992  0.0740  0.9745 -0.2133
10025TIP3    H251567   4.836   3.906  14.092 -0.2558  2.4315  0.4243
10026TIP3   OH251568   5.121   6.280   1.950 -0.2672  0.2224  0.5192
10026TIP3    H151569   5.087   6.213   2.010  1.1540 -0.4928  0.5692
10026TIP3    H251570   5.060   6.279   1.876  0.4603 -2.1575 -0.1422
10027TIP3   OH251571   1.581   5.378  12.043 -0.8881 -0.4816  0.2216
10027TIP3    H151572   1.619   5.315  11.981  0.8475  0.3346  0.4088
10027TIP3    H251573   1.634   5.457  12.033 -2.0736  0.4559  1.0725
10028TIP3   OH251574   0.765   5.144  12.508 -0.4644  0.5318 -0.5511
10028TIP3    H151575   0.675   5.113  12.494 -0.3320  0.9751 -2.8094
10028TIP3    H251576   0.799   5.089  12.579 -2.0183 -0.7045 -0.7118
10029TIP3   OH251577   5.229   3.316  16.758 -0.3692  0.3536  0.1507
10029TIP3    H151578   5.208   3.242  16.701  1.7726 -0.1845 -0.0373
10029TIP3    H251579   5.186   3.296  16.841 -1.1526 -0.2875 -0.4039
10030TIP3   OH251580   4.079   6.504   3.264  0.2672 -0.1622 -0.1596
10030TIP3    H151581   4.067   6.549   3.348  0.8999 -0.9571  0.3795
10030TIP3    H251582   4.002   6.527   3.212  0.8828  2.0886 -0.1727
10031TIP3   OH251583   2.570   4.775   1.338  0.7658 -0.0511 -0.4619
10031TIP3    H151584   2.495   4.833   1.322  2.4065  2.1826 -0.5818
10031TIP3    H251585   2.640   4.834   1.367  2.0229 -2.2479  1.2939
10032TIP3   OH251586   6.305   3.038   2.183 -0.1442  0.6720  0.5467
10032TIP3    H151587   6.335   3.022   2.272 -0.3654  2.2358  0.9364
10032TIP3    H251588   6.304   2.952   2.142  0.4703 -0.0047  1.8903
10033TIP3   OH251589   3.869   2.370  16.902 -0.1859  0.2495 -0.0778
10033TIP3    H151590   3.900   2.456  16.873  2.5792 -1.6483 -3.4952
10033TIP3    H251591   3.942   2.334  16.952 -0.9339 -0.5170  0.4870
10034TIP3   OH251592   6.670   2.325  16.260  0.3500 -0.0542  0.0471
10034TIP3    H151593   6.760   2.330  16.291  0.5959  0.1632 -0.6810
10034TIP3    H251594   6.651   2.411  16.224 -0.3867  0.1140  0.7942
10035TIP3   OH251595   4.700   4.504   4.279 -0.3205  0.3562  0.2250
10035TIP3    H151596   4.791   4.530   4.262 -0.3840  0.7108  0.4321
10035TIP3    H251597   4.707   4.441   4.351 -0.2955  0.8774  0.6829
10036TIP3   OH251598   2.637   3.548   1.618 -0.2082 -0.2334 -0.1737
10036TIP3    H151599   2.725   3.586   1.609 -1.2062  2.5084  0.5572
10036TIP3    H251600   2.652   3.462   1.658  2.0905  0.8805  1.6312
10037TIP3   OH251601   2.695   3.297  17.036  0.4912  0.0485 -0.3396
10037TIP3    H151602   2.718   3.371  17.093  1.9915  1.2398 -2.3794
10037TIP3    H251603   2.619   3.257  17.079 -0.5497  2.9111  0.7434
10038TIP3   OH251604   2.215   1.160  16.487 -0.1662  0.1617  0.4299
10038TIP3    H151605   2.297   1.174  16.533  0.0118 -1.1380  0.5274
10038TIP3    H251606   2.147   1.185  16.550  0.1337  1.6351  0.2052
10039TIP3   OH251607   3.989   4.891  15.916  0.2399 -0.1721 -0.2092
10039TIP3    H151608   4.082   4.881  15.934  0.1549 -0.1950  0.2464
10039TIP3    H251609   3.977   4.985  15.902  0.2680 -0.1124  0.1414
10040TIP3   OH251610   5.742   5.529  11.040  0.2614  0.2869 -0.2308
10040TIP3    H151611   5.754   5.437  11.016  1.5510  0.4076 -0.1232
10040TIP3    H251612   5.653   5.550  11.012 -0.2016 -1.1035  0.1140
10041TIP3   OH251613   6.739   5.276   0.092  0.1981 -0.0499 -0.3994
10041TIP3    H151614   6.805   5.312   0.032  0.3464  0.4263  0.0450
10041TIP3    H251615   6.778   5.286   0.179 -0.4351  0.1768 -0.1391
10042TIP3   OH251616   1.844   6.397   1.816  0.3711 -0.0237  0.1272
10042TIP3    H151617   1.843   6.492   1.806  0.5233 -0.0890 -0.6351
10042TIP3    H251618   1.767   6.377   1.868 -1.3056  0.3142 -2.0589
10043TIP3   OH251619   3.049   3.092   5.366 -0.2184 -0.1957  0.5615
10043TIP3    H151620   3.125   3.037   5.382 -0.5065 -0.9701 -0.6199
10043TIP3    H251621   3.061   3.167   5.424  1.6244 -0.1168  0.1267
10044TIP3   OH251622   5.620   4.354   5.465 -0.0650  0.2274  0.3788
10044TIP3    H151623   5.672   4.380   5.542  2.3045 -0.9041 -0.7313
10044TIP3    H251624   5.627   4.259   5.462 -1.7357  0.0983 -0.1916
10045TIP3   OH251625   4.002   0.638   1.738 -0.1711  0.0788 -0.0536
10045TIP3    H151626   4.063   0.583   1.788  0.8749  0.5478 -0.7752
10045TIP3    H251627   4.041   0.644   1.651 -1.7526 -0.3879 -0.8340
10046TIP3   OH251628   3.567   2.448   5.074  0.8919  0.0491 -0.2521
10046TIP3    H151629   3.629   2.520   5.070  1.0069  0.0001  0.5024
10046TIP3    H251630   3.538   2.436   4.983  1.9653  0.0726 -0.6104
10047TIP3   OH251631   1.664   3.807   0.969  0.3215  0.1135  0.4272
10047TIP3    H151632   1.727   3.779   1.035  0.7283 -1.1048 -0.4350
10047TIP3    H251633   1.645   3.898   0.990  1.9522  0.3387  1.0246
10048TIP3   OH251634   5.681   4.662  11.391  0.6253  0.0131  0.9130
10048TIP3    H151635   5.645   4.575  11.406  0.9644 -0.3708 -0.3692
10048TIP3    H251636   5.747   4.649  11.322  1.7509  1.0364  1.7495
10049TIP3   OH251637   1.225   4.544  16.942  0.1006 -0.5748  0.1537
10049TIP3    H151638   1.253   4.631  16.971 -0.4131  0.2856 -1.7692
10049TIP3    H251639   1.241   4.488  17.017 -0.0421  1.2709  1.6394
10050TIP3   OH251640   3.568   2.604  12.411  0.1629  0.0128  0.0941
10050TIP3    H151641   3.652   2.559  12.404 -0.8995 -2.1978  0.6926
10050TIP3    H251642   3.577   2.660  12.489  1.0855 -0.1634  0.1254
10051TIP3   OH251643   3.285   4.149  14.570 -0.4491  0.2414 -0.1275
10051TIP3    H151644   3.320   4.129  14.483  1.8145  0.3406  0.7206
10051TIP3    H251645   3.360   4.145  14.629 -1.5289  2.2872  1.5275
10052TIP3   OH251646   6.253   1.795  15.175  0.4128  0.8143  0.0804
10052TIP3    H151647   6.302   1.830  15.249  0.5491  0.2401  0.2661
10052TIP3    H251648   6.169   1.840  15.179 -0.2483 -0.4377  1.6445
10053TIP3   OH251649   3.041   1.232  17.053 -0.0914 -0.2265  0.4125
10053TIP3    H151650   3.111   1.280  17.097 -0.1350  1.8930 -1.6323
10053TIP3    H251651   3.085   1.158  17.012  0.5244 -0.2631  1.1206
10054TIP3   OH251652   6.659   6.746  17.005  0.1719 -0.2306  0.2090
10054TIP3    H151653   6.660   6.655  17.035 -0.3285 -0.9934 -1.9071
10054TIP3    H251654   6.568   6.773  17.014  0.6710  0.9307  3.0027
10055TIP3   OH251655   1.828   4.396   2.289  0.1455 -0.1585 -0.0954
10055TIP3    H151656   1.814   4.416   2.381  0.4987  2.1766 -0.5018
10055TIP3    H251657   1.741   4.376   2.255  0.0200 -1.0716  0.7211
10056TIP3   OH251658   6.053   5.511  12.604 -0.1253  0.0785 -0.8101
10056TIP3    H151659   5.990   5.445  12.576  0.1038 -1.1740  1.3942
10056TIP3    H251660   6.005   5.594  12.599 -0.2229 -0.0678 -4.2504
10057TIP3   OH251661   5.971   6.270   5.776 -0.3256  0.2255  0.0912
10057TIP3    H151662   6.014   6.283   5.861  0.0327 -0.9342  0.1041
10057TIP3    H251663   6.012   6.191   5.740 -2.9186 -1.3788  0.4043
10058TIP3   OH251664   2.195   4.608   1.935  0.7525 -0.1433  0.2044
10058TIP3    H151665   2.155   4.649   2.012 -1.2790  0.3921 -1.0673
10058TIP3    H251666   2.265   4.554   1.971 -1.8628 -2.1498  2.7623
10059TIP3   OH251667   1.852   6.699   3.267 -0.1557 -0.0785  0.4557
10059TIP3    H151668   1.926   6.674   3.322  0.0600 -2.2744 -0.7071
10059TIP3    H251669   1.801   6.760   3.321  2.2335  1.1751  1.4302
10060TIP3   OH251670   5.932   0.332   1.827  0.3355 -0.1772 -0.0995
10060TIP3    H151671   5.945   0.349   1.920  0.7405 -1.0632  0.0194
10060TIP3    H251672   5.935   0.236   1.819  2.0416 -0.0783 -1.2603
10061TIP3   OH251673   1.072   5.809   0.945 -0.0897  0.7222 -0.0366
10061TIP3    H151674   1.073   5.857   1.028  0.7336  0.1793  0.2904
10061TIP3    H251675   1.105   5.871   0.881 -0.2271  0.9835  0.1440
10062TIP3   OH251676   1.035   4.845  17.115 -0.1089 -0.0156 -0.3011
10062TIP3    H151677   1.118   4.798  17.128  1.4657  2.4803 -0.5798
10062TIP3    H251678   1.016   4.885  17.200 -0.9792 -0.4671 -0.2717
10063TIP3   OH251679   3.195   4.316  14.251 -0.1402 -0.2425  0.3976
10063TIP3    H151680   3.193   4.232  14.297 -2.1270 -0.1554  0.5844
10063TIP3    H251681   3.217   4.380  14.319  1.4107 -0.5862  0.2463
10064TIP3   OH251682   2.584   1.949   4.872 -0.3831  0.1563 -0.2603
10064TIP3    H151683   2.636   2.005   4.929  0.0075 -1.2841  0.8304
10064TIP3    H251684   2.551   1.879   4.928 -0.6386 -0.8791 -1.6252
10065TIP3   OH251685   1.297   2.333  13.607 -0.7045  0.6672 -0.0686
10065TIP3    H151686   1.375   2.326  13.552 -1.2859 -0.4378 -0.7714
10065TIP3    H251687   1.288   2.247  13.648 -0.9983  1.0914  0.7864
10066TIP3   OH251688   2.635   6.340   3.710  0.1798  0.5442  0.1527
10066TIP3    H151689   2.560   6.344   3.769 -0.7643 -0.0678 -0.9518
10066TIP3    H251690   2.709   6.368   3.763 -0.1755 -2.1855  2.3211
10067TIP3   OH251691   6.293   3.273   4.663 -0.7091  0.5277  0.1447
10067TIP3    H151692   6.241   3.326   4.602  1.3767  2.5037 -0.0846
10067TIP3    H251693   6.350   3.337   4.706 -0.0929 -1.2212  2.0437
10068TIP3   OH251694   6.692   4.685   4.836 -0.1595  0.0012  0.2791
10068TIP3    H151695   6.762   4.706   4.897  1.2818  0.2909 -1.3857
10068TIP3    H251696   6.653   4.604   4.870  1.2320 -0.3687  1.0521
10069TIP3   OH251697   4.325   4.557  15.632 -0.1306  0.1443 -0.1000
10069TIP3    H151698   4.268   4.582  15.559  2.1111 -0.2343 -2.1001
10069TIP3    H251699   4.284   4.479  15.669 -0.9008 -0.1578 -1.5214
10070TIP3   OH251700   2.334   3.063  14.827  0.1378  0.2842  0.1049
10070TIP3    H151701   2.239   3.076  14.834 -0.3259 -0.7571 -2.6798
10070TIP3    H251702   2.343   2.976  14.788  2.2201  0.6016 -0.2372
10071TIP3   OH251703   4.234   0.249   4.326 -0.0536  0.1124  0.0083
10071TIP3    H151704   4.259   0.157   4.315  1.3857  0.5575 -0.6855
10071TIP3    H251705   4.288   0.280   4.400 -1.5106  0.0717  1.1281
10072TIP3   OH251706   0.797   3.734   1.168 -0.2140 -0.4522 -0.0318
10072TIP3    H151707   0.851   3.668   1.212 -1.6213 -2.0210 -0.5837
10072TIP3    H251708   0.710   3.696   1.164 -1.3335  1.8804  0.5244
10073TIP3   OH251709   6.184   1.297   5.923  0.1983 -0.0522  0.5230
10073TIP3    H151710   6.095   1.299   5.957  0.2323 -2.4245  0.9147
10073TIP3    H251711   6.176   1.254   5.838  0.7513  1.4282 -0.3039
10074TIP3   OH251712   0.062   6.561  16.599 -0.4412 -0.1627  0.0989
10074TIP3    H151713   0.060   6.649  16.562  0.9301 -0.8380 -1.7767
10074TIP3    H251714  -0.029   6.542  16.622 -1.3635  0.4885 -2.6424
10075TIP3   OH251715   6.662   1.945   0.848 -0.5677  0.3438  0.5644
10075TIP3    H151716   6.734   2.008   0.856  0.2913 -0.7235  1.5958
10075TIP3    H251717   6.589   1.986   0.894 -0.7760  1.6178 -0.8252
10076TIP3   OH251718   3.109   4.550  15.423 -0.6637 -0.3867  0.2339
10076TIP3    H151719   3.179   4.512  15.371  0.1695  0.4162  0.7333
10076TIP3    H251720   3.101   4.640  15.390 -1.2672 -0.3840  0.3743
10077TIP3   OH251721   2.840   1.023   4.054  0.2012  0.0255  0.5144
10077TIP3    H151722   2.915   1.040   3.997  0.8065 -0.7332  1.0784
10077TIP3    H251723   2.764   1.043   3.999  0.8055  0.6343 -0.1147
10078TIP3   OH251724   2.082   1.092   3.158  0.1999  0.0928  0.7220
10078TIP3    H151725   2.072   1.160   3.225 -0.0175 -0.3531  1.1457
10078TIP3    H251726   2.158   1.119   3.107  0.1194  0.6511  0.8900
10079TIP3   OH251727   4.856   5.820   2.076 -0.0090  0.2787 -0.9022
10079TIP3    H151728   4.765   5.794   2.060 -0.0266  0.7018 -1.5181
10079TIP3    H251729   4.895   5.745   2.120 -0.7128  0.1756 -0.4317
10080TIP3   OH251730   2.171   5.185  12.417  0.0591 -0.8567  0.0365
10080TIP3    H151731   2.168   5.111  12.477 -0.8505  0.5358  1.8052
10080TIP3    H251732   2.141   5.260  12.469  1.9996  0.9956 -1.3355
10081TIP3   OH251733   1.841   1.390  17.136  0.2912  0.1823 -0.3006
10081TIP3    H151734   1.756   1.431  17.125  1.3659  2.4959 -0.6458
10081TIP3    H251735   1.855   1.342  17.055 -1.2421 -1.4455  0.3399
10082TIP3   OH251736   6.617   5.073  10.895  0.0882  0.4918  0.0450
10082TIP3    H151737   6.547   5.030  10.944 -1.2594  0.8098 -1.5363
10082TIP3    H251738   6.690   5.078  10.958 -1.1193 -0.2644  1.5827
10083TIP3   OH251739   5.597   6.065  11.446 -0.5332 -0.1953 -0.1243
10083TIP3    H151740   5.617   6.116  11.368 -0.2876 -1.3003 -0.7938
10083TIP3    H251741   5.680   6.026  11.471 -0.2865  1.2531  1.5421
10084TIP3   OH251742   4.669   0.011   5.480  0.1646  0.4112  0.4903
10084TIP3    H151743   4.654   0.044   5.568 -0.2236 -0.4605  0.7539
10084TIP3    H251744   4.748  -0.042   5.487  1.3327  1.9643 -0.1248
10085TIP3   OH251745   1.453   0.320  12.388 -0.4003 -0.0032 -0.2393
10085TIP3    H151746   1.391   0.252  12.361 -1.3554  0.6886  0.1396
10085TIP3    H251747   1.471   0.368  12.307  1.7946 -1.8289 -0.9309
10086TIP3   OH251748   5.472   2.568  16.336 -0.2726 -0.0372 -0.4714
10086TIP3    H151749   5.393   2.552  16.389 -1.2167 -2.6821 -2.4387
10086TIP3    H251750   5.444   2.548  16.247  2.7462 -1.5596 -1.1796
10087TIP3   OH251751   3.152   5.259   2.144 -0.0145 -0.1110  0.0427
10087TIP3    H151752   3.166   5.195   2.075  0.3991 -0.8705  0.8193
10087TIP3    H251753   3.122   5.208   2.219  2.5624  0.2429  1.4183
10088TIP3   OH251754   6.204   2.702   1.654 -0.0329 -0.7804 -0.1022
10088TIP3    H151755   6.123   2.743   1.682  0.8923  0.9001  0.2724
10088TIP3    H251756   6.185   2.668   1.566 -1.6451 -2.1244  0.7132
10089TIP3   OH251757   1.525   3.644   3.960  0.0759  0.1604  0.1611
10089TIP3    H151758   1.448   3.589   3.948 -0.2493  0.3441  1.3222
10089TIP3    H251759   1.587   3.611   3.894 -1.0425  0.1593 -0.9334
10090TIP3   OH251760   4.505   5.639   1.106 -0.3970  0.4217 -0.1281
10090TIP3    H151761   4.426   5.611   1.060  0.8758 -0.3739 -1.9662
10090TIP3    H251762   4.473   5.679   1.187 -2.5992 -1.0042 -0.2090
10091TIP3   OH251763   2.339   5.048  15.502  0.1526  0.0594  0.3849
10091TIP3    H151764   2.430   5.018  15.501  0.0249 -0.4058 -1.2157
10091TIP3    H251765   2.342   5.136  15.539  1.3963  0.3992 -0.4597
10092TIP3   OH251766   6.526   4.226   2.237 -0.0549 -0.4008  0.1629
10092TIP3    H151767   6.581   4.302   2.258 -0.1968 -0.1828 -0.2443
10092TIP3    H251768   6.581   4.150   2.258 -0.3620 -0.2140  1.7904
10093TIP3   OH251769   0.841   0.885   6.269  0.1470 -0.1167  0.5121
10093TIP3    H151770   0.750   0.860   6.253  0.5088 -1.5227  0.4735
10093TIP3    H251771   0.844   0.904   6.363 -0.2127  0.0775  0.4881
10094TIP3   OH251772   2.212   3.917  12.187  0.5392  0.9731 -0.0051
10094TIP3    H151773   2.145   3.939  12.121 -0.7638 -1.2265  0.4935
10094TIP3    H251774   2.276   3.864  12.140  0.5142  0.8384  0.1121
10095TIP3   OH251775   0.473   5.926  16.721  0.6171 -0.0002 -0.2129
10095TIP3    H151776   0.540   5.897  16.660 -0.1481 -0.5485 -0.8041
10095TIP3    H251777   0.391   5.918  16.673  0.0889  0.3709  0.6007
10096TIP3   OH251778   3.595   3.602   0.587 -0.4711 -0.3026  0.3750
10096TIP3    H151779   3.663   3.629   0.648  1.3403  0.7806 -1.9414
10096TIP3    H251780   3.586   3.676   0.527 -0.0038 -2.3261 -2.3932
10097TIP3   OH251781   4.339   3.373  15.604 -0.1395 -0.1231  0.0439
10097TIP3    H151782   4.265   3.367  15.543 -1.1666 -1.5725  1.3216
10097TIP3    H251783   4.329   3.458  15.646 -1.3961 -0.4824  0.5202
10098TIP3   OH251784   1.528   3.306   2.626 -0.3314  0.3188  0.2028
10098TIP3    H151785   1.510   3.374   2.560 -0.4317 -0.0481 -0.1522
10098TIP3    H251786   1.605   3.338   2.673 -1.4987  1.6163  1.3252
10099TIP3   OH251787   1.611   1.152   2.932  0.2057  0.2738 -0.4941
10099TIP3    H151788   1.620   1.236   2.886 -0.9261  0.2876 -0.7278
10099TIP3    H251789   1.585   1.176   3.021  1.0422  0.1975 -0.2184
10100TIP3   OH251790   1.565   1.435  10.902 -0.2215 -0.2194 -0.0462
10100TIP3    H151791   1.652   1.406  10.929  0.7509  1.5154 -1.1048
10100TIP3    H251792   1.582   1.492  10.826 -2.3695 -0.6012 -0.8733
10101TIP3   OH251793   3.506   2.090  17.274 -0.5107  0.0114 -0.3747
10101TIP3    H151794   3.508   2.011  17.328  0.9470 -0.4094 -0.9857
10101TIP3    H251795   3.570   2.148  17.315 -1.5634  0.9031  0.0635
10102TIP3   OH251796   3.136   4.729  12.233 -0.5939 -0.2153 -0.0229
10102TIP3    H151797   3.189   4.748  12.310 -0.7381  0.8363 -0.1723
10102TIP3    H251798   3.161   4.640  12.208  0.4399 -0.0630  0.4333
10103TIP3   OH251799   5.666   4.515  14.179 -0.9215  0.4234 -0.1132
10103TIP3    H151800   5.609   4.546  14.249  0.5997  0.6132  1.1155
10103TIP3    H251801   5.657   4.420  14.181 -0.1553  0.3427  1.0729
10104TIP3   OH251802   1.034   3.590   6.152  0.5761 -0.1066 -0.1338
10104TIP3    H151803   1.122   3.615   6.121 -0.0121  1.5563 -0.5546
10104TIP3    H251804   1.011   3.514   6.099  1.5630 -0.2787 -0.3444
10105TIP3   OH251805   1.161   4.276   3.823  0.3482  0.0045  0.3116
10105TIP3    H151806   1.171   4.250   3.914  3.2251  3.7050  1.2656
10105TIP3    H251807   1.067   4.280   3.809 -0.1733 -1.8435  2.6624
10106TIP3   OH251808   3.311   2.917   1.314 -0.1006 -0.0323  0.2914
10106TIP3    H151809   3.236   2.934   1.370  1.5209 -0.4022  2.7233
10106TIP3    H251810   3.317   2.821   1.312 -1.3166 -0.1321 -2.2899
10107TIP3   OH251811   6.405   1.945  12.697  0.3983  0.1824  0.1372
10107TIP3    H151812   6.356   1.875  12.741  1.8972 -0.6548  0.5556
10107TIP3    H251813   6.387   1.932  12.604 -0.9106  0.4795  0.3396
10108TIP3   OH251814   1.490   0.543  15.792 -0.4091 -0.1564 -0.1311
10108TIP3    H151815   1.501   0.452  15.820  1.3658  0.0162 -0.1255
10108TIP3    H251816   1.540   0.593  15.857 -1.0066  0.7803 -0.3865
10109TIP3   OH251817   1.233   6.794   4.755  0.1244 -0.4671 -0.5502
10109TIP3    H151818   1.315   6.746   4.740  1.1866 -0.1646  3.1919
10109TIP3    H251819   1.260   6.876   4.795 -1.9629  0.2612 -0.5165
10110TIP3   OH251820   4.864   4.605   5.130 -0.7864  0.0667 -0.7113
10110TIP3    H151821   4.770   4.606   5.113 -1.7824  0.1420  3.6660
10110TIP3    H251822   4.883   4.514   5.155  0.5124 -0.1017 -2.1774
10111TIP3   OH251823   6.721   2.276  15.567  0.0175 -0.0089  0.8431
10111TIP3    H151824   6.632   2.308  15.578  0.4093  1.5422 -0.1180
10111TIP3    H251825   6.759   2.334  15.500  2.3349  0.6587  2.6031
10112TIP3   OH251826   0.093   4.157   1.750  0.0466 -0.8213 -0.6706
10112TIP3    H151827   0.157   4.216   1.711  0.1062 -0.6289 -0.2912
10112TIP3    H251828   0.014   4.168   1.697 -0.5055  0.9347  0.4347
10113TIP3   OH251829   5.175   6.029  11.812  0.1860 -0.4616 -0.3330
10113TIP3    H151830   5.166   6.116  11.851  1.2259 -1.4516  2.3420
10113TIP3    H251831   5.259   6.032  11.765 -0.2677  0.2556 -1.1131
10114TIP3   OH251832   6.447   2.212   6.157 -0.1562  0.0245 -0.5018
10114TIP3    H151833   6.441   2.262   6.238  0.8889 -1.4802  0.5849
10114TIP3    H251834   6.427   2.274   6.088  0.5533  1.7800  0.8020
10115TIP3   OH251835   3.022   1.006  11.424  0.1185 -0.2037  0.4438
10115TIP3    H151836   3.102   0.972  11.383  0.2986 -1.3156  1.6501
10115TIP3    H251837   3.026   0.974  11.514 -1.3962  0.2311  0.6901
10116TIP3   OH251838   2.921   2.453  14.000 -0.6640  0.3112 -0.1443
10116TIP3    H151839   2.844   2.508  13.984 -1.1547 -0.4913 -0.5506
10116TIP3    H251840   2.905   2.412  14.084 -0.4541  0.5064 -0.0056
10117TIP3   OH251841   0.554   2.746  16.314  0.5723  0.3247 -0.1384
10117TIP3    H151842   0.537   2.839  16.332 -0.9444 -0.5751  4.0711
10117TIP3    H251843   0.508   2.729  16.232 -0.0829  2.9866 -0.4211
10118TIP3   OH251844   5.035   6.217  10.410  0.1102 -0.2860 -0.0488
10118TIP3    H151845   5.095   6.233  10.337  0.6276 -2.2605 -0.1266
10118TIP3    H251846   5.092   6.182  10.480 -0.7492 -0.9703  0.3298
10119TIP3   OH251847   2.477   0.742   0.334 -0.5306 -0.0183  0.7215
10119TIP3    H151848   2.553   0.774   0.381 -0.4832  0.5960  0.2450
10119TIP3    H251849   2.413   0.813   0.341 -1.1999 -0.6794  1.4394
10120TIP3   OH251850   1.017   3.778  13.427 -0.5660 -0.3341  0.2981
10120TIP3    H151851   0.938   3.830  13.412 -1.0150 -1.0008  0.3086
10120TIP3    H251852   1.040   3.743  13.341 -0.1224  0.0663  0.2463
10121TIP3   OH251853   1.790   3.004   1.040  0.3522 -0.3213 -0.2935
10121TIP3    H151854   1.738   2.924   1.029  0.2681 -0.2860 -0.1527
10121TIP3    H251855   1.823   3.000   1.129 -0.2724  0.1645 -0.0309
10122TIP3   OH251856   0.620   1.549   0.726  0.1567 -0.1325  0.2262
10122TIP3    H151857   0.712   1.527   0.714 -0.3823 -2.0742 -0.8140
10122TIP3    H251858   0.580   1.533   0.640 -1.3083 -0.2430  0.8989
10123TIP3   OH251859   2.317   1.915  16.862  0.2324 -0.2563  0.1088
10123TIP3    H151860   2.271   1.863  16.796  0.1730  0.7598 -0.6789
10123TIP3    H251861   2.392   1.952  16.815  0.0236  0.7136  0.5150
10124TIP3   OH251862   1.416   1.505  13.997  0.0505  0.2685 -0.1101
10124TIP3    H151863   1.348   1.563  14.031 -1.0832 -0.0272 -1.7861
10124TIP3    H251864   1.372   1.452  13.931  0.8887 -2.8562  1.6256
10125TIP3   OH251865   5.109   4.881   5.597 -0.1646  0.2798 -0.4433
10125TIP3    H151866   5.121   4.802   5.543 -0.3994 -1.9007  2.4608
10125TIP3    H251867   5.037   4.859   5.655 -0.0657  2.5995  0.6424
10126TIP3   OH251868   3.492   2.960   3.624 -0.1548 -0.1840  0.1220
10126TIP3    H151869   3.566   2.970   3.684  0.3504 -2.2681 -0.0778
10126TIP3    H251870   3.460   2.872   3.640 -2.8859  0.7861  0.4730
10127TIP3   OH251871   5.456   1.054  11.264 -0.1856 -0.2270 -0.1199
10127TIP3    H151872   5.418   1.111  11.197 -1.0558 -2.8223 -1.9631
10127TIP3    H251873   5.397   1.064  11.339 -0.6907  0.7948 -0.6301
10128TIP3   OH251874   1.991   1.999  12.525  0.4044  0.1311 -0.9365
10128TIP3    H151875   2.013   1.960  12.440  1.1646  0.2788 -0.8058
10128TIP3    H251876   1.937   2.075  12.502  1.8295  1.0535 -1.3954
10129TIP3   OH251877   3.963   3.370   3.325  0.0342 -0.0538 -0.7303
10129TIP3    H151878   4.007   3.440   3.372 -1.3631  0.5819 -0.2996
10129TIP3    H251879   3.889   3.413   3.281 -0.8617 -1.2427 -0.4455
10130TIP3   OH251880   0.031   3.813  11.826 -0.3237 -0.0085  0.5698
10130TIP3    H151881   0.066   3.728  11.854  1.5481  1.0278  1.6524
10130TIP3    H251882   0.076   3.832  11.744  1.6203  1.1720  1.7934
10131TIP3   OH251883   4.102   2.085   0.798  0.0054  0.4620 -0.2257
10131TIP3    H151884   4.064   2.048   0.718  2.8961 -2.1991 -0.5781
10131TIP3    H251885   4.169   2.146   0.768  0.8958 -0.3216  0.0963
10132TIP3   OH251886   4.818   0.243  16.549  0.0373 -0.0831 -1.2461
10132TIP3    H151887   4.756   0.304  16.509  1.0077  0.8773 -1.3333
10132TIP3    H251888   4.799   0.159  16.508 -2.6312 -0.3324  0.2644
10133TIP3   OH251889   2.390   6.604   1.271 -0.6362 -0.1850 -0.8718
10133TIP3    H151890   2.405   6.691   1.232 -0.3248 -0.5107 -1.4968
10133TIP3    H251891   2.358   6.623   1.360  0.3524  0.5663 -0.6556
10134TIP3   OH251892   1.894   3.462  16.302 -0.1925 -0.3560 -0.3363
10134TIP3    H151893   1.916   3.385  16.354  0.3269 -0.3264 -0.5147
10134TIP3    H251894   1.819   3.501  16.348  0.4664 -0.1434  0.5828
10135TIP3   OH251895   3.279   4.043  15.770 -0.4627  0.2949  0.1641
10135TIP3    H151896   3.322   4.127  15.755 -1.1499  0.6415  0.1154
10135TIP3    H251897   3.326   3.982  15.713  0.9210  0.3497  1.1966
10136TIP3   OH251898   0.634   0.494   5.647 -0.2336 -0.0076 -0.3586
10136TIP3    H151899   0.553   0.460   5.610 -0.4612  0.2121 -0.0611
10136TIP3    H251900   0.695   0.496   5.573 -0.7569  0.6519 -0.7785
10137TIP3   OH251901   0.375   3.342   1.178 -0.1775 -0.0877  0.1817
10137TIP3    H151902   0.280   3.328   1.184 -0.6557  2.6730  0.4842
10137TIP3    H251903   0.407   3.265   1.132 -2.3246 -1.8683  1.4241
10138TIP3   OH251904   6.388   0.061   5.795  0.1308  0.1678  0.2540
10138TIP3    H151905   6.431   0.134   5.838 -1.2409  0.7807  0.6246
10138TIP3    H251906   6.392   0.083   5.702 -0.7335  0.9815  0.4010
10139TIP3   OH251907   6.589   3.804  10.580 -0.4908  0.0527  0.3004
10139TIP3    H151908   6.566   3.712  10.592 -2.0093  0.3748  0.0869
10139TIP3    H251909   6.508   3.845  10.548  0.6049  1.1476 -1.2276
10140TIP3   OH251910   6.499   5.215  14.276  0.2996 -0.2472 -0.2543
10140TIP3    H151911   6.505   5.298  14.322 -2.6229 -0.4670  0.7336
10140TIP3    H251912   6.557   5.156  14.324  1.8323  0.9807 -0.5324
10141TIP3   OH251913   5.900   3.435  12.916 -0.0630 -0.9346  0.1084
10141TIP3    H151914   5.948   3.368  12.867  1.3985 -1.1275  1.7015
10141TIP3    H251915   5.846   3.479  12.851  1.6041 -1.3207 -1.5973
10142TIP3   OH251916   4.272   1.154  17.093 -0.6905  0.2392  0.6730
10142TIP3    H151917   4.336   1.083  17.080 -3.7923 -2.6606 -0.0849
10142TIP3    H251918   4.252   1.151  17.187 -0.4141  0.5488  0.7462
10143TIP3   OH251919   0.869   6.549   4.051 -0.2065  0.4267 -0.1580
10143TIP3    H151920   0.832   6.635   4.033  1.5971  1.2618 -0.0561
10143TIP3    H251921   0.911   6.524   3.969 -0.5729 -0.2995 -0.1350
10144TIP3   OH251922   2.796   3.113   6.626  0.0829 -0.7554  0.0725
10144TIP3    H151923   2.777   3.091   6.535 -0.3951 -1.1678  0.2695
10144TIP3    H251924   2.891   3.102   6.634  0.7431  2.6176 -1.2714
10145TIP3   OH251925   1.847   5.938   3.519 -0.8711  0.2939  0.4560
10145TIP3    H151926   1.855   5.931   3.614 -3.0842  0.8944  0.7357
10145TIP3    H251927   1.913   6.003   3.494 -0.2002  0.0657  1.5483
10146TIP3   OH251928   5.704   6.730  12.564  0.6282 -0.4152  0.0897
10146TIP3    H151929   5.793   6.752  12.535  0.1360 -1.0068 -2.0243
10146TIP3    H251930   5.716   6.657  12.624  1.5861 -0.4392 -0.1066
10147TIP3   OH251931   2.242   3.862  15.671 -0.2891 -0.8131 -0.6476
10147TIP3    H151932   2.182   3.807  15.621 -0.1218  0.0281 -1.8069
10147TIP3    H251933   2.238   3.947  15.628  2.5913 -1.0052 -1.4900
10148TIP3   OH251934   4.559   4.099  14.321  0.3503 -0.5734  0.5744
10148TIP3    H151935   4.498   4.031  14.350  2.4467 -2.3319  1.1432
10148TIP3    H251936   4.589   4.068  14.235  0.1770  0.4577  0.1323
10149TIP3   OH251937   3.021   2.382  13.248 -0.1780 -0.5334  0.3633
10149TIP3    H151938   2.958   2.397  13.318  0.0278 -0.7891  0.6029
10149TIP3    H251939   3.090   2.328  13.287 -0.4421 -1.3266 -0.2386
10150TIP3   OH251940   6.265   0.408   2.381 -0.1486 -0.2875  0.0540
10150TIP3    H151941   6.250   0.313   2.378  0.2663 -0.3354 -0.6512
10150TIP3    H251942   6.281   0.433   2.290  0.2289  0.3812  0.2981
10151TIP3   OH251943   2.077   0.521  11.991 -0.2366 -0.3354  0.0716
10151TIP3    H151944   2.150   0.495  12.047 -2.1108 -0.8015  2.4711
10151TIP3    H251945   2.023   0.442  11.985 -0.7880  0.1188 -1.2618
10152TIP3   OH251946   5.154   1.538  17.019 -0.3047  0.1638 -0.4394
10152TIP3    H151947   5.215   1.520  16.948 -0.3248 -1.0889 -0.1696
10152TIP3    H251948   5.068   1.538  16.977 -0.2539  0.2048 -0.5432
10153TIP3   OH251949   0.472   4.770   0.007  0.2782  0.4935  0.0525
10153TIP3    H151950   0.499   4.777   0.099  1.4605 -0.9964 -0.1395
10153TIP3    H251951   0.409   4.841  -0.005 -1.1304 -0.2473  2.4334
10154TIP3   OH251952   3.190   4.082   0.112 -0.0893  0.4179 -0.2209
10154TIP3    H151953   3.159   4.059   0.024  1.0491 -0.0273 -0.5212
10154TIP3    H251954   3.221   4.172   0.104 -0.8426  0.7042 -0.0312
10155TIP3   OH251955   6.215   4.413   0.944  0.0442  0.6411  0.2439
10155TIP3    H151956   6.162   4.366   0.880  1.6394 -1.3622  0.3118
10155TIP3    H251957   6.208   4.361   1.024 -1.1298  2.5741  1.4792
10156TIP3   OH251958   6.495   6.007  15.279  0.0831 -0.2977 -0.3739
10156TIP3    H151959   6.427   6.048  15.331  0.3246 -1.3323  0.8098
10156TIP3    H251960   6.577   6.038  15.317  0.2606 -0.6637 -0.4488
10157TIP3   OH251961   1.659   2.801   4.925 -0.2505 -0.2040 -0.1005
10157TIP3    H151962   1.660   2.825   5.018 -2.4049  2.3051 -0.6091
10157TIP3    H251963   1.579   2.750   4.915 -0.7000  0.6187 -0.7839
10158TIP3   OH251964   1.430   4.804  14.382  0.0913 -0.3246  0.1735
10158TIP3    H151965   1.411   4.827  14.473  0.3661  1.1213 -0.1094
10158TIP3    H251966   1.510   4.751  14.387  1.2233  1.3362  0.6631
10159TIP3   OH251967   5.091   5.032  15.821 -0.0516  0.3659 -0.6285
10159TIP3    H151968   5.166   5.038  15.880 -0.3277 -0.6571 -0.1621
10159TIP3    H251969   5.103   5.106  15.761 -0.0795  1.8092  1.0454
10160TIP3   OH251970   2.580   0.255  13.295 -0.3573 -0.0429 -0.8036
10160TIP3    H151971   2.632   0.202  13.235 -0.9262 -1.5974  0.0366
10160TIP3    H251972   2.514   0.195  13.330  0.5675  0.5077  2.1347
10161TIP3   OH251973   3.548   3.370  15.603 -0.3905 -0.5613  0.7332
10161TIP3    H151974   3.462   3.370  15.562 -0.4914  0.7075  0.9116
10161TIP3    H251975   3.593   3.446  15.566  0.2862 -0.6256  1.3874
10162TIP3   OH251976   3.407   4.061   3.683  0.0194 -0.6195  0.0725
10162TIP3    H151977   3.358   4.022   3.610  0.8937 -1.1716 -0.2359
10162TIP3    H251978   3.478   4.109   3.641  0.0110 -0.2025  0.5300
10163TIP3   OH251979   3.078   6.068  12.556  0.4048  0.2500  0.4011
10163TIP3    H151980   3.097   6.091  12.465 -1.2422 -0.5217 -0.1723
10163TIP3    H251981   3.057   6.151  12.598  0.2113  0.4922 -0.1701
10164TIP3   OH251982   2.032   2.327   0.930 -0.0299 -0.3210  0.0097
10164TIP3    H151983   1.949   2.363   0.961 -0.0335 -1.7325  1.8468
10164TIP3    H251984   2.097   2.392   0.955 -0.2796 -0.5058  1.1967
10165TIP3   OH251985   5.581   4.814   5.183 -0.3157 -0.4884  0.3825
10165TIP3    H151986   5.637   4.889   5.199  0.5990 -0.4255 -2.6023
10165TIP3    H251987   5.623   4.742   5.230 -0.9478  0.6480  2.8829
10166TIP3   OH251988   3.214   1.809  13.822  0.4302  0.0895  0.1117
10166TIP3    H151989   3.255   1.760  13.893 -0.3762 -0.6500  0.0795
10166TIP3    H251990   3.274   1.883  13.807  1.7577 -0.9514  0.0586
10167TIP3   OH251991   5.170   0.325  13.544  0.4313  0.2028 -0.4058
10167TIP3    H151992   5.166   0.282  13.629  0.5258  0.7615 -0.1151
10167TIP3    H251993   5.139   0.259  13.482 -0.0716 -0.0502  0.1145
10168TIP3   OH251994   2.767   4.485   0.085  0.3838  0.5500 -0.5036
10168TIP3    H151995   2.811   4.567   0.106 -0.3315  1.2725 -1.7056
10168TIP3    H251996   2.680   4.494   0.122  0.2570  0.3910 -0.7598
10169TIP3   OH251997   3.999   1.260   6.859 -0.1403  0.3534 -0.1264
10169TIP3    H151998   3.905   1.243   6.870  0.1510 -0.1905  1.8372
10169TIP3    H251999   4.025   1.202   6.788 -0.9345 -0.9788  0.6148
10170TIP3   OH252000   3.624   2.537  16.065 -0.5329  0.7907  0.2801
10170TIP3    H152001   3.587   2.478  16.130 -2.0075 -0.5401 -1.6456
10170TIP3    H252002   3.558   2.605  16.054 -1.2594 -0.0972 -1.2055
10171TIP3   OH252003   5.411   2.658  13.734 -0.1684  0.1606 -0.1531
10171TIP3    H152004   5.351   2.591  13.701  0.6692  0.5815 -2.7161
10171TIP3    H252005   5.492   2.611  13.750 -0.2992  0.1360  0.4701
10172TIP3   OH252006   6.521   0.295  13.657 -0.2470 -0.3763  0.1017
10172TIP3    H152007   6.435   0.254  13.646  0.7851 -1.9340 -3.5811
10172TIP3    H252008   6.551   0.313  13.568  2.2413  2.4551  1.3536
10173TIP3   OH252009   6.269   3.246   2.030  0.0602  0.5175 -0.2636
10173TIP3    H152010   6.269   3.173   2.092 -0.2987  1.0823  0.4167
10173TIP3    H252011   6.260   3.204   1.944  0.7421 -0.2835  0.0436
10174TIP3   OH252012   4.457   6.083   0.640  0.1660  0.1746 -0.2262
10174TIP3    H152013   4.423   6.095   0.551  1.3034 -1.3353 -0.9166
10174TIP3    H252014   4.432   5.993   0.663  2.9166 -0.7362 -0.4645
10175TIP3   OH252015   0.714   2.329  17.132 -0.0731 -0.2830 -0.3355
10175TIP3    H152016   0.730   2.279  17.212 -0.3240  0.5441  0.2559
10175TIP3    H252017   0.708   2.420  17.162  1.2497  0.2192 -1.4837
10176TIP3   OH252018   2.838   4.838   1.692  0.1077 -0.0522 -0.0739
10176TIP3    H152019   2.817   4.827   1.785  1.0136 -1.7389 -0.0276
10176TIP3    H252020   2.933   4.853   1.690 -0.1458  1.7861 -0.6465
10177TIP3   OH252021   1.328   1.559   0.530  0.3630  0.2342  0.3028
10177TIP3    H152022   1.358   1.579   0.441 -1.1612 -0.9556 -0.5429
10177TIP3    H252023   1.345   1.465   0.540 -2.0558 -0.2837  0.1326
10178TIP3   OH252024   6.730   3.271   4.247  0.4651 -0.3554  0.3945
10178TIP3    H152025   6.819   3.297   4.270  0.7681 -0.9283 -0.0903
10178TIP3    H252026   6.692   3.347   4.203  0.5139  0.0911  1.1103
10179TIP3   OH252027   4.554   0.446   2.631 -0.3294  0.0788 -0.0723
10179TIP3    H152028   4.555   0.385   2.705 -0.1051 -0.2381 -0.3312
10179TIP3    H252029   4.537   0.391   2.555 -0.6136  0.4097 -0.2504
10180TIP3   OH252030   3.448   4.557  12.052  0.7127  0.7560 -0.3725
10180TIP3    H152031   3.452   4.648  12.021  0.8613  0.4245 -1.3493
10180TIP3    H252032   3.361   4.549  12.092  0.9519  1.5114  0.3107
10181TIP3   OH252033   6.803   5.600  11.670 -0.2248 -0.2326  0.5800
10181TIP3    H152034   6.770   5.560  11.750 -0.7578 -0.7345  0.1120
10181TIP3    H252035   6.738   5.580  11.603  0.1441  0.2998  0.0439
10182TIP3   OH252036   3.557   4.872   4.566 -0.0724  0.5275  0.0327
10182TIP3    H152037   3.497   4.946   4.565 -1.6341 -0.6878 -0.0382
10182TIP3    H252038   3.619   4.892   4.637 -0.3557  1.9473 -0.0955
10183TIP3   OH252039   1.237   1.610  16.320  0.2181 -0.2518  0.4424
10183TIP3    H152040   1.249   1.679  16.256  0.5324  0.4044  1.1944
10183TIP3    H252041   1.217   1.532  16.268  0.5685  0.2409 -0.4509
10184TIP3   OH252042   0.140   2.386  13.007  0.1659 -0.0276  0.1462
10184TIP3    H152043   0.116   2.468  13.051 -0.4457 -0.5907  0.8952
10184TIP3    H252044   0.101   2.318  13.062 -1.3696 -0.7444 -1.7145
10185TIP3   OH252045   2.133   6.525  16.615 -0.3237  0.2153  0.1039
10185TIP3    H152046   2.103   6.616  16.614 -0.3120  0.2184 -0.4477
10185TIP3    H252047   2.081   6.482  16.547  1.1653  0.3137 -1.1493
10186TIP3   OH252048   0.111   4.522  13.022  0.4368 -0.0115 -0.3872
10186TIP3    H152049   0.138   4.512  12.931 -0.6491 -0.6385 -0.6585
10186TIP3    H252050   0.021   4.553  13.017  0.2646 -0.3428  0.4731
10187TIP3   OH252051   4.844   6.617   2.006  0.3966 -0.2678  0.1623
10187TIP3    H152052   4.763   6.667   2.021 -0.4530 -1.4525 -0.3218
10187TIP3    H252053   4.857   6.569   2.088 -0.4409 -1.5016 -0.4113
10188TIP3   OH252054   5.316   3.425  12.690  0.0528  0.9595 -0.3095
10188TIP3    H152055   5.295   3.445  12.781 -0.4034 -0.3155 -0.1109
10188TIP3    H252056   5.250   3.471  12.639 -0.3715  0.7753  0.0676
10189TIP3   OH252057   6.815   0.952   0.314 -0.2069  0.3442 -0.1272
10189TIP3    H152058   6.829   0.921   0.224  0.7110  2.0716 -0.6271
10189TIP3    H252059   6.726   0.925   0.335  0.3800 -2.2839 -0.5963
10190TIP3   OH252060   6.247   0.722   6.575  0.3977 -0.5217  0.2176
10190TIP3    H152061   6.193   0.700   6.498  0.1128 -1.1532  0.5907
10190TIP3    H252062   6.298   0.643   6.592  1.9530  0.2753 -0.5200
10191TIP3   OH252063   3.544   1.557   0.495 -0.6074 -0.5965 -0.0222
10191TIP3    H152064   3.634   1.569   0.467 -0.3029 -0.5199  0.9419
10191TIP3    H252065   3.543   1.472   0.539 -0.4627  0.3677  1.9475
10192TIP3   OH252066   4.784   5.382  12.918 -0.3029  1.1430  0.1648
10192TIP3    H152067   4.740   5.298  12.905  2.4089 -0.1070 -2.0112
10192TIP3    H252068   4.719   5.447  12.893 -1.9664 -0.3810  0.3300
10193TIP3   OH252069   5.984   3.222   6.353 -0.3122  0.6524 -0.5398
10193TIP3    H152070   6.034   3.262   6.282 -0.1326  2.2020  0.4131
10193TIP3    H252071   5.987   3.287   6.424  0.5772 -1.3220  1.3540
10194TIP3   OH252072   4.549   4.665   5.268  0.0088  0.0123  0.2018
10194TIP3    H152073   4.481   4.604   5.296 -0.3353  0.3256  0.0553
10194TIP3    H252074   4.592   4.622   5.195 -0.4086  0.0573 -0.0726
10195TIP3   OH252075   2.150   1.494  15.693 -0.1674  0.4757  0.3603
10195TIP3    H152076   2.058   1.521  15.694 -0.3381  0.0411 -0.9686
10195TIP3    H252077   2.148   1.400  15.676  0.5066  0.8197 -2.0721
10196TIP3   OH252078   6.500   0.455   0.015 -0.6291  0.5774  0.0373
10196TIP3    H152079   6.477   0.494   0.100 -1.0196  0.4151  0.0088
10196TIP3    H252080   6.435   0.490  -0.046 -1.3448 -0.5448  0.1239
10197TIP3   OH252081   2.253   4.021  16.003  0.0674 -0.2261 -0.3907
10197TIP3    H152082   2.308   3.961  15.954  0.2490  0.0376 -0.5101
10197TIP3    H252083   2.274   4.108  15.968 -1.7318 -0.2727 -1.7357
10198TIP3   OH252084   0.856   4.662   1.692 -0.5562  0.4700  0.2633
10198TIP3    H152085   0.812   4.726   1.636 -1.9101 -0.6092  0.0428
10198TIP3    H252086   0.788   4.599   1.714  0.5751 -0.5130  1.0660
10199TIP3   OH252087   4.982   2.243  11.279 -0.2554  0.9626  0.4800
10199TIP3    H152088   4.952   2.175  11.340 -1.3865  1.4118  0.4439
10199TIP3    H252089   4.941   2.220  11.195  0.2607  1.0711  0.1913
10200TIP3   OH252090   2.765   3.634   4.961 -0.1246  0.3104  0.0361
10200TIP3    H152091   2.816   3.570   5.009 -1.0302 -0.0662  0.5302
10200TIP3    H252092   2.827   3.675   4.900  0.9323  0.4494  1.1806
10201TIP3   OH252093   5.421   0.288   5.744  0.4647  0.4563 -0.2096
10201TIP3    H152094   5.367   0.211   5.760  0.8569 -0.4276 -2.7006
10201TIP3    H252095   5.510   0.258   5.758  0.6646  0.2159 -1.7752
10202TIP3   OH252096   3.480   1.426  13.781 -0.5592 -0.1148 -0.4846
10202TIP3    H152097   3.506   1.487  13.850 -0.8609 -0.5416  0.0078
10202TIP3    H252098   3.386   1.418  13.790 -0.6625  0.1617 -1.2323
10203TIP3   OH252099   1.926   4.884   0.480  0.5970 -0.0935  0.2321
10203TIP3    H152100   2.004   4.936   0.458  0.0907  1.8173  2.4754
10203TIP3    H252101   1.961   4.805   0.522  1.3489 -0.0912 -0.3708
10204TIP3   OH252102   4.662   0.330  13.476  0.9890  0.1354  0.2547
10204TIP3    H152103   4.634   0.416  13.509  0.7567 -0.1007  0.6819
10204TIP3    H252104   4.672   0.277  13.554 -1.0074 -0.8718 -0.1114
10205TIP3   OH252105   2.300   6.678  14.438  0.3242  0.0192  0.2474
10205TIP3    H152106   2.366   6.609  14.444  2.0991  1.6296  0.2274
10205TIP3    H252107   2.349   6.759  14.450 -1.2944  1.4367 -1.9683
10206TIP3   OH252108   1.453   4.235  12.684 -0.4137  0.2291 -0.5392
10206TIP3    H152109   1.373   4.279  12.654 -0.3364  1.2245  0.6488
10206TIP3    H252110   1.427   4.194  12.767 -0.0672 -0.7034 -0.8753
10207TIP3   OH252111   6.084   4.454  12.875 -0.3580  0.2243 -0.3234
10207TIP3    H152112   6.052   4.449  12.966 -0.7269  2.1166 -0.3004
10207TIP3    H252113   6.174   4.485  12.883 -0.1068 -0.4071 -0.5968
10208TIP3   OH252114   2.818   3.574  12.175  0.1252  0.7245 -0.3506
10208TIP3    H152115   2.725   3.557  12.190  0.1330  0.1847 -0.8872
10208TIP3    H252116   2.819   3.646  12.111  0.0858  1.2140  0.1898
10209TIP3   OH252117   2.986   0.615   2.107  0.0511 -0.1871 -0.3749
10209TIP3    H152118   3.071   0.588   2.073 -0.2185 -0.0506 -1.1805
10209TIP3    H252119   2.969   0.554   2.179  0.0589 -1.3348 -1.3108
10210TIP3   OH252120   3.865   5.967   0.243 -0.2262 -0.4058  0.1815
10210TIP3    H152121   3.946   5.926   0.274 -0.3401  0.1999  1.3430
10210TIP3    H252122   3.859   5.943   0.151  2.4014  1.2710 -0.5316
10211TIP3   OH252123   1.826   1.481  11.610 -0.2894  0.2031 -0.4227
10211TIP3    H152124   1.841   1.482  11.515 -1.0271 -1.0926 -0.5823
10211TIP3    H252125   1.888   1.417  11.643 -2.2810 -1.9160 -0.5262
10212TIP3   OH252126   0.159   2.425  14.323  0.3785  0.0135 -0.7048
10212TIP3    H152127   0.190   2.486  14.255 -0.4140  2.2948  0.8515
10212TIP3    H252128   0.238   2.403  14.372  0.6256  0.0500 -1.0731
10213TIP3   OH252129   5.415   0.062  12.914  0.3155 -0.2069  0.2319
10213TIP3    H152130   5.392   0.062  12.821  0.2083 -3.0411  0.1761
10213TIP3    H252131   5.506   0.035  12.917  0.1638 -0.6796  0.9635
10214TIP3   OH252132   5.040   6.369   4.308  0.6885 -0.4246 -0.1619
10214TIP3    H152133   4.951   6.399   4.289  0.5798 -1.0705 -0.6769
10214TIP3    H252134   5.065   6.418   4.387  0.2140  0.4162 -0.5261
10215TIP3   OH252135   5.863   2.013  13.644  0.4043 -0.4994  0.8775
10215TIP3    H152136   5.915   1.963  13.581  0.8954 -0.8971  1.5935
10215TIP3    H252137   5.871   1.965  13.726  1.6872  1.2379  1.8381
10216TIP3   OH252138   5.662   6.466   0.264 -0.5252  0.3942 -0.3662
10216TIP3    H152139   5.727   6.491   0.330  1.0563  0.5390 -1.8903
10216TIP3    H252140   5.598   6.537   0.265 -0.2164  0.6785  0.5817
10217TIP3   OH252141   2.838   4.753   5.305  0.1273  0.5965  0.0425
10217TIP3    H152142   2.845   4.848   5.309 -2.3113  0.8161  0.6222
10217TIP3    H252143   2.743   4.736   5.301  0.5262 -1.7404 -1.8711
10218TIP3   OH252144   1.546   0.816   5.904 -0.4536  1.1689  0.1111
10218TIP3    H152145   1.523   0.866   5.826  2.1034  0.0891 -1.4836
10218TIP3    H252146   1.640   0.831   5.915  0.1188 -1.9790  0.4309
10219TIP3   OH252147   6.135   5.246  16.706  0.3078 -0.0811 -0.1101
10219TIP3    H152148   6.196   5.181  16.669  0.5215  0.6744 -1.1173
10219TIP3    H252149   6.168   5.330  16.674 -0.8257  0.3966 -0.0408
10220TIP3   OH252150   6.068   5.564   5.033 -0.1824 -0.0814  0.4625
10220TIP3    H152151   6.095   5.512   5.108  1.3324  0.0541  0.0440
10220TIP3    H252152   6.081   5.506   4.958 -1.0820  0.0015  0.2238
10221TIP3   OH252153   0.826   6.672  14.016  0.3343 -0.3473 -0.3118
10221TIP3    H152154   0.734   6.645  14.016  0.2212 -0.1006 -2.0146
10221TIP3    H252155   0.873   6.596  13.983  0.7286 -0.4150  0.3944
10222TIP3   OH252156   2.152   3.560  16.253 -0.1304 -0.3108 -0.0597
10222TIP3    H152157   2.193   3.619  16.316  2.3016 -2.5438  0.6176
10222TIP3    H252158   2.063   3.548  16.287 -0.5828  2.5147 -0.0049
10223TIP3   OH252159   3.301   1.347  16.861 -0.3212  0.3739  0.2306
10223TIP3    H152160   3.347   1.430  16.875 -1.1696  0.8559  0.1973
10223TIP3    H252161   3.318   1.297  16.941  3.2065 -0.9259 -1.1216
10224TIP3   OH252162   1.460   1.800   1.229 -0.5925 -0.6165 -0.3148
10224TIP3    H152163   1.491   1.796   1.320 -1.8562  2.0069  0.3329
10224TIP3    H252164   1.536   1.827   1.179 -0.0557 -1.4067  0.0551
10225TIP3   OH252165   5.821   0.246  16.435  0.0723  0.0016  0.2063
10225TIP3    H152166   5.886   0.178  16.416 -0.9098 -1.4705  1.8936
10225TIP3    H252167   5.743   0.220  16.385  0.0949  0.6499 -0.1900
10226TIP3   OH252168   4.021   1.125   1.055 -0.3663  0.1367  0.3605
10226TIP3    H152169   4.088   1.079   1.005  0.2682  0.0897  1.2330
10226TIP3    H252170   3.949   1.062   1.062 -0.8334  0.4526 -1.2253
10227TIP3   OH252171   1.195   6.562  11.423 -0.3711 -1.0185 -0.2646
10227TIP3    H152172   1.202   6.501  11.497 -2.9763 -0.6111  0.4229
10227TIP3    H252173   1.273   6.617  11.431  0.5517 -2.4007  0.8316
10228TIP3   OH252174   1.936   6.194  13.867 -0.4265  0.4485  0.0582
10228TIP3    H152175   1.886   6.270  13.837  1.0078  2.0157  1.4505
10228TIP3    H252176   1.923   6.192  13.961 -0.5507 -1.1725  0.0398
10229TIP3   OH252177   0.625   4.174   5.540 -0.4958  0.2914 -0.5481
10229TIP3    H152178   0.628   4.125   5.622 -3.7113  0.1795 -0.3883
10229TIP3    H252179   0.550   4.233   5.549 -0.4781  0.8394 -3.1248
10230TIP3   OH252180   3.609   5.171   1.165  0.0581  0.0753 -0.7408
10230TIP3    H152181   3.679   5.180   1.230 -1.0050 -1.1849  0.6578
10230TIP3    H252182   3.648   5.121   1.094  1.2743  1.5579 -1.1604
10231TIP3   OH252183   1.864   4.799   0.787  0.1474  0.6225 -0.6076
10231TIP3    H152184   1.801   4.777   0.856  0.6557 -0.3533 -0.4440
10231TIP3    H252185   1.939   4.836   0.834 -0.1579  1.4684 -0.7745
10232TIP3   OH252186   0.157   5.310  12.256  0.0766 -0.0125 -0.4310
10232TIP3    H152187   0.089   5.333  12.193 -0.7082 -2.0151 -0.3850
10232TIP3    H252188   0.230   5.279  12.202  0.2621  0.3801 -0.4113
10233TIP3   OH252189   0.010   4.071   4.841 -0.6358  0.1638 -0.0640
10233TIP3    H152190   0.073   4.113   4.784 -1.7623  0.2651 -1.2892
10233TIP3    H252191   0.005   3.981   4.809  0.9329 -0.6599  1.8279
10234TIP3   OH252192   2.505   2.364  10.424 -0.4775  0.2654  0.3256
10234TIP3    H152193   2.505   2.451  10.464 -2.4415  1.1202 -1.3612
10234TIP3    H252194   2.537   2.378  10.336 -3.3235 -0.1350 -0.8921
10235TIP3   OH252195   0.378   1.447  14.679 -0.6242 -0.0521  0.5718
10235TIP3    H152196   0.301   1.392  14.695 -0.1319 -0.5023  1.4467
10235TIP3    H252197   0.403   1.426  14.589 -1.2277 -0.2662  0.4441
10236TIP3   OH252198   6.790   6.778   5.572 -0.1226 -0.6536 -0.4699
10236TIP3    H152199   6.866   6.836   5.579 -0.6855  0.0523 -0.0637
10236TIP3    H252200   6.729   6.825   5.515 -0.4704 -0.9784 -0.3700
10237TIP3   OH252201   0.761   5.123  16.574 -0.0844 -0.8270 -0.2511
10237TIP3    H152202   0.728   5.080  16.653 -0.9805  0.0106 -0.1505
10237TIP3    H252203   0.779   5.213  16.601 -3.2715  0.3562 -1.6317
10238TIP3   OH252204   2.332   6.638  13.458  0.5970 -0.0116 -0.8727
10238TIP3    H152205   2.417   6.594  13.444  0.8655  0.8871 -2.2127
10238TIP3    H252206   2.332   6.660  13.551  2.2471  0.7709 -1.0228
10239TIP3   OH252207   2.984   5.193   4.639 -0.6771  0.3833  0.6871
10239TIP3    H152208   2.974   5.217   4.547  0.1030  0.5659  0.6394
10239TIP3    H252209   3.021   5.271   4.681 -0.7233  0.1958  1.0887
10240TIP3   OH252210   0.768   2.822  16.828 -0.6313  0.4911 -0.7558
10240TIP3    H152211   0.720   2.879  16.767  0.7005  0.0604 -2.2600
10240TIP3    H252212   0.859   2.850  16.820 -0.3326 -0.0559  0.5379
10241TIP3   OH252213   2.840   3.766  10.726  0.0969  0.0302 -0.1929
10241TIP3    H152214   2.902   3.739  10.794 -0.7861  1.5929  1.3148
10241TIP3    H252215   2.762   3.794  10.775 -0.4623  1.5200 -1.8509
10242TIP3   OH252216   5.329   3.605  12.052 -0.1183 -0.7594  0.7309
10242TIP3    H152217   5.328   3.654  12.134 -3.6084 -0.1639  0.4635
10242TIP3    H252218   5.294   3.519  12.074 -0.0191 -0.9756  0.0712
10243TIP3   OH252219   2.881   5.193   1.686 -0.1595 -0.2326  0.1201
10243TIP3    H152220   2.950   5.254   1.658  0.7199 -0.7456  1.0978
10243TIP3    H252221   2.814   5.202   1.619 -0.3553  2.2794  0.5251
10244TIP3   OH252222   0.067   1.817  16.437 -0.1249 -0.1835  0.1481
10244TIP3    H152223  -0.013   1.870  16.439  0.4371  0.7072 -0.5307
10244TIP3    H252224   0.138   1.879  16.451  0.5808 -0.6950 -1.0293
10245TIP3   OH252225   1.070   1.664   1.766  0.5158  0.5337 -0.5944
10245TIP3    H152226   1.066   1.745   1.818  1.0393 -0.8400  1.7530
10245TIP3    H252227   1.163   1.642   1.764  0.5341  0.6521 -2.3781
10246TIP3   OH252228   4.942   3.640  12.823  0.4869 -0.1602 -0.2362
10246TIP3    H152229   5.021   3.688  12.847 -1.5845  3.5091 -0.1583
10246TIP3    H252230   4.904   3.612  12.906  1.2031 -1.2032 -0.2361
10247TIP3   OH252231   4.852   3.217  15.313  0.7406  0.2011  0.3582
10247TIP3    H152232   4.915   3.274  15.357  0.4656  1.0615 -0.3361
10247TIP3    H252233   4.902   3.175  15.242  0.8263 -0.0642  0.5733
10248TIP3   OH252234   0.741   1.726   4.641 -0.5746 -0.8146  0.1875
10248TIP3    H152235   0.823   1.677   4.631  0.5121  0.9214  0.1471
10248TIP3    H252236   0.735   1.743   4.735 -0.4407 -0.2348  0.0949
10249TIP3   OH252237   3.615   2.330   3.091  0.3449 -0.1997  0.3472
10249TIP3    H152238   3.594   2.279   3.169  0.1729  0.8812  1.0383
10249TIP3    H252239   3.695   2.378   3.115  0.5682 -0.2245 -0.3265
10250TIP3   OH252240   2.377   3.718  11.495  0.4111  0.1273 -0.6849
10250TIP3    H152241   2.393   3.810  11.513  0.9920 -0.5061  2.6794
10250TIP3    H252242   2.462   3.676  11.508 -0.8227 -1.5415  4.1332
10251TIP3   OH252243   5.219   0.572  13.497 -0.0470  0.0376  0.5265
10251TIP3    H152244   5.211   0.478  13.512 -1.1652  0.0918  0.3755
10251TIP3    H252245   5.135   0.597  13.458  0.6204  0.9189 -0.4003
10252TIP3   OH252246   5.353   2.791   4.543  0.3582  0.4188  0.0467
10252TIP3    H152247   5.404   2.866   4.512  0.6954 -0.0445 -0.5396
10252TIP3    H252248   5.360   2.795   4.639  1.3542  0.4643 -0.0170
10253TIP3   OH252249   2.439   2.155  15.041 -0.1737  0.1406 -0.3153
10253TIP3    H152250   2.461   2.087  15.104  1.1349  0.0986 -0.7852
10253TIP3    H252251   2.477   2.235  15.078  0.4229  0.1524 -0.9356
10254TIP3   OH252252   1.155   6.087  14.194 -0.2253 -0.4131 -0.7441
10254TIP3    H152253   1.239   6.054  14.162  1.4326  2.9143 -0.3042
10254TIP3    H252254   1.170   6.106  14.286 -1.4843  0.1882 -0.6378
10255TIP3   OH252255   4.510   2.871   2.275 -0.7668  0.1104 -0.8529
10255TIP3    H152256   4.464   2.843   2.196 -0.0689 -0.0260 -1.2247
10255TIP3    H252257   4.483   2.809   2.343 -2.3891  1.0027 -0.6333
10256TIP3   OH252258   2.207   3.766   2.892 -0.1537 -0.2967  0.2136
10256TIP3    H152259   2.204   3.782   2.986  0.5108 -0.2725  0.2403
10256TIP3    H252260   2.127   3.805   2.858 -0.3243 -0.1714  0.7477
10257TIP3   OH252261   5.332   2.318  13.882 -0.0377  0.7705  1.0597
10257TIP3    H152262   5.333   2.320  13.978  0.6196 -0.4162  1.1055
10257TIP3    H252263   5.336   2.225  13.861 -0.4144  1.0089 -0.1322
10258TIP3   OH252264   2.702   5.028  13.355 -0.0141  0.4861  0.0712
10258TIP3    H152265   2.751   4.964  13.303 -0.5540  1.9529 -2.3583
10258TIP3    H252266   2.759   5.105  13.358 -1.2702  1.5166 -1.1007
10259TIP3   OH252267   0.151   5.944   5.893 -0.0012  0.2769  0.0129
10259TIP3    H152268   0.070   5.971   5.937  0.6429  0.2416  1.2822
10259TIP3    H252269   0.220   5.995   5.937  0.8606 -0.9955  0.2005
10260TIP3   OH252270   4.507   2.446   5.677 -0.5820 -0.5732  0.5862
10260TIP3    H152271   4.592   2.489   5.675 -0.8970  0.0833  0.7526
10260TIP3    H252272   4.445   2.517   5.699 -1.0814 -1.1672  1.1482
10261TIP3   OH252273   5.315   3.863  15.896  0.3835  0.1992  0.2147
10261TIP3    H152274   5.377   3.790  15.897  2.0365  1.5314  0.4481
10261TIP3    H252275   5.351   3.924  15.831 -0.1356  1.4610  1.0654
10262TIP3   OH252276   0.233   4.775  12.617  0.4917  0.6033  0.1397
10262TIP3    H152277   0.236   4.791  12.522 -0.2675  0.0709  0.0094
10262TIP3    H252278   0.151   4.816  12.645 -0.0508 -0.5143  0.2812
10263TIP3   OH252279   0.113   4.454   4.638 -0.2839 -0.0133 -0.1604
10263TIP3    H152280   0.110   4.460   4.733 -1.4711 -2.9123  0.1010
10263TIP3    H252281   0.026   4.422   4.614 -0.2106  1.2091 -2.3176
10264TIP3   OH252282   6.037   0.412   3.976  0.0832 -0.2985  0.4402
10264TIP3    H152283   6.033   0.374   4.064 -1.6265  0.0501  0.5320
10264TIP3    H252284   6.020   0.338   3.917  0.6996 -0.4237  0.4056
10265TIP3   OH252285   6.002   0.370  13.798  0.0008 -0.2830 -0.0356
10265TIP3    H152286   5.914   0.365  13.759  0.3770 -0.0682 -0.9362
10265TIP3    H252287   5.995   0.319  13.879 -1.0598  0.0592  0.1036
10266TIP3   OH252288   6.095   4.230  14.568 -0.0430  0.3262 -0.9521
10266TIP3    H152289   6.117   4.173  14.495  1.9060 -1.0304  0.5820
10266TIP3    H252290   6.004   4.208  14.590  0.5470 -2.0113 -0.6308
10267TIP3   OH252291   3.149   2.724   0.935 -0.4096 -0.4513 -0.7230
10267TIP3    H152292   3.118   2.757   1.019  1.1481  0.1633 -0.3577
10267TIP3    H252293   3.166   2.631   0.950  0.5240 -0.1982 -0.1429
10268TIP3   OH252294   5.958   0.916  14.714  0.3615  0.5585 -0.1091
10268TIP3    H152295   6.012   0.859  14.768  2.4849  0.4619 -2.1543
10268TIP3    H252296   5.871   0.877  14.716  0.9207 -0.6904  1.3740
10269TIP3   OH252297   4.642   1.211   5.127 -0.6882  0.3928  0.5219
10269TIP3    H152298   4.654   1.142   5.061 -0.1460  1.5231 -0.5950
10269TIP3    H252299   4.624   1.163   5.208 -0.1083 -1.0746 -0.1773
10270TIP3   OH252300   4.163   5.784   1.200 -0.1675 -0.0589  0.0531
10270TIP3    H152301   4.154   5.732   1.120 -0.6669 -1.8749  1.2095
10270TIP3    H252302   4.140   5.723   1.270  1.0238  1.2416  1.6470
10271TIP3   OH252303   5.878   0.624  15.228 -0.0892  0.5085 -0.1866
10271TIP3    H152304   5.961   0.624  15.276 -0.9104  0.3604  1.3058
10271TIP3    H252305   5.858   0.531  15.216 -0.5457  0.5182  0.4225
10272TIP3   OH252306   2.199   4.249  15.061  0.3520 -0.0515 -0.1553
10272TIP3    H152307   2.119   4.222  15.015 -0.3284 -1.9674  1.9432
10272TIP3    H252308   2.169   4.281  15.145  1.6832  1.6727 -0.2692
10273TIP3   OH252309   4.661   4.189  16.397 -0.2004  0.3601 -0.0095
10273TIP3    H152310   4.600   4.129  16.352 -0.5111  0.1722  0.6468
10273TIP3    H252311   4.724   4.131  16.440 -0.8665  0.4648  1.1421
10274TIP3   OH252312   3.981   6.432  15.157 -0.3886  0.2930  0.1757
10274TIP3    H152313   3.990   6.446  15.251  0.2662  0.9880  0.0245
10274TIP3    H252314   3.892   6.397  15.146 -0.2554 -0.3666  1.0983
10275TIP3   OH252315   4.373   3.265  15.871  0.0102  0.3807 -0.0000
10275TIP3    H152316   4.349   3.291  15.783 -0.0518  1.6744  0.3736
10275TIP3    H252317   4.440   3.328  15.898 -0.0873  0.1127  0.9313
10276TIP3   OH252318   0.289   1.052   2.281  0.4651 -0.0354 -0.0973
10276TIP3    H152319   0.297   1.041   2.186 -0.2846  1.4040 -0.3433
10276TIP3    H252320   0.375   1.084   2.309  0.8857 -1.0386 -0.1689
10277TIP3   OH252321   3.492   4.596  12.567 -0.0057  0.1525  0.4690
10277TIP3    H152322   3.474   4.538  12.640  1.1379 -0.3118  0.4099
10277TIP3    H252323   3.588   4.607  12.568 -0.0777  1.0228 -0.2843
10278TIP3   OH252324   6.259   5.831   2.972 -0.1222  0.0336 -0.1839
10278TIP3    H152325   6.348   5.867   2.972 -0.2366  0.4042 -1.9146
10278TIP3    H252326   6.265   5.752   2.918 -0.8583  0.1173 -0.3998
10279TIP3   OH252327   5.069   2.267   1.951 -0.2686  0.0962 -0.1933
10279TIP3    H152328   5.023   2.211   2.014 -1.8420  0.0628 -1.3259
10279TIP3    H252329   5.072   2.353   1.993  1.7178 -0.6373  1.3401
10280TIP3   OH252330   4.963   5.101  12.003  0.4694  0.2653  0.3250
10280TIP3    H152331   5.001   5.081  12.089  1.0294  1.4317  0.3667
10280TIP3    H252332   4.869   5.102  12.018  0.5402  0.0030  0.8145
10281TIP3   OH252333   0.173   0.875   1.677 -0.2154 -0.6833  0.5261
10281TIP3    H152334   0.194   0.828   1.759 -1.3783  1.1327  1.9337
10281TIP3    H252335   0.259   0.903   1.644  0.2913 -1.6406  0.9674
10282TIP3   OH252336   3.634   2.781   3.935  0.0808 -0.0356 -0.3040
10282TIP3    H152337   3.577   2.848   3.971 -0.9626 -0.9676 -0.1765
10282TIP3    H252338   3.647   2.719   4.007 -0.9002 -1.1945 -1.0833
10283TIP3   OH252339   1.959   5.539   2.859  0.3384 -0.5062 -0.3474
10283TIP3    H152340   1.893   5.472   2.871  0.6077 -0.9098 -1.0919
10283TIP3    H252341   1.911   5.615   2.825 -0.5586  0.8589  3.3816
10284TIP3   OH252342   1.016   1.979  15.697 -0.0053  0.4517 -0.3117
10284TIP3    H152343   1.111   1.981  15.684  0.1309  1.5980  0.6978
10284TIP3    H252344   0.981   2.026  15.621  0.3847  1.7885  0.3028
10285TIP3   OH252345   3.415   2.185   0.627  0.2589  0.0043 -0.2373
10285TIP3    H152346   3.489   2.244   0.641  0.5834 -0.4666  0.0639
10285TIP3    H252347   3.454   2.106   0.588 -0.0404 -0.3507  0.1676
10286TIP3   OH252348   1.150   2.573  17.020  0.4978 -0.3036 -0.2941
10286TIP3    H152349   1.201   2.653  17.036  0.2287  0.0051 -0.9224
10286TIP3    H252350   1.072   2.603  16.974 -0.2568 -0.7830  0.6584
10287TIP3   OH252351   4.849   1.172   1.793  0.2480 -0.3429 -0.0380
10287TIP3    H152352   4.941   1.155   1.773  1.0183  1.2880  1.7603
10287TIP3    H252353   4.838   1.144   1.884 -1.9008 -3.2732 -1.0128
10288TIP3   OH252354   0.252   2.674   3.693 -0.6463  0.2930 -0.1815
10288TIP3    H152355   0.188   2.715   3.635  0.2055  1.0058 -0.6438
10288TIP3    H252356   0.250   2.581   3.671 -1.1722  0.3882 -0.5253
10289TIP3   OH252357   3.205   5.779  15.964 -0.3970 -0.4393 -0.3004
10289TIP3    H152358   3.294   5.755  15.989 -1.3436 -2.6973  1.1870
10289TIP3    H252359   3.207   5.788  15.869  0.8151 -3.5088 -0.6696
10290TIP3   OH252360   6.684   5.792  12.066 -0.1215 -0.6938 -0.0610
10290TIP3    H152361   6.660   5.807  11.974  0.0154  1.3456  0.1874
10290TIP3    H252362   6.603   5.808  12.114  0.0890 -0.6147  0.2663
10291TIP3   OH252363   1.786   0.056  16.232  0.0360 -0.3309 -0.4395
10291TIP3    H152364   1.807   0.017  16.148 -1.0257  1.3259 -1.5231
10291TIP3    H252365   1.691   0.055  16.237  0.0748 -0.4453  0.7771
10292TIP3   OH252366   1.329   2.407  16.853 -0.2316 -0.2889 -0.7235
10292TIP3    H152367   1.237   2.399  16.878 -0.4546  0.3418 -1.3357
10292TIP3    H252368   1.368   2.324  16.881 -1.6852 -2.0570 -3.4818
10293TIP3   OH252369   2.291   4.567   4.535 -0.0095 -0.0451  0.0649
10293TIP3    H152370   2.344   4.491   4.556  1.8081  0.9819 -0.6238
10293TIP3    H252371   2.221   4.533   4.479  0.8373 -1.1994 -0.3231
10294TIP3   OH252372   5.958   2.136   1.200 -0.1468  0.0908 -0.6734
10294TIP3    H152373   5.969   2.104   1.289  2.4632  0.9918 -0.5855
10294TIP3    H252374   5.969   2.058   1.145 -0.1654 -0.2109 -0.2519
10295TIP3   OH252375   1.212   4.233   0.322 -0.0090  0.5296  0.5009
10295TIP3    H152376   1.130   4.222   0.370  0.7457 -1.8605  1.4087
10295TIP3    H252377   1.189   4.286   0.246 -1.9595  1.5870  1.7405
10296TIP3   OH252378   0.283   4.105   1.394 -0.1659  0.0325 -0.0457
10296TIP3    H152379   0.297   4.079   1.303 -0.9140 -0.2811 -0.0740
10296TIP3    H252380   0.350   4.057   1.443  0.7938  0.8550 -0.5130
10297TIP3   OH252381   2.990   3.006   1.279  0.5004  0.2628 -0.0499
10297TIP3    H152382   2.962   3.083   1.329  1.1611 -0.4455  1.4923
10297TIP3    H252383   2.919   2.991   1.216 -0.7425  0.8004  1.1518
10298TIP3   OH252384   2.780   1.406   1.279 -0.2706  0.2195 -0.2004
10298TIP3    H152385   2.711   1.344   1.259 -0.1852  0.6876 -2.1404
10298TIP3    H252386   2.833   1.362   1.346 -0.6234 -1.4787 -0.9871
10299TIP3   OH252387   4.444   1.848   1.941 -0.0599  0.3613 -0.4939
10299TIP3    H152388   4.533   1.883   1.942  0.2220 -0.3420 -0.7213
10299TIP3    H252389   4.438   1.795   2.020 -0.2998  0.4564 -0.4470
10300TIP3   OH252390   2.739   1.586  13.209 -0.0565  0.4096  0.0429
10300TIP3    H152391   2.724   1.493  13.191  0.3017  0.1464  1.0260
10300TIP3    H252392   2.759   1.589  13.303  1.8775  1.2258 -0.3410
10301TIP3   OH252393   2.575   0.375  16.629  0.2575 -0.3167  0.2557
10301TIP3    H152394   2.549   0.324  16.705 -0.5941  0.1731  0.2973
10301TIP3    H252395   2.629   0.315  16.577 -1.3355 -1.5246 -0.0775
10302TIP3   OH252396   5.066   1.501   1.821 -0.2189  0.1056  0.9732
10302TIP3    H152397   5.146   1.459   1.789 -0.2450 -1.1446  2.4590
10302TIP3    H252398   5.013   1.514   1.742 -0.3828 -3.0595  0.4202
10303TIP3   OH252399   6.081   3.836   1.288 -0.7033 -0.0180  0.2447
10303TIP3    H152400   6.032   3.755   1.302 -0.5870 -0.0805  0.2867
10303TIP3    H252401   6.164   3.808   1.250  0.6369 -0.2012  3.0944
10304TIP3   OH252402   3.718   2.626   1.597 -0.0919 -0.1586 -0.5282
10304TIP3    H152403   3.627   2.651   1.610  0.0636 -0.0579  0.4277
10304TIP3    H252404   3.715   2.558   1.530 -0.8066  0.2673 -0.9441
10305TIP3   OH252405   5.126   0.880   4.630  0.1437  0.2590  0.1841
10305TIP3    H152406   5.124   0.910   4.539 -0.4323  0.0077  0.1138
10305TIP3    H252407   5.215   0.844   4.641  0.8710  2.0029  0.2850
10306TIP3   OH252408   5.151   3.614   2.998  0.2823  0.4910  0.0701
10306TIP3    H152409   5.064   3.627   3.034 -0.6370 -1.4844 -1.2699
10306TIP3    H252410   5.153   3.670   2.920 -0.8473 -1.4333 -1.4151
10307TIP3   OH252411   0.825   6.041  16.539 -0.2283  0.3277  0.0929
10307TIP3    H152412   0.775   6.109  16.584 -0.3733  1.0057 -1.0616
10307TIP3    H252413   0.760   5.972  16.521 -0.6851  1.0284 -1.0387
10308TIP3   OH252414   4.193   4.842  16.169 -0.2173 -0.4031  0.2275
10308TIP3    H152415   4.251   4.766  16.159 -1.0539 -0.9222 -1.0300
10308TIP3    H252416   4.184   4.853  16.263  2.2875  0.0201  0.4982
10309TIP3   OH252417   6.168   2.271   6.642  0.0965 -0.2611 -0.1032
10309TIP3    H152418   6.117   2.211   6.587  0.2771  0.2536 -0.8445
10309TIP3    H252419   6.246   2.291   6.590  0.4874 -0.1071  0.5253
10310TIP3   OH252420   5.715   1.646   3.733  0.3377  0.3032 -0.3680
10310TIP3    H152421   5.671   1.611   3.655  1.8237  0.3481 -1.2555
10310TIP3    H252422   5.741   1.734   3.708  0.3890  0.5047  0.3731
10311TIP3   OH252423   2.309   1.796  15.040  0.5508 -0.5890 -0.3383
10311TIP3    H152424   2.312   1.761  15.129 -0.9288 -1.4980 -0.6106
10311TIP3    H252425   2.386   1.761  14.997  0.7789 -0.8997  0.3261
10312TIP3   OH252426   5.229   1.808   2.099 -0.0791 -0.2114  0.3264
10312TIP3    H152427   5.286   1.746   2.143 -1.5820 -2.0809 -0.2134
10312TIP3    H252428   5.233   1.783   2.006 -1.2170  0.0473  0.1879
10313TIP3   OH252429   1.491   0.932  16.488  0.4014 -0.3106  0.1044
10313TIP3    H152430   1.578   0.893  16.488  0.3374 -0.5711  2.2456
10313TIP3    H252431   1.431   0.858  16.478  0.4053 -0.2400 -0.4316
10314TIP3   OH252432   5.694   0.689  14.321  0.3087 -0.0406 -0.0667
10314TIP3    H152433   5.695   0.633  14.398  1.4734 -0.3695 -0.3097
10314TIP3    H252434   5.640   0.764  14.347  0.6901 -0.1415  1.0695
10315TIP3   OH252435   0.997   6.605  11.229  0.2917  0.1656 -0.2781
10315TIP3    H152436   0.931   6.537  11.243  1.0616 -0.8439 -1.3525
10315TIP3    H252437   1.051   6.602  11.309 -1.8279  2.1169  1.3645
10316TIP3   OH252438   5.595   2.650  10.899  0.4153 -0.3549  0.0120
10316TIP3    H152439   5.671   2.702  10.873  1.0948 -1.7546 -0.9720
10316TIP3    H252440   5.521   2.692  10.856  0.6190  1.0386  0.9908
10317TIP3   OH252441   1.735   0.435   0.334 -0.2736  0.0194 -0.2261
10317TIP3    H152442   1.678   0.460   0.262 -1.4347  1.5234  1.1215
10317TIP3    H252443   1.802   0.503   0.336  0.0813 -0.3283 -0.2398
10318TIP3   OH252444   5.668   3.521  14.024  0.5359 -0.0595  0.7835
10318TIP3    H152445   5.690   3.436  13.987  2.3735  1.0382 -0.8228
10318TIP3    H252446   5.574   3.515  14.043  0.0150 -1.5766 -1.7698
10319TIP3   OH252447   0.367   6.571   3.355 -0.1777 -0.1055  0.1794
10319TIP3    H152448   0.380   6.477   3.361  0.7959 -0.0065 -0.1921
10319TIP3    H252449   0.273   6.584   3.370 -0.4558 -1.1970 -0.5524
10320TIP3   OH252450   3.404   0.057   4.035 -0.6951 -0.2467 -0.7361
10320TIP3    H152451   3.402   0.033   4.128 -0.0696  2.0602 -0.0585
10320TIP3    H252452   3.377   0.148   4.034  1.6730  0.5073 -2.5304
10321TIP3   OH252453   0.987   5.012   0.507  0.4663  0.4850  0.3044
10321TIP3    H152454   0.914   4.952   0.522 -1.0442  1.6115 -1.8665
10321TIP3    H252455   1.050   4.961   0.457 -0.7832  0.5846 -1.4879
10322TIP3   OH252456   0.106   4.918  10.931  0.0689  0.6279 -0.0649
10322TIP3    H152457   0.068   4.983  10.990  1.8457 -0.0627  2.0011
10322TIP3    H252458   0.177   4.964  10.887  1.2359  0.1982  1.2931
10323TIP3   OH252459   4.565   0.209  13.718 -0.2676 -0.2417  0.2360
10323TIP3    H152460   4.578   0.230  13.810  1.1261 -0.1660  0.0512
10323TIP3    H252461   4.470   0.205  13.707 -0.4629  0.2731  1.5485
10324TIP3   OH252462   4.747   4.146  11.365  0.0129 -0.1746 -0.2134
10324TIP3    H152463   4.836   4.176  11.381 -0.4580 -0.2309  3.2036
10324TIP3    H252464   4.755   4.053  11.345  0.7380 -0.1430 -0.0758
10325TIP3   OH252465   2.790   1.601  11.494 -0.0937 -0.2651  0.1416
10325TIP3    H152466   2.777   1.508  11.476  1.0238  0.0199 -2.5211
10325TIP3    H252467   2.730   1.646  11.435 -0.3902  0.7497  1.1639
10326TIP3   OH252468   2.495   4.300   5.848 -0.6035  0.2415 -0.4071
10326TIP3    H152469   2.451   4.305   5.933 -1.1562 -0.5603 -0.6302
10326TIP3    H252470   2.434   4.252   5.793 -0.4139  1.0930 -1.3765
10327TIP3   OH252471   6.791   4.828  11.535 -0.3075  0.8902  0.1039
10327TIP3    H152472   6.768   4.764  11.467  0.3291  0.7136  0.0470
10327TIP3    H252473   6.886   4.821  11.543 -0.4763  0.1109  1.7984
10328TIP3   OH252474   1.038   2.266   0.427  0.6583 -0.2655  0.1436
10328TIP3    H152475   0.988   2.346   0.440 -0.7612 -1.1491  0.3169
10328TIP3    H252476   1.098   2.261   0.502 -0.8364 -0.5096  1.3595
10329TIP3   OH252477   1.105   5.435  14.009 -0.0626  0.0317 -0.6167
10329TIP3    H152478   1.177   5.421  13.948  1.6624  1.4728  0.9915
10329TIP3    H252479   1.043   5.490  13.960  1.1368  0.9073 -1.1902
10330TIP3   OH252480   2.886   2.242  13.059 -0.0865 -0.1520 -0.0139
10330TIP3    H152481   2.833   2.180  13.109 -2.1460  0.6033 -1.1245
10330TIP3    H252482   2.933   2.292  13.125 -2.6636  0.7653  1.2479
10331TIP3   OH252483   0.039   0.689  11.362  0.0981 -0.0742  0.3727
10331TIP3    H152484   0.101   0.653  11.298 -1.8266 -0.8976 -1.1245
10331TIP3    H252485   0.007   0.613  11.411 -0.7738  0.1345  0.1474
10332TIP3   OH252486   6.022   1.024   4.205  0.3958 -0.6195  0.8035
10332TIP3    H152487   6.098   1.073   4.238  1.0935 -1.6422  0.7652
10332TIP3    H252488   6.041   0.933   4.228 -0.7464 -0.9094  0.6316
10333TIP3   OH252489   0.721   6.097   0.580 -0.1579  0.0846  0.5214
10333TIP3    H152490   0.699   6.178   0.625 -1.6690 -0.2505  0.4352
10333TIP3    H252491   0.638   6.066   0.544  0.6586 -0.7177 -0.7467
10334TIP3   OH252492   0.972   4.666   0.716 -0.0521  0.0204 -0.1003
10334TIP3    H152493   0.893   4.701   0.757  0.9907  3.2569 -0.5965
10334TIP3    H252494   0.980   4.577   0.753 -2.8929  0.2152  1.3053
10335TIP3   OH252495   2.841   3.576   3.002 -0.1780 -0.3596  0.0242
10335TIP3    H152496   2.856   3.652   3.059  0.5515 -1.2765  1.0968
10335TIP3    H252497   2.820   3.614   2.917  0.4862  1.0495  0.4540
10336TIP3   OH252498   3.209   2.393   3.297  0.4123 -0.3150  0.2414
10336TIP3    H152499   3.268   2.454   3.342  2.0832 -1.7754  0.1170
10336TIP3    H252500   3.145   2.368   3.365  0.9403  0.0065  0.8724
10337TIP3   OH252501   3.310   1.298   5.556 -0.3272 -0.4604 -0.3862
10337TIP3    H152502   3.341   1.353   5.629 -1.6875  0.5906 -0.5486
10337TIP3    H252503   3.351   1.336   5.479 -0.1159 -0.5961 -0.3419
10338TIP3   OH252504   1.585   6.320   1.479  0.8340  0.4832 -0.4582
10338TIP3    H152505   1.598   6.325   1.384  1.0279  0.2822 -0.4431
10338TIP3    H252506   1.623   6.236   1.504  0.3172  0.3014 -0.2782
10339TIP3   OH252507   0.470   3.222  13.090 -1.0807  0.2434  0.6381
10339TIP3    H152508   0.529   3.194  13.160  2.0188  0.2868 -1.7071
10339TIP3    H252509   0.438   3.307  13.118  2.1050  1.4527  1.0703
10340TIP3   OH252510   3.475   1.269  11.485 -0.5558 -0.3546  0.5062
10340TIP3    H152511   3.486   1.270  11.580 -0.2898 -0.7938  0.4828
10340TIP3    H252512   3.487   1.177  11.460 -1.2475 -0.3500  0.1209
10341TIP3   OH252513   3.567   0.912  16.320 -0.1647  0.4681 -0.7933
10341TIP3    H152514   3.536   0.930  16.409  1.4384 -0.1851 -0.0740
10341TIP3    H252515   3.607   0.994  16.292 -1.5651  1.0039 -1.3536
10342TIP3   OH252516   1.410   3.998   0.522 -0.2472 -0.2478  0.2629
10342TIP3    H152517   1.401   3.972   0.430 -0.7951 -3.4286  1.1097
10342TIP3    H252518   1.329   3.970   0.564  0.8951 -0.9976  2.1236
10343TIP3   OH252519   2.964   2.851  16.814 -0.7001 -0.5205 -0.3018
10343TIP3    H152520   2.984   2.838  16.721 -1.2680 -2.6095 -0.1825
10343TIP3    H252521   2.898   2.921  16.814 -1.9918 -1.6493 -1.6803
10344TIP3   OH252522   1.951   4.644   1.254 -0.3635  0.6723  0.3754
10344TIP3    H152523   1.890   4.642   1.180  0.6198 -0.9032 -0.4491
10344TIP3    H252524   1.934   4.728   1.296 -1.1078  1.5306 -1.5092
10345TIP3   OH252525   0.577   5.162  14.759 -0.4768  0.6245  0.5088
10345TIP3    H152526   0.559   5.251  14.728 -1.7812 -0.0649 -0.8058
10345TIP3    H252527   0.506   5.109  14.724  0.9558 -1.1777  0.1558
10346TIP3   OH252528   4.608   0.612  13.623 -0.7720  0.0042  0.5077
10346TIP3    H152529   4.521   0.601  13.586 -0.5204  1.9676 -0.8390
10346TIP3    H252530   4.593   0.652  13.709 -1.2294  0.9129  0.0311
10347TIP3   OH252531   6.091   6.377  11.584 -0.7821 -0.1705 -0.0924
10347TIP3    H152532   6.128   6.360  11.497 -0.9166 -1.1749  0.0374
10347TIP3    H252533   6.066   6.470  11.582  1.8632  0.6484 -0.1552
10348TIP3   OH252534   0.095   2.670  10.724 -0.2374  0.2255 -0.1265
10348TIP3    H152535   0.142   2.752  10.737 -1.1713  1.1056 -2.0024
10348TIP3    H252536   0.027   2.690  10.660 -1.0033 -1.8319 -0.0511
10349TIP3   OH252537   3.426   3.173   4.185  0.6015  0.6609 -0.3039
10349TIP3    H152538   3.393   3.252   4.227  2.6756  2.8416 -2.4375
10349TIP3    H252539   3.500   3.145   4.239 -1.7280 -1.6618  2.0160
10350TIP3   OH252540   2.993   6.288   5.314  0.7107 -0.1609 -0.0353
10350TIP3    H152541   2.909   6.322   5.344  0.5867  0.0760 -0.6346
10350TIP3    H252542   3.013   6.216   5.374  0.0401 -0.2752  0.0564
10351TIP3   OH252543   6.450   0.861   0.899  0.0425  0.3921 -0.2560
10351TIP3    H152544   6.495   0.872   0.815  0.1781 -2.9496 -0.7332
10351TIP3    H252545   6.453   0.948   0.938  2.2341  1.5104 -2.5739
10352TIP3   OH252546   0.395   0.664  12.295  0.3006  0.1745  0.1294
10352TIP3    H152547   0.337   0.681  12.370  2.7936 -0.4054  2.3732
10352TIP3    H252548   0.481   0.651  12.335  1.3853 -2.4669 -2.6814
10353TIP3   OH252549   1.220   5.248   2.088 -0.4361  0.4135 -0.4124
10353TIP3    H152550   1.281   5.281   2.154  0.0417  0.2112 -0.7483
10353TIP3    H252551   1.276   5.223   2.014 -0.8367 -0.6194 -0.3784
10354TIP3   OH252552   6.128   3.329   5.203  0.0918  0.3150 -0.6752
10354TIP3    H152553   6.119   3.424   5.214  0.2081  0.4548 -1.6520
10354TIP3    H252554   6.211   3.308   5.245  0.7309  0.8745 -1.6071
10355TIP3   OH252555   1.967   1.516  12.038  0.2414 -0.4316 -0.3411
10355TIP3    H152556   2.047   1.474  12.070  0.6289  0.8335  0.4137
10355TIP3    H252557   1.909   1.519  12.114 -0.3518 -0.9116 -0.7630
10356TIP3   OH252558   6.697   2.547   3.587 -0.1471 -0.7820  0.2274
10356TIP3    H152559   6.608   2.541   3.551  0.2680 -0.1027 -0.9480
10356TIP3    H252560   6.683   2.573   3.678 -1.1550 -0.3432 -0.0320
10357TIP3   OH252561   5.670   5.523  13.211  0.3076 -0.3271  0.3971
10357TIP3    H152562   5.619   5.467  13.152  0.9697 -1.4078  0.8349
10357TIP3    H252563   5.606   5.588  13.242 -0.3916 -0.6212 -0.3812
10358TIP3   OH252564   4.013   5.192  11.645 -0.1487  0.3219 -0.1107
10358TIP3    H152565   4.052   5.267  11.690  0.0170 -0.1230  0.5000
10358TIP3    H252566   4.010   5.218  11.553  1.1759  0.5532 -0.1157
10359TIP3   OH252567   0.531   5.846  13.601 -0.3275  0.0382 -0.4339
10359TIP3    H152568   0.478   5.862  13.523 -2.0653  0.9936  0.8794
10359TIP3    H252569   0.615   5.813  13.567 -0.9729  0.5717 -2.6836
10360TIP3   OH252570   4.862   6.501  16.299 -0.1177  0.0606 -0.8429
10360TIP3    H152571   4.900   6.571  16.246  0.6655  0.3000  0.0037
10360TIP3    H252572   4.880   6.528  16.390 -0.0816 -1.0885 -0.4993
10361TIP3   OH252573   3.328   1.640  12.020 -0.5079  0.4594 -0.0488
10361TIP3    H152574   3.301   1.706  12.084 -0.6724  2.1753 -1.7672
10361TIP3    H252575   3.396   1.683  11.968  1.1656 -1.6281  0.2738
10362TIP3   OH252576   3.492   3.232  13.575  0.5131 -0.6117  0.7069
10362TIP3    H152577   3.542   3.237  13.493 -0.0951  0.2872  0.3781
10362TIP3    H252578   3.460   3.142  13.578  1.2101 -0.8827  0.3679
10363TIP3   OH252579   1.934   3.406   6.426  0.1269 -0.4850  0.1337
10363TIP3    H152580   2.027   3.423   6.445 -0.0333  1.2218 -0.4319
10363TIP3    H252581   1.888   3.474   6.474 -0.7559 -0.5774 -0.5709
10364TIP3   OH252582   0.719   5.651  13.586  0.0362 -0.1023  0.5511
10364TIP3    H152583   0.639   5.599  13.581  0.5475 -0.7832 -0.8903
10364TIP3    H252584   0.787   5.593  13.552  0.8687  1.0121  0.2876
10365TIP3   OH252585   3.502   3.466  16.922  0.0875  0.2152 -0.2855
10365TIP3    H152586   3.492   3.374  16.943  0.0353  0.4247  0.6498
10365TIP3    H252587   3.439   3.511  16.980 -0.7506  0.7499 -1.5643
10366TIP3   OH252588   4.464   3.481  14.131 -0.1741  0.4484 -0.4009
10366TIP3    H152589   4.428   3.425  14.200 -1.3325  2.5226  0.7858
10366TIP3    H252590   4.408   3.464  14.055 -1.4413  0.9760  0.3740
10367TIP3   OH252591   4.716   3.059  15.067 -0.3458 -0.0004  0.1331
10367TIP3    H152592   4.738   3.112  14.991 -0.7739  0.2482  0.1801
10367TIP3    H252593   4.703   2.971  15.033  1.5845 -0.3581  0.2206
10368TIP3   OH252594   0.121   2.013   4.263  0.8519 -0.1402  0.2684
10368TIP3    H152595   0.154   2.057   4.341 -0.7883 -1.9992  2.1415
10368TIP3    H252596   0.103   1.923   4.291  1.4921 -1.3003 -2.6494
10369TIP3   OH252597   3.343   5.717  12.119 -0.4249  0.3085 -0.2829
10369TIP3    H152598   3.378   5.792  12.167 -0.8319 -0.1036  0.6658
10369TIP3    H252599   3.329   5.650  12.185  0.5639 -0.8648 -1.2173
10370TIP3   OH252600   3.163   5.369   0.694 -0.0898  0.4463  0.0522
10370TIP3    H152601   3.201   5.326   0.770 -0.7806  1.7839  1.2007
10370TIP3    H252602   3.075   5.331   0.685  0.2846 -0.2866 -0.5853
10371TIP3   OH252603   6.159   3.474  12.447  0.1894  0.4169 -0.0011
10371TIP3    H152604   6.168   3.508  12.536 -2.2073  2.5667 -0.4782
10371TIP3    H252605   6.240   3.500  12.403 -0.1460  2.7235  0.6021
10372TIP3   OH252606   1.325   4.476   4.777  0.0780  0.2165 -0.4776
10372TIP3    H152607   1.258   4.408   4.764 -1.9139  2.3255 -2.0626
10372TIP3    H252608   1.406   4.436   4.743 -0.7896 -1.6951 -0.4415
10373TIP3   OH252609   4.170   3.561  10.558 -0.3423 -0.1549  0.5131
10373TIP3    H152610   4.187   3.655  10.565 -1.4104  0.1523 -0.5726
10373TIP3    H252611   4.255   3.520  10.575  0.5644  1.0877 -0.7055
10374TIP3   OH252612   5.429   6.378   5.794 -0.1468 -0.0717  0.0685
10374TIP3    H152613   5.513   6.412   5.822 -0.7162  0.5685  1.0584
10374TIP3    H252614   5.367   6.407   5.861 -1.1867 -0.3802 -0.7183
10375TIP3   OH252615   1.348   2.099  16.154 -0.2209 -0.6316 -0.2588
10375TIP3    H152616   1.415   2.091  16.086  0.9212 -2.6864  1.0108
10375TIP3    H252617   1.290   2.167  16.122  1.8793  0.5053 -1.9321
10376TIP3   OH252618   6.208   2.426  14.123 -0.6420  0.2819 -0.4972
10376TIP3    H152619   6.181   2.518  14.130 -0.2976  0.3171  0.4899
10376TIP3    H252620   6.133   2.376  14.152 -0.1160  0.3402  1.0593
10377TIP3   OH252621   3.835   4.785   1.318  0.2060  0.2893  0.1395
10377TIP3    H152622   3.885   4.843   1.376 -0.5441 -0.0577  1.1611
10377TIP3    H252623   3.900   4.753   1.255  0.7533  1.7738 -0.1102
10378TIP3   OH252624   0.787   4.178  16.740 -0.0865  0.0325  0.2136
10378TIP3    H152625   0.720   4.244  16.761 -0.4258 -0.2957  0.1662
10378TIP3    H252626   0.758   4.141  16.657 -0.3841 -0.8077  0.6830
10379TIP3   OH252627   3.231   4.555  16.783 -0.1449 -0.0255  0.1587
10379TIP3    H152628   3.320   4.559  16.747  0.0454  0.8913  0.7100
10379TIP3    H252629   3.183   4.499  16.721  0.9766 -1.0891  0.2237
10380TIP3   OH252630   3.362   2.922  12.008 -0.5694 -0.4450  0.4308
10380TIP3    H152631   3.376   2.858  12.078 -0.2997 -0.5192  0.3088
10380TIP3    H252632   3.321   2.871  11.938  3.0960 -1.4403 -1.2181
10381TIP3   OH252633   4.915   1.557  14.447  0.2955  0.0051 -0.4944
10381TIP3    H152634   4.850   1.601  14.392 -0.3442 -1.7864 -1.2780
10381TIP3    H252635   4.922   1.469  14.409  2.3023 -0.2455  0.3177
10382TIP3   OH252636   5.928   1.112   6.595 -0.8561 -0.0054  0.3752
10382TIP3    H152637   5.991   1.048   6.630  0.2882 -0.2016 -1.8497
10382TIP3    H252638   5.978   1.160   6.528 -2.8163  0.5003 -0.8011
10383TIP3   OH252639   4.643   2.961   4.583  0.2401 -0.0169  0.3066
10383TIP3    H152640   4.730   2.927   4.602  0.3399 -0.0559 -0.2213
10383TIP3    H252641   4.652   3.056   4.595  0.3509 -0.0217  0.2618
10384TIP3   OH252642   1.838   1.478  13.229 -0.9279 -0.6333  0.0416
10384TIP3    H152643   1.861   1.455  13.139 -0.9597  1.1206 -0.4613
10384TIP3    H252644   1.815   1.571  13.225 -2.2409 -0.8232  1.6233
10385TIP3   OH252645   3.427   0.806  10.845 -0.0279  0.4234  0.9471
10385TIP3    H152646   3.351   0.805  10.788  0.2814 -0.5901  0.5391
10385TIP3    H252647   3.500   0.831  10.787  0.2463 -0.3753  0.9418
10386TIP3   OH252648   5.037   4.259   3.271  0.0354 -0.1684  0.2102
10386TIP3    H152649   5.019   4.353   3.261  2.5260  0.6164  2.1562
10386TIP3    H252650   5.059   4.248   3.363 -0.7148 -2.8096  0.1461
10387TIP3   OH252651   4.232   1.803   4.082  0.0413  0.1827  0.0206
10387TIP3    H152652   4.196   1.867   4.143 -0.0361  0.8779 -0.7272
10387TIP3    H252653   4.232   1.721   4.130 -0.8231  0.5422  0.6624
10388TIP3   OH252654   5.511   2.930  10.690  0.1740 -0.0760  0.8620
10388TIP3    H152655   5.453   3.006  10.682 -0.2398 -0.2430  2.1212
10388TIP3    H252656   5.451   2.856  10.704  0.3781 -1.0920 -2.6950
10389TIP3   OH252657   3.640   6.367   4.602  0.4889  0.3838 -0.0266
10389TIP3    H152658   3.660   6.329   4.687 -1.2072  1.3904  0.8696
10389TIP3    H252659   3.559   6.415   4.615 -1.0232 -1.1471 -2.7010
10390TIP3   OH252660   2.873   0.261   0.607 -1.0799  0.2238  0.6369
10390TIP3    H152661   2.958   0.270   0.565 -1.4499  1.2527  0.0481
10390TIP3    H252662   2.892   0.230   0.695 -0.2209 -1.1958 -0.0249
10391TIP3   OH252663   4.106   0.561   4.615 -0.1194  0.3105  0.4483
10391TIP3    H152664   4.174   0.496   4.599 -0.1693  0.5830 -0.9361
10391TIP3    H252665   4.120   0.628   4.549 -2.4786 -0.2301 -0.6949
10392TIP3   OH252666   1.651   4.643  14.364  0.2921 -0.1018  0.0508
10392TIP3    H152667   1.738   4.647  14.402  1.0463  0.1398 -1.6242
10392TIP3    H252668   1.637   4.549  14.347  0.4467 -0.0799 -0.1914
10393TIP3   OH252669   4.469   6.233  12.055 -0.2273  0.2128  0.6242
10393TIP3    H152670   4.375   6.246  12.059 -0.2174  0.4006  0.2602
10393TIP3    H252671   4.485   6.197  11.967 -0.0684 -0.7052  1.0198
10394TIP3   OH252672   3.731   2.866   1.259 -0.5481  0.5555 -0.3157
10394TIP3    H152673   3.669   2.920   1.309  1.1951  2.4600 -0.0955
10394TIP3    H252674   3.783   2.929   1.209  0.9104 -1.0081 -0.8462
10395TIP3   OH252675   6.569   6.737  11.545 -0.4543  0.3712  0.1008
10395TIP3    H152676   6.588   6.713  11.455  0.5347  0.2126  0.3402
10395TIP3    H252677   6.649   6.779  11.577 -1.3115  1.8068  0.4446
10396TIP3   OH252678   3.972   3.705   0.418 -0.2387  0.5376  0.0267
10396TIP3    H152679   3.922   3.733   0.494  2.9801 -1.4102  3.2115
10396TIP3    H252680   4.038   3.773   0.406  0.2943  0.0382  0.0880
10397TIP3   OH252681   0.256   2.626   1.788  0.0381 -0.3473  0.3039
10397TIP3    H152682   0.318   2.670   1.846  0.4170 -0.1246 -0.2687
10397TIP3    H252683   0.253   2.681   1.710 -0.8708 -0.3639  0.3191
10398TIP3   OH252684   0.604   3.187  15.152  0.0526 -0.2323 -0.0770
10398TIP3    H152685   0.543   3.228  15.092  0.8317  0.0032 -0.7247
10398TIP3    H252686   0.608   3.247  15.227  0.2789  0.2746 -0.4920
10399TIP3   OH252687   3.073   2.115  15.771 -0.0026  0.3105  0.1313
10399TIP3    H152688   3.024   2.184  15.726  0.5013 -1.5574 -3.7068
10399TIP3    H252689   3.163   2.126  15.739  0.1225 -1.8946 -0.4242
10400TIP3   OH252690   3.933   0.292  15.148  0.2262 -0.3446  0.6122
10400TIP3    H152691   4.024   0.320  15.140  0.0311  0.9286  2.2407
10400TIP3    H252692   3.937   0.207  15.191  0.6762 -1.0213 -0.7156
10401TIP3   OH252693   6.068   6.191   2.377  0.3421 -0.0970  0.5575
10401TIP3    H152694   6.061   6.133   2.453  0.3844  0.5308  1.0463
10401TIP3    H252695   5.999   6.161   2.318  0.6683 -0.9484  0.5999
10402TIP3   OH252696   1.753   0.387  13.964 -0.3989 -0.1389  0.3263
10402TIP3    H152697   1.686   0.338  13.917 -1.1575  0.8747  0.3130
10402TIP3    H252698   1.704   0.436  14.031  0.6088 -1.2879  1.9801
10403TIP3   OH252699   0.516   5.170   4.959 -0.3843 -0.3016  0.2885
10403TIP3    H152700   0.545   5.108   5.025  1.5850 -0.3946 -0.6004
10403TIP3    H252701   0.467   5.236   5.008  0.5079 -0.6878  1.7637
10404TIP3   OH252702   5.759   0.512  17.037 -0.3564 -0.3471 -0.4883
10404TIP3    H152703   5.712   0.428  17.036  0.2990 -0.7190 -0.6898
10404TIP3    H252704   5.847   0.491  17.005  1.0428 -0.2766  2.9690
10405TIP3   OH252705   6.706   6.074  16.592  0.3772  0.3651  0.5963
10405TIP3    H152706   6.649   6.096  16.665 -2.6121  0.1337 -1.5154
10405TIP3    H252707   6.707   5.978  16.590 -0.1644  0.3699 -0.0858
10406TIP3   OH252708   0.991   4.818  12.503 -0.4252  0.2592  0.1315
10406TIP3    H152709   1.007   4.860  12.588  0.4447  0.3015 -0.0410
10406TIP3    H252710   0.985   4.891  12.441 -0.1796  0.1964  0.0297
10407TIP3   OH252711   5.763   4.419  16.926 -0.3781  0.5701 -0.2838
10407TIP3    H152712   5.781   4.472  17.004  1.8257 -0.3662 -0.1114
10407TIP3    H252713   5.847   4.414  16.881 -1.4390  0.4169 -2.3264
10408TIP3   OH252714   5.489   4.417   6.088  0.0835  0.0302  0.0514
10408TIP3    H152715   5.510   4.477   6.160  0.3166 -0.9588  0.8265
10408TIP3    H252716   5.466   4.335   6.131 -0.5941 -0.3404 -0.9842
10409TIP3   OH252717   5.809   2.830   5.011  0.3967 -0.4508 -0.2475
10409TIP3    H152718   5.820   2.924   5.023 -0.1581 -0.0349 -2.6152
10409TIP3    H252719   5.815   2.794   5.100  3.7000  1.4380  0.4462
10410TIP3   OH252720   5.507   5.003  16.797 -0.1088  0.1860 -0.1765
10410TIP3    H152721   5.518   5.004  16.702 -1.0923 -0.9136 -0.3366
10410TIP3    H252722   5.577   5.058  16.831  1.7628 -1.3403 -1.3985
10411TIP3   OH252723   3.563   1.717  13.753 -0.1593  0.0278 -0.0699
10411TIP3    H152724   3.558   1.799  13.802  1.7624  0.7012 -0.9078
10411TIP3    H252725   3.592   1.652  13.818  1.8976  0.8100 -0.1273
10412TIP3   OH252726   1.459   4.478  11.836  0.6520  0.1107  0.0266
10412TIP3    H152727   1.387   4.523  11.880 -0.1016 -1.8985  0.9745
10412TIP3    H252728   1.515   4.549  11.803 -1.7449  1.7589 -0.8226
10413TIP3   OH252729   4.190   0.520   1.901  0.4525 -0.0816 -0.6512
10413TIP3    H152730   4.237   0.581   1.959 -1.6043  0.1534  0.8564
10413TIP3    H252731   4.180   0.440   1.953 -1.5767  0.1891 -0.5532
10414TIP3   OH252732   5.158   3.525   3.526  0.2912  0.2284 -0.1302
10414TIP3    H152733   5.221   3.466   3.484 -0.8449 -1.1227 -0.0156
10414TIP3    H252734   5.166   3.507   3.619 -0.0425  0.2747 -0.0905
10415TIP3   OH252735   1.829   4.300  15.310 -0.6714  0.3043  0.0380
10415TIP3    H152736   1.856   4.271  15.397 -1.9361 -1.7887 -0.2088
10415TIP3    H252737   1.735   4.317  15.318 -1.1893 -1.5957 -1.2518
10416TIP3   OH252738   0.880   3.410  12.437 -0.2797 -0.3093  0.2961
10416TIP3    H152739   0.794   3.372  12.421 -0.5353  0.9133 -1.5322
10416TIP3    H252740   0.896   3.466  12.361  0.8312  1.8409  2.0026
10417TIP3   OH252741   0.622   6.052  14.839  0.3943  0.3887 -0.0669
10417TIP3    H152742   0.552   6.117  14.836  1.3363  1.4256 -0.6642
10417TIP3    H252743   0.638   6.030  14.747  0.9138  0.2434  0.0546
10418TIP3   OH252744   5.816   2.675  15.872 -0.3650 -0.1696  0.4110
10418TIP3    H152745   5.722   2.686  15.886 -0.3462  1.0181 -0.2394
10418TIP3    H252746   5.843   2.610  15.936 -1.5279 -0.1134  0.9773
10419TIP3   OH252747   4.150   3.954  13.734 -0.3798 -0.1405 -0.0491
10419TIP3    H152748   4.133   4.008  13.811  0.0849  0.0472 -0.0757
10419TIP3    H252749   4.235   3.985  13.701  0.8126 -2.1066  1.0041
10420TIP3   OH252750   1.061   4.700   6.411  0.1173  0.0844  0.4943
10420TIP3    H152751   1.116   4.713   6.334  0.5942 -0.7068  0.6892
10420TIP3    H252752   1.105   4.631   6.460 -1.4261 -1.0729  0.3065
10421TIP3   OH252753   4.881   5.617  12.231 -0.1217 -0.0955 -0.4145
10421TIP3    H152754   4.899   5.711  12.226 -0.3981 -0.0011  0.3115
10421TIP3    H252755   4.849   5.594  12.143 -2.7247  1.0689  0.1186
10422TIP3   OH252756   0.821   0.522  15.178  0.8346 -0.4537  0.0807
10422TIP3    H152757   0.901   0.474  15.156  0.2796 -1.1448 -0.4888
10422TIP3    H252758   0.846   0.614  15.173  0.8182 -0.4854 -3.6126
10423TIP3   OH252759   2.188   0.907  11.731  0.3474 -0.0696 -0.2001
10423TIP3    H152760   2.121   0.964  11.768  0.8968  1.1878 -1.0567
10423TIP3    H252761   2.145   0.865  11.656 -0.0597 -0.8266  0.4374
10424TIP3   OH252762   3.129   3.235  14.019 -0.6714 -0.5997  0.9602
10424TIP3    H152763   3.034   3.226  14.013 -1.1987  2.2089  2.7681
10424TIP3    H252764   3.158   3.243  13.928 -2.5972  1.2800  0.4160
10425TIP3   OH252765   1.689   3.435  15.345  0.1755 -0.0730 -0.0483
10425TIP3    H152766   1.594   3.438  15.346  0.1589  2.0195  2.2944
10425TIP3    H252767   1.710   3.345  15.321 -2.3109 -0.2730 -1.8527
10426TIP3   OH252768   4.684   3.532  12.040 -0.0751  0.5530 -0.1682
10426TIP3    H152769   4.609   3.523  12.099 -0.8132 -3.0335 -1.3717
10426TIP3    H252770   4.648   3.570  11.960 -0.0527  1.1135  0.0831
10427TIP3   OH252771   4.289   2.291  14.505 -0.2719  0.3474  0.1319
10427TIP3    H152772   4.223   2.276  14.438 -1.0480  0.7474  0.7824
10427TIP3    H252773   4.333   2.371  14.477 -0.7727  0.6622  0.2263
10428TIP3   OH252774   0.179   3.404   3.149 -0.1058 -0.1412 -0.0242
10428TIP3    H152775   0.119   3.460   3.099  0.1268 -2.2744 -2.9252
10428TIP3    H252776   0.263   3.450   3.146 -0.6172  0.8652  0.4885
10429TIP3   OH252777   2.136   6.463   0.677 -0.9739  1.1349 -0.5571
10429TIP3    H152778   2.185   6.448   0.758  0.1163  2.1166 -1.0241
10429TIP3    H252779   2.066   6.523   0.703 -0.0986  2.1564 -0.5004
10430TIP3   OH252780   6.384   2.578  14.359  0.3180  0.4760  0.1888
10430TIP3    H152781   6.327   2.537  14.294  0.2799  0.2955  0.3347
10430TIP3    H252782   6.324   2.607  14.428  0.4582 -0.2279  0.6153
10431TIP3   OH252783   0.896   3.485  16.535 -0.0075 -1.0717  0.1192
10431TIP3    H152784   0.914   3.422  16.605 -1.4062 -0.6470  0.8920
10431TIP3    H252785   0.974   3.540  16.531 -0.1105 -0.7535  1.7352
10432TIP3   OH252786   5.709   4.932   4.436 -0.6271  0.4091 -0.1039
10432TIP3    H152787   5.690   4.877   4.512 -0.9923 -1.4751 -1.4941
10432TIP3    H252788   5.797   4.907   4.408  0.2343  2.3642  0.6987
10433TIP3   OH252789   4.962   0.007   3.050 -0.2083  0.0153  0.0875
10433TIP3    H152790   5.042   0.045   3.015  1.7194 -0.1957  3.7505
10433TIP3    H252791   4.980  -0.087   3.054 -1.8425 -0.4317 -1.6101
10434TIP3   OH252792   2.734   6.161   0.518 -0.2597  0.3015  0.0903
10434TIP3    H152793   2.796   6.232   0.504  0.0687 -0.2822 -1.7000
10434TIP3    H252794   2.649   6.205   0.531 -0.4770  1.0901 -3.0936
10435TIP3   OH252795   6.190   1.791  12.103 -0.3062 -0.0603 -0.2778
10435TIP3    H152796   6.199   1.783  12.008  0.3746 -1.8729 -0.0929
10435TIP3    H252797   6.141   1.714  12.129  0.4738 -0.1628  0.9623
10436TIP3   OH252798   3.354   5.674  14.049 -0.1944 -0.1207 -0.0218
10436TIP3    H152799   3.394   5.715  13.972 -0.6681  0.6472  0.1285
10436TIP3    H252800   3.420   5.613  14.081  1.0192  1.3875  0.4512
10437TIP3   OH252801   5.042   4.766   0.765 -0.0299 -0.0038  0.1256
10437TIP3    H152802   5.102   4.731   0.831 -0.5564 -2.2745 -0.5148
10437TIP3    H252803   4.972   4.701   0.759 -0.1703  0.2774 -2.4186
10438TIP3   OH252804   0.355   5.889  14.565  0.3401  0.3507  0.1543
10438TIP3    H152805   0.362   5.794  14.551  0.0837  0.4232 -0.5001
10438TIP3    H252806   0.368   5.927  14.478  1.4273  0.9723  0.5602
10439TIP3   OH252807   5.262   6.661  10.674  0.1107 -0.0842  0.1578
10439TIP3    H152808   5.329   6.723  10.702 -0.5492 -0.1083  1.8971
10439TIP3    H252809   5.182   6.713  10.667  0.5583  0.4250 -3.9746
10440TIP3   OH252810   3.307   3.600   6.566 -0.4859 -0.1562 -0.0413
10440TIP3    H152811   3.383   3.544   6.554 -1.2291 -0.9848 -1.2320
10440TIP3    H252812   3.300   3.648   6.483 -0.4435  0.9691  0.5915
10441TIP3   OH252813   4.296   4.053  15.999 -0.3640 -0.1776 -0.0136
10441TIP3    H152814   4.269   3.974  15.952 -0.7076 -0.9263  1.3890
10441TIP3    H252815   4.389   4.062  15.980 -0.5133 -0.3828 -0.9116
10442TIP3   OH252816   2.460   4.125   5.106 -0.0786 -0.3348 -0.0629
10442TIP3    H152817   2.537   4.101   5.157  0.7531 -1.1230 -1.6464
10442TIP3    H252818   2.387   4.114   5.167  0.9202 -0.7780  1.0924
10443TIP3   OH252819   0.542   3.947   4.083 -0.1113 -0.7958  0.0771
10443TIP3    H152820   0.570   3.953   4.174 -0.0461 -2.1276  0.1579
10443TIP3    H252821   0.598   3.879   4.045  0.5136  0.3931 -1.2188
10444TIP3   OH252822   4.314   1.446  13.767  0.0611  0.1094  0.8175
10444TIP3    H152823   4.342   1.517  13.824 -0.9699  0.4820  0.8918
10444TIP3    H252824   4.218   1.450  13.769 -0.0178  0.1874 -0.9891
10445TIP3   OH252825   1.008   0.420  14.521 -0.4152  0.2830  0.4635
10445TIP3    H152826   1.036   0.405  14.430  0.4567  1.0441  0.5937
10445TIP3    H252827   0.922   0.461  14.513 -0.9291 -0.8206  0.0267
10446TIP3   OH252828   6.236   2.193   0.446  0.2335  0.8021 -0.1002
10446TIP3    H152829   6.188   2.128   0.497  0.5633  0.8320  0.2560
10446TIP3    H252830   6.300   2.143   0.396  0.5074  0.8436  0.1964
10447TIP3   OH252831   4.832   4.192   0.634  0.3581  0.0448 -0.0365
10447TIP3    H152832   4.920   4.191   0.672  0.0399 -0.1369  0.7127
10447TIP3    H252833   4.833   4.124   0.567 -0.2017 -2.4443  2.3093
10448TIP3   OH252834   2.807   3.892  16.019  0.0248 -0.2116  0.0751
10448TIP3    H152835   2.895   3.906  16.053  0.4311 -2.1311 -0.0373
10448TIP3    H252836   2.814   3.910  15.926  0.5939 -1.3709 -0.1256
10449TIP3   OH252837   4.163   6.773   1.962  0.5341 -0.8184  0.4161
10449TIP3    H152838   4.070   6.751   1.963  0.5313 -0.8232  0.1626
10449TIP3    H252839   4.175   6.825   1.882  0.7367 -0.7657  0.4793
10450TIP3   OH252840   3.314   2.284  15.386 -0.4417  0.1282  0.1480
10450TIP3    H152841   3.258   2.360  15.374  0.8474  1.0071 -0.4819
10450TIP3    H252842   3.303   2.232  15.306  1.0222  1.2529 -0.8350
10451TIP3   OH252843   5.365   3.196  13.281  0.3184  0.1119  0.0721
10451TIP3    H152844   5.287   3.176  13.229  0.5361 -0.8172  0.0979
10451TIP3    H252845   5.435   3.206  13.216  0.4130 -0.2037  0.1228
10452TIP3   OH252846   4.632   5.869   0.944  0.5015  0.3344 -0.3066
10452TIP3    H152847   4.558   5.917   0.982  1.5678  1.2242  0.7265
10452TIP3    H252848   4.641   5.791   1.000  0.6198  0.4463 -0.1708
10453TIP3   OH252849   4.897   3.174   5.352  0.3813 -0.3733  0.6514
10453TIP3    H152850   4.874   3.254   5.305 -1.5952 -1.0447  0.3655
10453TIP3    H252851   4.887   3.196   5.445  2.2093  0.3515  0.7124
10454TIP3   OH252852   1.182   3.969  14.799  0.0350 -0.0543  0.0953
10454TIP3    H152853   1.248   3.944  14.735  0.8220 -1.1353  1.2730
10454TIP3    H252854   1.232   3.991  14.878 -0.9767 -1.2731  1.1337
10455TIP3   OH252855   2.883   5.720  14.412  0.2970  0.0359  0.5002
10455TIP3    H152856   2.955   5.710  14.349  0.0311  3.4127 -0.5009
10455TIP3    H252857   2.804   5.710  14.360  0.0809  2.2581  0.3283
10456TIP3   OH252858   1.186   5.626  11.802 -0.2269  0.3927  0.2537
10456TIP3    H152859   1.096   5.636  11.773 -0.8426  0.1445  1.9670
10456TIP3    H252860   1.181   5.566  11.876  1.7538 -2.3000 -1.5704
10457TIP3   OH252861   6.709   3.105  13.275  0.3183  0.3916  0.1883
10457TIP3    H152862   6.708   3.054  13.194 -0.1476 -0.0849  0.4870
10457TIP3    H252863   6.669   3.047  13.340 -0.3404  1.1819  0.5087
10458TIP3   OH252864   0.934   5.710   3.418  0.0152  0.2201  0.0046
10458TIP3    H152865   0.998   5.769   3.458 -0.0406 -0.1303  0.6300
10458TIP3    H252866   0.851   5.757   3.423  0.2629  0.7951 -1.0701
10459TIP3   OH252867   1.455   3.646  15.723 -0.0303  0.0058 -0.0704
10459TIP3    H152868   1.501   3.692  15.653 -0.8122  1.6188  0.4378
10459TIP3    H252869   1.368   3.628  15.687 -0.3063  0.4947  0.3537
10460TIP3   OH252870   1.066   4.967   0.882 -0.8044 -0.2382  0.5689
10460TIP3    H152871   1.137   4.918   0.840 -0.7029  0.1435  0.2940
10460TIP3    H252872   1.026   5.017   0.811 -1.8947 -1.0825  0.5424
10461TIP3   OH252873   5.065   4.149  15.130  0.7282  0.4530  0.1316
10461TIP3    H152874   5.037   4.174  15.217 -0.6971 -0.7943  0.0755
10461TIP3    H252875   5.150   4.107  15.144  0.9715  1.1493  0.7811
10462TIP3   OH252876   0.716   5.504  12.878  0.3061  0.1921  0.0675
10462TIP3    H152877   0.642   5.510  12.817  0.9093 -1.1838 -0.8552
10462TIP3    H252878   0.723   5.591  12.916 -2.0748  0.2589  0.5313
10463TIP3   OH252879   3.670   4.568  13.182 -0.1879 -0.2692 -0.0185
10463TIP3    H152880   3.626   4.623  13.246  1.7368  0.3799  0.8391
10463TIP3    H252881   3.671   4.620  13.101  0.0312  0.2216  0.2921
10464TIP3   OH252882   4.236   3.739  15.018  0.2357 -0.3536 -0.2284
10464TIP3    H152883   4.195   3.716  15.102 -1.9475 -1.8774 -1.6063
10464TIP3    H252884   4.241   3.657  14.971  0.6812  0.6039 -1.9239
10465TIP3   OH252885   0.644   5.229   3.265 -0.0886 -0.1926 -0.7716
10465TIP3    H152886   0.565   5.195   3.223 -0.3695 -0.3284 -0.1365
10465TIP3    H252887   0.694   5.268   3.193 -1.2852  0.9688 -1.0170
10466TIP3   OH252888   2.054   3.774  15.116 -0.1531 -0.5865 -0.6378
10466TIP3    H152889   2.089   3.853  15.158 -1.6432  0.2389 -0.8889
10466TIP3    H252890   1.973   3.756  15.162  0.1468 -1.9763 -0.6194
10467TIP3   OH252891   3.268   4.274   2.737  0.2502 -0.1577  0.2715
10467TIP3    H152892   3.278   4.363   2.701  0.0341  0.1547  0.9641
10467TIP3    H252893   3.233   4.288   2.825 -0.2823 -0.9588  0.1911
10468TIP3   OH252894   4.865   2.460   5.157 -0.3628  0.4232 -0.5915
10468TIP3    H152895   4.820   2.544   5.155 -0.8396  0.2508  1.2649
10468TIP3    H252896   4.817   2.405   5.095 -1.0995  1.0248 -0.5649
10469TIP3   OH252897   1.103   6.686  15.012 -0.0041  0.0517 -0.5361
10469TIP3    H152898   1.074   6.681  15.103 -1.2444 -0.5899 -0.9377
10469TIP3    H252899   1.073   6.772  14.982  1.4718  0.7741 -0.0171
10470TIP3   OH252900   4.086   6.215  11.170  0.1288 -0.3309  0.1058
10470TIP3    H152901   4.111   6.305  11.191  0.1252 -0.1041 -0.7974
10470TIP3    H252902   4.161   6.179  11.122  0.1551 -0.8353  0.5106
10471TIP3   OH252903   0.285   4.258  16.446  0.3206  0.4980 -0.0038
10471TIP3    H152904   0.323   4.289  16.363 -0.9854 -0.0944 -0.8625
10471TIP3    H252905   0.204   4.213  16.420 -0.6130  1.1147  1.6911
10472TIP3   OH252906   0.179   2.576   6.012 -0.3063  0.1365 -0.0163
10472TIP3    H152907   0.220   2.598   5.928  0.7288  0.3260  0.5330
10472TIP3    H252908   0.198   2.651   6.069 -2.4323  0.7986 -0.0656
10473TIP3   OH252909   4.321   4.416   4.020 -0.8091 -0.2998  0.1306
10473TIP3    H152910   4.408   4.456   4.012 -1.5969  1.4870  0.0446
10473TIP3    H252911   4.275   4.472   4.083 -1.5025 -1.9635  1.1515
10474TIP3   OH252912   0.103   2.924   5.049 -0.1952  0.0209 -0.3259
10474TIP3    H152913   0.019   2.892   5.017 -0.5381  0.2167  0.3649
10474TIP3    H252914   0.149   2.953   4.970 -0.4646 -0.7903 -0.8003
10475TIP3   OH252915   4.626   4.870   4.642 -0.0554 -0.0699 -0.0021
10475TIP3    H152916   4.537   4.833   4.639  0.5125 -1.9850  2.6164
10475TIP3    H252917   4.678   4.812   4.587 -0.4035  1.1931 -1.7323
10476TIP3   OH252918   0.043   0.004  16.836 -0.0790  0.5201 -0.0043
10476TIP3    H152919   0.001   0.033  16.755  2.5987 -0.8119 -1.9797
10476TIP3    H252920  -0.029  -0.035  16.887 -2.0136  2.2712 -1.2087
10477TIP3   OH252921   0.944   3.289  16.915 -0.2911 -0.0986  0.9005
10477TIP3    H152922   1.013   3.272  16.979 -0.6406 -0.5925  1.1495
10477TIP3    H252923   0.987   3.281  16.830  0.2653  0.9353  1.0654
10478TIP3   OH252924   3.818   0.186   2.088 -0.1330 -0.1732 -0.1546
10478TIP3    H152925   3.798   0.276   2.062 -0.1548  0.3618  1.5690
10478TIP3    H252926   3.744   0.161   2.143  0.1447 -1.0502 -0.1719
10479TIP3   OH252927   3.776   1.532  13.773 -0.3916  0.0303 -0.0858
10479TIP3    H152928   3.861   1.539  13.729 -0.7968 -0.1834 -0.9198
10479TIP3    H252929   3.719   1.591  13.724  0.4211  4.4992  3.5745
10480TIP3   OH252930   2.414   4.055   4.352  0.6439  0.7523  0.3446
10480TIP3    H152931   2.435   3.987   4.415  0.1875  2.7874  2.8583
10480TIP3    H252932   2.340   4.021   4.302 -0.9458  0.1733  2.9498
10481TIP3   OH252933   4.066   2.336  11.190  0.1071 -0.2043  1.2643
10481TIP3    H152934   4.142   2.293  11.150 -1.5718 -3.8049  1.4992
10481TIP3    H252935   3.997   2.331  11.123 -1.3537 -1.9207  2.7862
10482TIP3   OH252936   1.959   6.303   3.522 -0.3742 -0.5897 -0.4423
10482TIP3    H152937   2.022   6.293   3.593  0.3439 -0.2744 -1.0187
10482TIP3    H252938   1.898   6.370   3.553 -1.4250 -2.0312  0.7904
10483TIP3   OH252939   6.357   1.890  15.430 -0.3265  0.5312  0.2692
10483TIP3    H152940   6.376   1.973  15.387  1.2679  0.0144 -0.0739
10483TIP3    H252941   6.271   1.903  15.470 -1.3210  1.4315 -2.0069
10484TIP3   OH252942   3.117   4.182   1.351 -0.2321 -0.1952  0.5817
10484TIP3    H152943   3.151   4.272   1.353 -0.3277 -0.0015 -2.0327
10484TIP3    H252944   3.031   4.188   1.392  0.5971  0.4475  2.3046
10485TIP3   OH252945   5.005   2.510  13.727  0.3093  0.1735  0.3280
10485TIP3    H152946   5.040   2.528  13.814  0.1313  1.0902  0.2143
10485TIP3    H252947   5.083   2.496  13.673  0.4119 -1.8684  0.9090
10486TIP3   OH252948   0.057   0.301   3.909 -0.3694 -0.4758  0.3436
10486TIP3    H152949  -0.020   0.356   3.894  0.2598  0.3318 -0.0191
10486TIP3    H252950   0.026   0.230   3.965 -1.2531  0.1227  0.6251
10487TIP3   OH252951   2.997   4.440  14.102 -0.4047  0.0073 -0.1032
10487TIP3    H152952   3.067   4.394  14.149  0.9445  0.1613 -1.8720
10487TIP3    H252953   3.001   4.405  14.013 -2.5753  0.0686 -0.2722
10488TIP3   OH252954   1.896   5.237  14.427  0.6397  0.2957 -0.0121
10488TIP3    H152955   1.887   5.143  14.444  0.9461  0.5530  1.8025
10488TIP3    H252956   1.821   5.258  14.372 -0.3093 -0.7527  0.8106
10489TIP3   OH252957   4.618   6.056  13.266  0.1564  0.0638  0.5340
10489TIP3    H152958   4.589   5.965  13.267 -0.3874  0.2214  2.0444
10489TIP3    H252959   4.684   6.061  13.336  0.5911  0.7080  0.0929
10490TIP3   OH252960   6.467   4.811   2.413 -0.2140 -0.3622  0.2117
10490TIP3    H152961   6.468   4.885   2.473  0.2870  1.8532 -2.3136
10490TIP3    H252962   6.385   4.820   2.365 -0.9640 -2.5099  0.9708
10491TIP3   OH252963   2.891   1.945  13.000  0.1571  0.1710  0.2728
10491TIP3    H152964   2.880   2.020  12.942  0.7784  0.1230  0.0895
10491TIP3    H252965   2.933   1.980  13.078  0.0908  0.0864  0.3464
10492TIP3   OH252966   4.360   6.423  15.389 -0.3268  0.1776 -0.5696
10492TIP3    H152967   4.326   6.467  15.311  2.0676 -1.0663 -2.4694
10492TIP3    H252968   4.438   6.473  15.412 -0.5946  0.0769  0.5794
10493TIP3   OH252969   4.611   3.672   2.648 -0.0801  0.0125  0.1192
10493TIP3    H152970   4.683   3.709   2.699  0.1190  0.1097 -0.2279
10493TIP3    H252971   4.539   3.733   2.659 -0.0731 -0.0234  0.3722
10494TIP3   OH252972   3.323   4.362  13.975 -0.7349 -0.0212 -0.2098
10494TIP3    H152973   3.318   4.386  14.067  0.0433  1.8441 -0.6009
10494TIP3    H252974   3.288   4.439  13.929  0.6292 -0.1451 -1.5187
10495TIP3   OH252975   2.805   2.244   1.440  0.2914  0.1193 -0.1056
10495TIP3    H152976   2.786   2.295   1.519  1.1004  0.7922 -0.3228
10495TIP3    H252977   2.771   2.156   1.459  2.0930 -0.2513  1.7365
10496TIP3   OH252978   1.631   2.712   3.428  0.1678  0.4152 -0.1391
10496TIP3    H152979   1.543   2.678   3.444  1.2248 -2.4172  0.1938
10496TIP3    H252980   1.655   2.678   3.342  1.1018  0.7872 -0.0371
10497TIP3   OH252981   3.496   0.307  12.590  0.5153 -0.7736 -0.1183
10497TIP3    H152982   3.465   0.233  12.641 -1.1781  0.5274  0.8638
10497TIP3    H252983   3.535   0.269  12.512 -3.2285 -2.6747 -1.2981
10498TIP3   OH252984   5.498   1.518   4.763 -0.1102  0.0145 -0.8746
10498TIP3    H152985   5.505   1.438   4.711 -0.9556 -0.8715  0.3051
10498TIP3    H252986   5.427   1.501   4.824 -0.2048  1.6267 -0.4791
10499TIP3   OH252987   3.638   3.916  14.008  0.9138  0.2073  0.0286
10499TIP3    H152988   3.586   3.975  14.063  0.0642  1.2241 -1.7633
10499TIP3    H252989   3.594   3.831  14.014 -1.8568  1.3077 -2.3889
10500TIP3   OH252990   6.550   0.854  14.436 -0.2501  0.2529  0.8401
10500TIP3    H152991   6.537   0.878  14.528 -2.5965  2.9927 -0.0647
10500TIP3    H252992   6.625   0.906  14.408  1.7836 -2.1109  1.6098
10501TIP3   OH252993   0.808   4.411   3.881  0.5029 -0.8887 -0.2913
10501TIP3    H152994   0.721   4.420   3.843  0.6375  0.1081 -0.3809
10501TIP3    H252995   0.848   4.340   3.832  0.3182 -0.2828 -1.3553
10502TIP3   OH252996   3.788   2.744   4.808 -0.9778  0.2106 -0.1407
10502TIP3    H152997   3.825   2.827   4.840 -0.7594  0.1176 -0.1565
10502TIP3    H252998   3.776   2.692   4.887  1.5201 -0.8386 -0.3677
10503TIP3   OH252999   4.655   5.421   1.339  0.6642 -0.0886 -0.9086
10503TIP3    H153000   4.559   5.414   1.331  0.6498 -0.1765 -0.6511
10503TIP3    H253001   4.683   5.333   1.364  0.5766  0.5084  1.4673
10504TIP3   OH253002   5.786   5.760   4.372  0.2346 -0.4423 -0.4373
10504TIP3    H153003   5.723   5.725   4.435  0.3702  0.7187  0.3694
10504TIP3    H253004   5.795   5.691   4.306 -0.3602 -1.4342  0.4941
10505TIP3   OH253005   6.703   3.632   6.305 -0.5435  0.5151  0.2071
10505TIP3    H153006   6.740   3.549   6.336 -1.0730 -0.1346 -0.8379
10505TIP3    H253007   6.780   3.686   6.284 -0.1692 -0.3116 -0.6330
10506TIP3   OH253008   3.934   1.429  14.092  0.3065  0.0720 -0.4044
10506TIP3    H153009   3.986   1.476  14.157  1.4885  0.5763 -1.6658
10506TIP3    H253010   3.843   1.449  14.114  0.6794  0.3088  1.0090
10507TIP3   OH253011   2.178   1.598  11.388  0.4217 -0.4323 -0.2820
10507TIP3    H153012   2.094   1.561  11.360  0.3246 -1.6046  1.4020
10507TIP3    H253013   2.178   1.588  11.483  1.9893  0.6186 -0.1366
10508TIP3   OH253014   3.977   3.244  12.833  0.0764  0.1539 -0.4417
10508TIP3    H153015   4.025   3.298  12.896  0.5588 -1.4393  0.6314
10508TIP3    H253016   4.034   3.239  12.757  1.1409 -0.7699  0.3790
10509TIP3   OH253017   1.787   2.681  11.412 -0.0983  0.1466 -0.0833
10509TIP3    H153018   1.798   2.757  11.354 -1.9544 -0.8011 -1.8280
10509TIP3    H253019   1.862   2.625  11.392  1.2449  1.4168  1.1623
10510TIP3   OH253020   4.061   0.806   1.200  0.1703  0.0936 -0.2430
10510TIP3    H153021   4.126   0.829   1.132  0.5570  2.2775  0.7598
10510TIP3    H253022   3.982   0.853   1.174  0.2792  0.8361  0.7007
10511TIP3   OH253023   3.243   1.319  16.428  0.4597  1.1383  0.0317
10511TIP3    H153024   3.288   1.287  16.506  2.1329 -1.6508 -1.9169
10511TIP3    H253025   3.300   1.294  16.355  0.1036  5.5661 -2.0731
10512TIP3   OH253026   4.806   2.651   2.489  0.0887 -0.2395 -0.0254
10512TIP3    H153027   4.900   2.645   2.507 -0.1057 -2.6537  0.4677
10512TIP3    H253028   4.770   2.698   2.564  0.7430 -0.3282  0.3519
10513TIP3   OH253029   1.084   6.207   6.546 -0.0053  0.1002  1.2335
10513TIP3    H153030   0.989   6.219   6.548 -0.0666 -0.2693  0.7276
10513TIP3    H253031   1.117   6.268   6.612 -0.6013  0.1507  1.4927
10514TIP3   OH253032   6.569   3.562   3.086  0.3395 -0.1935 -0.3375
10514TIP3    H153033   6.557   3.601   3.172  1.1513 -0.1888 -0.2211
10514TIP3    H253034   6.524   3.621   3.026  1.4716  0.8870 -0.1516
10515TIP3   OH253035   2.383   5.626  11.477  0.5482  0.3470 -0.3935
10515TIP3    H153036   2.384   5.703  11.533  0.4608 -0.3936  0.6558
10515TIP3    H253037   2.455   5.572  11.509 -0.2793 -0.6497 -0.1707
10516TIP3   OH253038   6.812   6.750  12.784 -0.2144 -0.0832  0.2259
10516TIP3    H153039   6.895   6.798  12.793  0.7202 -1.9483  2.9830
10516TIP3    H253040   6.753   6.792  12.846 -1.1585  0.7507 -1.1774
10517TIP3   OH253041   1.185   3.059  16.351 -0.2640 -0.5034 -0.2318
10517TIP3    H153042   1.230   3.056  16.267 -0.4673  1.4741 -0.4575
10517TIP3    H253043   1.122   3.130  16.342 -1.5767 -1.4431  0.9902
10518TIP3   OH253044   1.401   5.305  13.596  0.5469  0.1355 -0.2414
10518TIP3    H153045   1.409   5.220  13.639 -2.4740  1.1972  2.9308
10518TIP3    H253046   1.340   5.289  13.524 -0.4364 -0.3946  0.6628
10519TIP3   OH253047   2.386   0.549   2.560  0.0693 -0.4599 -0.5981
10519TIP3    H153048   2.319   0.550   2.492  2.1966  1.5022 -2.8681
10519TIP3    H253049   2.425   0.462   2.553 -2.0984 -1.6184  0.7425
10520TIP3   OH253050   0.562   4.662  11.108  0.2562  0.0932  0.3219
10520TIP3    H153051   0.567   4.751  11.142 -1.1107  0.7920 -1.1816
10520TIP3    H253052   0.543   4.608  11.185 -2.3964  1.5667  0.8260
10521TIP3   OH253053   6.704   5.411  15.755 -0.1938 -0.3925  0.0609
10521TIP3    H153054   6.779   5.380  15.704  0.1067  0.1257  0.1796
10521TIP3    H253055   6.742   5.469  15.820 -0.6043 -0.8256  0.7040
10522TIP3   OH253056   0.782   1.132   5.196  0.1007  0.7007 -1.1977
10522TIP3    H153057   0.730   1.123   5.276 -1.0743 -0.9204 -2.0806
10522TIP3    H253058   0.776   1.046   5.154  2.0592  1.0186 -2.2295
10523TIP3   OH253059   2.650   1.392   0.563  0.1408 -0.1450  0.0813
10523TIP3    H153060   2.570   1.437   0.590 -1.0013 -1.4093 -1.0447
10523TIP3    H253061   2.655   1.407   0.468  1.2368 -0.0879  0.1397
10524TIP3   OH253062   0.641   2.242   3.457 -0.2135 -0.2864  0.3625
10524TIP3    H153063   0.669   2.331   3.438 -0.9908  0.2578  1.6318
10524TIP3    H253064   0.693   2.187   3.398  0.5513  0.9668 -0.1654
10525TIP3   OH253065   0.990   0.090  16.524 -0.0407 -0.0182 -0.4964
10525TIP3    H153066   1.052   0.109  16.595  1.4988 -0.3183 -1.6905
10525TIP3    H253067   0.954   0.176  16.500 -0.1354  0.1567  0.2577
10526TIP3   OH253068   0.700   5.863   3.487  0.8127 -0.5703 -0.0339
10526TIP3    H153069   0.698   5.926   3.559 -1.6710  0.4164 -0.8643
10526TIP3    H253070   0.652   5.787   3.520  0.6332 -0.5649 -0.2825
10527TIP3   OH253071   0.923   6.298   2.692 -0.0962  0.2270  0.4174
10527TIP3    H153072   0.828   6.283   2.699 -0.4759  0.6303 -2.4880
10527TIP3    H253073   0.933   6.392   2.707  0.0149  0.0105  1.7869
10528TIP3   OH253074   2.701   1.781  15.268 -0.2290 -0.0750 -0.2207
10528TIP3    H153075   2.732   1.772  15.359 -0.1706  0.6112 -0.1632
10528TIP3    H253076   2.773   1.827  15.224 -0.3277 -0.2637 -0.5736
10529TIP3   OH253077   6.684   1.993   5.231  0.1813 -0.0997  0.2789
10529TIP3    H153078   6.685   1.945   5.314  0.6917 -0.7906 -0.1190
10529TIP3    H253079   6.764   1.965   5.186 -0.4473 -0.2672 -0.7573
10530TIP3   OH253080   1.640   5.205   0.812 -0.3919  0.0305  0.1387
10530TIP3    H153081   1.545   5.213   0.825 -0.3257  1.3190 -0.1273
10530TIP3    H253082   1.648   5.137   0.745 -1.0525 -1.0424  1.0939
10531TIP3   OH253083   6.530   2.067  14.174 -0.4084  0.3830  0.2730
10531TIP3    H153084   6.548   1.993  14.117 -0.7488  0.3426  0.2153
10531TIP3    H253085   6.591   2.057  14.247  0.8518  1.0777 -0.6457
10532TIP3   OH253086   1.885   6.634   2.816  0.3859 -0.1578 -0.3027
10532TIP3    H153087   1.813   6.673   2.766  0.4539  0.2383 -0.1000
10532TIP3    H253088   1.850   6.626   2.905  0.7470  0.4837 -0.0950
10533TIP3   OH253089   2.925   5.437  16.591  0.0465  0.2714  0.2561
10533TIP3    H153090   2.950   5.491  16.666  1.4262 -1.9173  1.5179
10533TIP3    H253091   2.866   5.492  16.539  1.9211  3.1967  0.9982
10534TIP3   OH253092   2.370   2.993  13.020  0.2190 -0.2960  0.1531
10534TIP3    H153093   2.334   3.061  12.962  1.1694 -1.2269 -1.6087
10534TIP3    H253094   2.296   2.968  13.075 -0.2145  2.0144  0.7560
10535TIP3   OH253095   3.706   0.972  17.260 -0.3732 -0.8156  0.0791
10535TIP3    H153096   3.621   0.977  17.303  0.6490  2.0309  2.1248
10535TIP3    H253097   3.694   1.018  17.177 -0.6531  0.5709  0.8520
10536TIP3   OH253098   6.778   2.690   0.769 -0.0404  0.1045  0.0119
10536TIP3    H153099   6.683   2.683   0.761 -0.0108 -0.5266  0.1931
10536TIP3    H253100   6.803   2.621   0.830  0.4925  0.5275  0.2855
10537TIP3   OH253101   5.574   1.086   5.774 -0.1210  0.1420  0.4988
10537TIP3    H153102   5.531   1.053   5.853  2.3586  0.0671  1.9122
10537TIP3    H253103   5.609   1.008   5.730  0.2224  0.3457  0.4037
10538TIP3   OH253104   2.851   4.167   2.825  0.4995  0.5259  0.0921
10538TIP3    H153105   2.808   4.155   2.909 -1.2769  0.3154 -0.7952
10538TIP3    H253106   2.779   4.168   2.761  1.8206  0.2412 -1.4689
10539TIP3   OH253107   2.500   1.820  14.601  0.3665 -0.4172 -0.2298
10539TIP3    H153108   2.576   1.831  14.659 -0.1922  0.2530  0.3975
10539TIP3    H253109   2.536   1.827  14.513  0.9771  0.3117  0.0676
10540TIP3   OH253110   1.102   5.871  16.879  0.2750 -0.1853 -0.2127
10540TIP3    H153111   1.024   5.816  16.882 -0.0071  0.1693 -0.9499
10540TIP3    H253112   1.101   5.919  16.962  0.0162 -0.5922  0.0218
10541TIP3   OH253113   0.006   0.442  13.505 -0.2171 -0.2201  0.5042
10541TIP3    H153114   0.005   0.403  13.418  2.7178  2.3963 -0.9113
10541TIP3    H253115  -0.039   0.526  13.495  1.5985  0.8810  0.9487
10542TIP3   OH253116   1.920   6.137  15.438 -0.1445  0.0383  0.1813
10542TIP3    H153117   1.992   6.100  15.387 -0.4216 -0.6200  0.2608
10542TIP3    H253118   1.852   6.155  15.373 -0.0634  0.2725  0.1621
10543TIP3   OH253119   0.194   5.740  11.579  0.2913  0.4812  0.1875
10543TIP3    H153120   0.146   5.793  11.515  1.1114  1.9518  0.7231
10543TIP3    H253121   0.128   5.683  11.617 -0.7812  1.5493  0.0039
10544TIP3   OH253122   5.753   2.769   0.217  0.5063  0.7530  0.1214
10544TIP3    H153123   5.714   2.696   0.264  0.1529  1.2490  0.6175
10544TIP3    H253124   5.680   2.813   0.174  0.6602  1.0405  0.1461
10545TIP3   OH253125   4.011   3.870  13.501 -0.2248 -0.1936 -0.0815
10545TIP3    H153126   4.049   3.892  13.586 -0.6346  1.0875 -0.2076
10545TIP3    H253127   4.084   3.832  13.452 -0.1693 -1.6539  1.0736
10546TIP3   OH253128   5.673   2.071  14.963  0.5874  0.2299 -0.4000
10546TIP3    H153129   5.702   2.086  15.053  1.0827 -0.0843 -0.5027
10546TIP3    H253130   5.668   1.976  14.954 -1.8602  0.2521  0.0310
10547TIP3   OH253131   1.230   5.335   4.084  0.1264 -0.0492 -0.1502
10547TIP3    H153132   1.310   5.386   4.092  1.1499 -1.5845 -0.0426
10547TIP3    H253133   1.186   5.370   4.007 -0.2392  2.2705  1.0285
10548TIP3   OH253134   1.725   5.918   4.703 -0.5821 -0.3150  0.3104
10548TIP3    H153135   1.653   5.973   4.676 -0.4679 -0.4547 -0.2889
10548TIP3    H253136   1.780   5.975   4.758 -0.4913  0.1495 -0.2557
10549TIP3   OH253137   2.554   5.659  10.432 -0.2537  0.2442 -0.4291
10549TIP3    H153138   2.494   5.603  10.382 -1.8522  2.3972 -1.0933
10549TIP3    H253139   2.590   5.719  10.367  3.3383 -1.4014 -0.1934
10550TIP3   OH253140   4.454   5.216  10.382  0.6510 -0.3203 -0.1738
10550TIP3    H153141   4.456   5.275  10.308 -0.5332  0.5510  0.4492
10550TIP3    H253142   4.431   5.131  10.345 -1.8700  0.4770 -0.6546
10551TIP3   OH253143   5.501   4.443   3.621  0.1792 -0.4545  0.2048
10551TIP3    H153144   5.560   4.425   3.695  0.2868 -0.8810  0.0190
10551TIP3    H253145   5.531   4.384   3.552  1.7430  1.6986 -1.0963
10552TIP3   OH253146   0.282   2.242   0.280 -0.4676 -0.0416  0.8531
10552TIP3    H153147   0.249   2.215   0.366 -1.8682 -0.9148  0.0848
10552TIP3    H253148   0.203   2.255   0.227  0.3662  0.5836 -0.2800
10553TIP3   OH253149   6.619   6.389  16.659 -0.2311 -0.3305  0.0828
10553TIP3    H153150   6.615   6.324  16.729  1.1379  0.4579  0.9463
10553TIP3    H253151   6.629   6.337  16.579  0.9089 -1.2172  0.7597
10554TIP3   OH253152   0.872   4.199  14.097  0.5837 -0.5458 -0.5245
10554TIP3    H153153   0.819   4.194  14.178  1.0883  2.1015  0.0563
10554TIP3    H253154   0.904   4.289  14.096  2.3779 -1.1579 -2.6041
10555TIP3   OH253155   2.862   1.284  14.410  0.4487  0.2313 -0.4244
10555TIP3    H153156   2.793   1.243  14.463  0.9552  0.0286  0.0877
10555TIP3    H253157   2.909   1.211  14.371 -0.2488  0.3862 -1.6076
10556TIP3   OH253158   4.485   5.504  11.531  0.5540  0.0340  0.5455
10556TIP3    H153159   4.399   5.466  11.547  0.6559  0.1317  1.3866
10556TIP3    H253160   4.516   5.530  11.618  1.0289  0.8627  0.1450
10557TIP3   OH253161   5.738   3.788   3.891 -0.0015  0.0629 -0.3043
10557TIP3    H153162   5.656   3.740   3.891  0.9101 -1.5851  0.3622
10557TIP3    H253163   5.713   3.879   3.907 -1.5952 -0.6234  1.4755
10558TIP3   OH253164   3.071   4.850   3.699 -0.4002 -0.1814  0.5992
10558TIP3    H153165   3.085   4.930   3.650  1.3345 -0.9096 -0.1906
10558TIP3    H253166   3.109   4.867   3.785  0.6470 -0.3737  0.1889
10559TIP3   OH253167   5.185   4.158  13.939 -0.5907  0.1083 -0.7214
10559TIP3    H153168   5.158   4.200  13.857  0.7465 -0.3129 -1.4141
10559TIP3    H253169   5.148   4.212  14.008  0.2157  1.8463 -1.5895
10560TIP3   OH253170   1.810   2.528   6.032  0.0423 -0.1879  0.0069
10560TIP3    H153171   1.877   2.589   6.062 -1.2089  0.0749  2.5245
10560TIP3    H253172   1.856   2.445   6.022  0.9424  0.1918  0.8148
10561TIP3   OH253173   6.203   2.406  11.342 -0.7052  0.5195 -0.1606
10561TIP3    H153174   6.219   2.341  11.274  0.6293 -0.5704  1.1487
10561TIP3    H253175   6.125   2.454  11.311 -1.6368 -1.5672 -1.2512
10562TIP3   OH253176   5.887   2.180   3.585 -0.2783 -0.0563 -0.2000
10562TIP3    H153177   5.964   2.234   3.602 -0.5253  0.2959 -0.1893
10562TIP3    H253178   5.853   2.212   3.501 -0.8985  0.3612  0.2047
10563TIP3   OH253179   0.226   5.327   0.917  0.3285  0.4864  0.9148
10563TIP3    H153180   0.303   5.306   0.864 -0.8013  0.9648 -1.0298
10563TIP3    H253181   0.253   5.311   1.007  2.1190 -1.1185  0.1535
10564TIP3   OH253182   2.733   1.299  16.580 -0.4351  0.1372 -0.0577
10564TIP3    H153183   2.797   1.261  16.641  0.3712  1.7677  0.1554
10564TIP3    H253184   2.734   1.392  16.600 -3.3754  0.1609  0.3808
10565TIP3   OH253185   4.759   1.794   3.785 -0.1927 -0.1352  0.5070
10565TIP3    H153186   4.772   1.757   3.698 -0.3637  3.0405 -1.0034
10565TIP3    H253187   4.667   1.775   3.805 -0.8347  1.0220 -1.0933
10566TIP3   OH253188   5.857   4.736   5.215  0.0253  0.7388  0.2904
10566TIP3    H153189   5.881   4.726   5.123  0.3225 -1.0967  0.5248
10566TIP3    H253190   5.907   4.811   5.245  2.5155 -0.5798 -0.2575
10567TIP3   OH253191   1.471   1.411   0.859 -0.1808  0.2279 -0.3406
10567TIP3    H153192   1.470   1.372   0.771 -3.4352 -0.5583 -0.0766
10567TIP3    H253193   1.487   1.504   0.844 -1.6480  0.2740 -1.8933
10568TIP3   OH253194   1.867   3.557  12.678  0.3267 -0.6514 -0.2435
10568TIP3    H153195   1.818   3.493  12.625 -0.9500 -0.4297  0.6249
10568TIP3    H253196   1.858   3.639  12.630 -2.1235 -0.1017  0.9513
10569TIP3   OH253197   5.634   0.929   0.513 -0.0557 -0.7438 -0.0850
10569TIP3    H153198   5.586   0.986   0.573  1.1630 -0.2047  0.4091
10569TIP3    H253199   5.581   0.929   0.433 -1.1277 -0.5817  0.5976
10570TIP3   OH253200   6.084   6.488  14.501 -0.3473 -0.1894  0.7506
10570TIP3    H153201   6.083   6.493  14.406 -1.2235 -1.5111  0.6626
10570TIP3    H253202   6.155   6.546  14.528 -0.9271  1.2057 -0.6261
10571TIP3   OH253203   0.580   5.513   0.085  0.0520 -0.4505  0.6179
10571TIP3    H153204   0.673   5.494   0.072 -0.0843  0.2851 -2.0389
10571TIP3    H253205   0.577   5.605   0.110  0.0030 -0.2066 -0.2672
10572TIP3   OH253206   0.795   3.084   0.574  0.7229 -0.9711  0.0329
10572TIP3    H153207   0.702   3.077   0.595  0.2844  2.5496 -0.2005
10572TIP3    H253208   0.803   3.052   0.485 -0.2762 -1.2514  0.0376
10573TIP3   OH253209   1.272   5.698  12.993  0.7171  0.0713  0.4211
10573TIP3    H153210   1.304   5.784  13.021 -0.6603  0.5489  0.6406
10573TIP3    H253211   1.196   5.682  13.049  0.8983 -1.2499  0.3061
10574TIP3   OH253212   3.251   5.667  13.630  0.2790 -0.2414  0.4349
10574TIP3    H153213   3.203   5.636  13.553  0.0435  0.1209  0.4352
10574TIP3    H253214   3.183   5.689  13.693  0.4921 -1.3464  1.0730
10575TIP3   OH253215   5.038   2.389   5.587 -0.5793 -0.3426 -0.1895
10575TIP3    H153216   5.130   2.362   5.588 -0.2576  0.6481 -0.8741
10575TIP3    H253217   4.991   2.319   5.632  0.3942 -1.2936 -0.6258
10576TIP3   OH253218   2.251   0.282  13.718  0.7409 -0.3914  0.2867
10576TIP3    H153219   2.285   0.299  13.806 -1.3186  2.0095  0.7268
10576TIP3    H253220   2.241   0.368  13.679 -1.0714 -1.2193 -1.2449
10577TIP3   OH253221   3.427   1.589  14.421 -0.1837 -0.2167  0.4626
10577TIP3    H153222   3.496   1.655  14.429  0.8383 -1.3060  1.0009
10577TIP3    H253223   3.374   1.599  14.500  0.3863 -0.4829  0.8856
10578TIP3   OH253224   3.384   1.560   1.301 -0.0141 -0.4050 -0.3405
10578TIP3    H153225   3.303   1.528   1.342  1.6724 -2.9543  1.2901
10578TIP3    H253226   3.427   1.610   1.370  0.9367 -1.2157 -0.3268
10579TIP3   OH253227   0.178   5.460  11.453 -0.1803 -0.3621  0.1536
10579TIP3    H153228   0.235   5.398  11.409  0.9871  1.9270 -1.7777
10579TIP3    H253229   0.135   5.509  11.383 -0.5807  1.4116  1.5316
10580TIP3   OH253230   5.231   1.638   5.165 -0.0881  0.3703  0.1539
10580TIP3    H153231   5.291   1.626   5.238  2.7854 -1.1698 -2.2772
10580TIP3    H253232   5.206   1.731   5.169  4.0364  1.6611  0.2533
10581TIP3   OH253233   1.071   5.072  16.390  0.3860  0.3021 -0.4978
10581TIP3    H153234   1.117   5.031  16.317 -0.6628  0.3707 -1.2261
10581TIP3    H253235   0.978   5.057  16.371  0.0717  0.9386  0.4596
10582TIP3   OH253236   1.478   3.400   5.616 -0.1058  0.4639 -1.0959
10582TIP3    H153237   1.452   3.396   5.708  1.2734 -0.5835 -0.7152
10582TIP3    H253238   1.485   3.494   5.597 -2.3949  0.7531 -0.7588
10583TIP3   OH253239   4.443   0.863  11.370 -0.1814  0.1332  0.1273
10583TIP3    H153240   4.522   0.810  11.365 -1.2935 -1.5548 -0.3046
10583TIP3    H253241   4.428   0.875  11.464  2.0269  2.8167  0.2448
10584TIP3   OH253242   2.873   0.079  16.125  0.6782 -0.0036 -0.3175
10584TIP3    H153243   2.934   0.005  16.126  1.4446  0.5954  1.6324
10584TIP3    H253244   2.810   0.059  16.194  0.1138  0.5676 -0.6531
10585TIP3   OH253245   4.390   3.508  16.831 -0.0614  0.5609  0.3377
10585TIP3    H153246   4.330   3.463  16.891  0.3714 -0.6957 -0.1441
10585TIP3    H253247   4.443   3.564  16.888 -1.1102  1.0449  0.8646
10586TIP3   OH253248   1.627   5.628   4.149  0.3674  0.7293  0.2039
10586TIP3    H153249   1.586   5.550   4.113 -1.4832  2.4324 -1.6679
10586TIP3    H253250   1.648   5.605   4.239  0.3516 -2.0469 -0.4242
10587TIP3   OH253251   2.166   6.281   3.309 -0.2922  0.7665  0.3800
10587TIP3    H153252   2.251   6.317   3.332 -0.1740  0.1607  0.9046
10587TIP3    H253253   2.106   6.355   3.319 -0.0110  0.8966  1.1894
10588TIP3   OH253254   6.481   5.897   5.556  0.0254 -0.3528  0.0292
10588TIP3    H153255   6.415   5.966   5.554  0.7083  0.3464  1.0154
10588TIP3    H253256   6.523   5.905   5.642  0.5624 -1.5733 -0.0957
10589TIP3   OH253257   5.470   6.755   5.099 -0.2337 -0.2426 -0.0809
10589TIP3    H153258   5.450   6.832   5.047 -0.2764 -0.0808  0.1761
10589TIP3    H253259   5.428   6.683   5.053 -0.8526 -0.0007  0.1020
10590TIP3   OH253260   1.358   6.310   4.611  0.6879  0.1794  0.2690
10590TIP3    H153261   1.368   6.352   4.526  0.7773  0.5691  0.4729
10590TIP3    H253262   1.278   6.349   4.648  1.3279  0.9225  0.8936
10591TIP3   OH253263   4.720   0.860   0.572  0.0544  0.2038  0.2283
10591TIP3    H153264   4.706   0.816   0.656 -0.5636 -1.4648 -0.6938
10591TIP3    H253265   4.808   0.833   0.546 -0.1978 -0.2344 -0.1836
10592TIP3   OH253266   6.552   1.896  15.621 -0.0722 -0.1665 -0.4362
10592TIP3    H153267   6.559   1.840  15.699 -1.8255  0.0740 -0.0673
10592TIP3    H253268   6.485   1.854  15.568 -0.5468  0.9161 -0.7192
10593TIP3   OH253269   0.669   4.133   3.044 -0.1613 -0.9204  0.6691
10593TIP3    H153270   0.641   4.082   3.121 -1.5075  0.2339  0.9974
10593TIP3    H253271   0.721   4.205   3.080  0.1012 -0.9771  0.4034
10594TIP3   OH253272   3.247   1.233   1.773  0.0105 -0.0191 -0.1684
10594TIP3    H153273   3.153   1.229   1.789  0.0683  0.2824  0.2614
10594TIP3    H253274   3.283   1.281   1.848  0.7750 -1.9652  0.7830
10595TIP3   OH253275   3.835   2.594  15.242 -0.0009 -0.0084  0.9733
10595TIP3    H153276   3.903   2.528  15.228 -0.5394 -0.7797  1.8717
10595TIP3    H253277   3.787   2.563  15.319  0.1004  1.7518  1.7980
10596TIP3   OH253278   3.373   5.720  16.997  0.2963  0.0198  1.0199
10596TIP3    H153279   3.433   5.702  16.925  0.4215 -0.7000  1.2948
10596TIP3    H253280   3.355   5.634  17.036 -0.7815  0.2412  1.0503
10597TIP3   OH253281   0.488   3.999  16.787  0.0840  0.3830  0.1513
10597TIP3    H153282   0.447   4.040  16.863 -0.0346 -0.9460  0.8390
10597TIP3    H253283   0.449   3.912  16.783  2.4916 -0.8182  0.5948
10598TIP3   OH253284   0.217   2.611  16.681  0.4296  0.2018 -0.2067
10598TIP3    H153285   0.176   2.696  16.697 -3.0327 -1.6111  1.6634
10598TIP3    H253286   0.200   2.594  16.588 -1.8264  0.2180  0.1538
10599TIP3   OH253287   5.880   1.491  10.566 -0.4195 -0.3930  0.5930
10599TIP3    H153288   5.949   1.550  10.593 -1.8986  1.4593  0.5341
10599TIP3    H253289   5.800   1.543  10.573 -1.7207 -2.1937 -0.1183
10600TIP3   OH253290   4.335   3.646   5.387 -0.2767 -0.5047  0.5190
10600TIP3    H153291   4.382   3.600   5.318 -0.1700 -2.1377  1.6331
10600TIP3    H253292   4.307   3.728   5.346  3.0746  0.3588 -0.3370
10601TIP3   OH253293   5.605   0.321  12.754 -0.2014 -0.0397  0.1104
10601TIP3    H153294   5.655   0.385  12.703  1.8078 -1.3825  0.2355
10601TIP3    H253295   5.601   0.357  12.842  1.4422 -0.2821  0.3283
10602TIP3   OH253296   3.459   5.661  13.793 -0.1328 -0.1350 -0.0159
10602TIP3    H153297   3.370   5.655  13.758  0.6795 -1.2537 -2.0554
10602TIP3    H253298   3.488   5.570  13.800  0.8850  0.2238  0.5706
10603TIP3   OH253299   3.283   0.254   5.988  0.4107 -0.6604  0.6590
10603TIP3    H153300   3.295   0.179   5.930 -2.1852  0.0748 -1.0100
10603TIP3    H253301   3.355   0.313   5.967  1.2333 -1.7199  0.4258
10604TIP3   OH253302   4.456   4.245   0.039 -0.0822  0.1979  0.2199
10604TIP3    H153303   4.529   4.304   0.057  0.9253 -0.9560 -0.0157
10604TIP3    H253304   4.430   4.265  -0.051  1.6414 -1.1300 -0.6200
10605TIP3   OH253305   3.215   5.102   3.218  0.0787 -0.6507 -0.1788
10605TIP3    H153306   3.216   5.196   3.239 -3.0969 -0.6155  0.3156
10605TIP3    H253307   3.170   5.097   3.134 -0.2358 -1.7339  0.0398
10606TIP3   OH253308   1.398   2.469  16.119 -0.1419  0.4654 -0.3468
10606TIP3    H153309   1.472   2.407  16.113  0.3230  0.6752  2.2837
10606TIP3    H253310   1.321   2.415  16.103  0.4129 -0.2828 -0.5767
10607TIP3   OH253311   4.399   2.510  14.390  0.3446 -0.1207  0.8222
10607TIP3    H153312   4.488   2.544  14.387  0.6032 -0.8189 -0.8076
10607TIP3    H253313   4.358   2.545  14.311  0.1889 -2.3212 -0.1536
10608TIP3   OH253314   0.568   6.241   0.952 -0.3060  0.7619 -0.2880
10608TIP3    H153315   0.504   6.299   0.911 -0.0604 -0.4769 -2.5610
10608TIP3    H253316   0.562   6.159   0.903 -0.6893 -1.2588  2.8343
10609TIP3   OH253317   1.375   2.781  16.682  0.0584  0.2336  0.4409
10609TIP3    H153318   1.292   2.794  16.636 -0.4834 -1.2762  0.9345
10609TIP3    H253319   1.424   2.861  16.666 -0.8949  0.5483 -1.1186
10610TIP3   OH253320   3.389   6.374  12.022  0.0574 -0.1231 -1.0364
10610TIP3    H153321   3.309   6.399  12.070  0.3296 -0.4376 -0.4031
10610TIP3    H253322   3.366   6.292  11.979  0.4837 -1.0152  0.3638
10611TIP3   OH253323   6.322   6.656   0.655 -0.6422 -0.3453  0.1144
10611TIP3    H153324   6.276   6.633   0.736 -2.7344  1.9770 -0.2726
10611TIP3    H253325   6.375   6.732   0.679  1.2775 -1.5759 -0.0206
10612TIP3   OH253326   3.970   6.271  12.222 -0.0225 -0.2139 -0.2295
10612TIP3    H153327   3.940   6.195  12.172  0.0542  0.4004 -1.2269
10612TIP3    H253328   3.894   6.328  12.229 -0.4607 -0.9585  1.6973
10613TIP3   OH253329   2.346   1.773  14.182 -0.3318 -0.4276  0.0836
10613TIP3    H153330   2.346   1.718  14.260 -1.4443 -2.0752 -0.9803
10613TIP3    H253331   2.415   1.735  14.126 -2.3467 -2.1174 -1.4543
10614TIP3   OH253332   2.138   6.091   5.768  0.3302 -0.0166  0.1998
10614TIP3    H153333   2.045   6.068   5.758  0.1450  0.6212  0.4320
10614TIP3    H253334   2.183   6.006   5.772  0.0425 -0.3717 -2.3906
10615TIP3   OH253335   5.324   4.991   1.257  0.2555  0.5796 -0.1837
10615TIP3    H153336   5.310   4.985   1.163  1.7276 -1.1780 -0.3343
10615TIP3    H253337   5.382   5.066   1.268 -1.2753  1.8697 -0.4495
10616TIP3   OH253338   1.385   5.127   0.839 -0.1570 -0.0962  0.2571
10616TIP3    H153339   1.376   5.107   0.746  1.2345  0.9254 -0.1394
10616TIP3    H253340   1.407   5.043   0.880  1.2512 -0.2167 -0.6700
10617TIP3   OH253341   3.243   4.246  13.314 -0.1337  0.2153  0.0227
10617TIP3    H153342   3.275   4.272  13.400  1.3600  1.9536 -0.9673
10617TIP3    H253343   3.272   4.155  13.304 -0.2645  0.0216  1.3134
10618TIP3   OH253344   1.189   6.620   2.737 -0.6208 -0.3742  0.0905
10618TIP3    H153345   1.173   6.528   2.759 -0.1606 -0.0395  1.9367
10618TIP3    H253346   1.193   6.665   2.821 -0.0988  1.2212 -0.7506
10619TIP3   OH253347   2.107   4.346   2.257 -0.1495  0.8246 -0.8852
10619TIP3    H153348   2.162   4.412   2.215  0.6219  1.4452  0.9668
10619TIP3    H253349   2.019   4.385   2.257  0.2675  1.8185  0.0308
10620TIP3   OH253350   1.433   0.643   1.038 -0.3644 -0.1639 -0.2187
10620TIP3    H153351   1.509   0.616   1.089 -0.1866 -0.4040 -0.6021
10620TIP3    H253352   1.469   0.671   0.954 -0.4691  1.9329  0.3788
10621TIP3   OH253353   5.758   4.075   0.050  0.0031  0.2415  0.0384
10621TIP3    H153354   5.752   4.081  -0.045 -1.2512  0.8288  0.1301
10621TIP3    H253355   5.667   4.081   0.080 -0.0277 -3.2328  1.1214
10622TIP3   OH253356   0.528   2.603  16.964 -0.0421  0.0468  0.4566
10622TIP3    H153357   0.486   2.521  16.939 -2.2025  1.0224  0.6543
10622TIP3    H253358   0.596   2.616  16.899 -0.8840 -0.9792 -0.6739
10623TIP3   OH253359   5.683   3.204  13.614  0.1862 -0.6153  0.3576
10623TIP3    H153360   5.694   3.144  13.688 -3.5613 -0.7046  1.0492
10623TIP3    H253361   5.652   3.285  13.653  0.6926  0.2388 -0.9443
10624TIP3   OH253362   5.051   3.856  13.843  0.1242  0.2597 -0.3283
10624TIP3    H153363   4.987   3.903  13.896  0.4895  0.4008 -0.0083
10624TIP3    H253364   5.135   3.870  13.888  0.9099  2.5387 -2.2903
10625TIP3   OH253365   3.368   1.974  12.221  0.0725  0.6404  0.5717
10625TIP3    H153366   3.366   2.026  12.141 -4.8685  0.2748  0.1269
10625TIP3    H253367   3.336   2.034  12.289 -1.2851 -0.5180  0.9997
10626TIP3   OH253368   0.377   1.245  16.788 -0.1992 -0.4982  0.1068
10626TIP3    H153369   0.355   1.284  16.872 -0.1749  0.8907 -0.5153
10626TIP3    H253370   0.451   1.295  16.756  0.7509 -1.9652 -0.0888
10627TIP3   OH253371   3.669   6.742   3.038  0.1724  0.3106  0.7718
10627TIP3    H153372   3.605   6.694   2.986  0.0132 -0.2570  1.4777
10627TIP3    H253373   3.705   6.807   2.977 -0.1651 -0.1882  0.0229
10628TIP3   OH253374   5.120   0.553  15.239 -0.0210  0.2249  0.3099
10628TIP3    H153375   5.162   0.553  15.325 -0.0635  1.3669  0.3381
10628TIP3    H253376   5.090   0.643  15.226 -0.4592 -0.0494 -0.6872
10629TIP3   OH253377   1.504   4.447  11.524 -0.3261 -0.3230  0.6511
10629TIP3    H153378   1.459   4.410  11.600  2.0443 -1.1727  1.7427
10629TIP3    H253379   1.582   4.393  11.514 -0.8969 -0.7031 -2.8931
10630TIP3   OH253380   2.660   6.264  15.731 -0.0494  0.2291 -0.3910
10630TIP3    H153381   2.602   6.335  15.758  0.0299  0.3927 -0.6543
10630TIP3    H253382   2.603   6.204  15.683  0.1048  0.6575 -1.1239
10631TIP3   OH253383   0.574   6.516   5.650  0.1805  0.5002 -0.6025
10631TIP3    H153384   0.489   6.488   5.615 -0.7918  0.7938  1.3796
10631TIP3    H253385   0.637   6.495   5.581 -1.1867 -1.8223 -1.2614
10632TIP3   OH253386   6.242   3.793  11.600  0.0532 -0.4884  0.4083
10632TIP3    H153387   6.266   3.754  11.516 -1.3274  1.3681 -0.9325
10632TIP3    H253388   6.148   3.782  11.605 -0.0080  0.2853  1.2278
10633TIP3   OH253389   5.039   3.053  13.642 -0.5380 -0.6679  0.2004
10633TIP3    H153390   5.098   3.128  13.643  0.0902 -1.1665  0.4109
10633TIP3    H253391   5.090   2.981  13.678 -0.9241 -1.3596 -0.6034
10634TIP3   OH253392   1.039   4.975   1.548 -0.6283 -0.6199 -0.1937
10634TIP3    H153393   1.091   5.039   1.500  0.0921 -1.2141 -0.2228
10634TIP3    H253394   0.968   5.026   1.588  0.8247  0.4811  1.1034
10635TIP3   OH253395   6.663   3.283   1.947  0.0775 -0.5999  0.4783
10635TIP3    H153396   6.653   3.199   1.902 -0.5820 -0.3767  0.1910
10635TIP3    H253397   6.756   3.304   1.939  0.3188 -1.5044  0.9164
10636TIP3   OH253398   1.725   5.495  17.014  0.6306  0.1448 -0.2246
10636TIP3    H153399   1.737   5.577  17.063 -2.5738  0.5954 -0.0311
10636TIP3    H253400   1.724   5.521  16.922  0.1809  0.2373 -0.1930
10637TIP3   OH253401   4.052   6.749  14.156 -0.0190  0.1050  0.0359
10637TIP3    H153402   4.106   6.744  14.235 -1.4663 -1.2513  1.0032
10637TIP3    H253403   4.005   6.832  14.165 -0.6753 -0.3400  0.9944
10638TIP3   OH253404   5.779   6.402  16.019 -0.1337  0.3898 -0.0222
10638TIP3    H153405   5.865   6.435  16.046 -0.5663  1.0454  0.5876
10638TIP3    H253406   5.786   6.307  16.027  0.7744  0.3800 -0.7127
10639TIP3   OH253407   1.462   4.223   0.680  0.2708  0.1053 -0.5220
10639TIP3    H153408   1.549   4.261   0.673 -0.4903  2.0314 -0.2701
10639TIP3    H253409   1.458   4.158   0.610  3.2469 -3.0376  1.9181
10640TIP3   OH253410   2.375   5.129  15.167 -0.0603 -0.0978  0.4355
10640TIP3    H153411   2.297   5.176  15.197 -0.1492  0.2277 -0.2708
10640TIP3    H253412   2.427   5.115  15.246 -0.9249 -0.4903  0.9460
10641TIP3   OH253413   6.466   6.046  14.290 -0.7677  0.2043  0.3399
10641TIP3    H153414   6.540   6.107  14.286 -0.5006  0.0289  2.1034
10641TIP3    H253415   6.432   6.045  14.200  1.9551 -0.4514 -0.7856
10642TIP3   OH253416   5.965   2.824  15.690 -0.1498  0.0586  0.1919
10642TIP3    H153417   5.924   2.874  15.620  0.2335 -0.9427 -0.7721
10642TIP3    H253418   5.893   2.773  15.729 -0.1536 -0.2688 -0.2450
10643TIP3   OH253419   0.839   1.456  13.300 -0.3792 -0.1696 -0.5947
10643TIP3    H153420   0.749   1.485  13.287 -0.5092 -1.0537 -1.7655
10643TIP3    H253421   0.837   1.407  13.382 -0.5168  1.5219  0.4680
10644TIP3   OH253422   5.639   0.047   4.110 -0.2557 -0.8190 -0.0367
10644TIP3    H153423   5.687   0.086   4.182 -1.1249 -0.7169  0.5014
10644TIP3    H253424   5.604  -0.035   4.146 -1.6905 -0.1984  0.0509
10645TIP3   OH253425   5.999   4.872  12.453 -0.4136  0.6030  0.3143
10645TIP3    H153426   6.020   4.953  12.499 -3.8514  1.2512  0.9734
10645TIP3    H253427   5.985   4.808  12.523 -1.4513  0.4639 -0.0058
10646TIP3   OH253428   4.526   5.074   2.061  0.3687  1.2571  0.1398
10646TIP3    H153429   4.432   5.078   2.080  0.0935 -0.7821 -0.5416
10646TIP3    H253430   4.539   4.986   2.026  2.9137  0.7108  2.2051
10647TIP3   OH253431   4.564   3.133  10.595  0.2948 -0.3099 -0.2348
10647TIP3    H153432   4.487   3.086  10.627  1.0509 -1.3760  0.0676
10647TIP3    H253433   4.629   3.065  10.581  1.2113  0.5853 -0.4140
10648TIP3   OH253434   1.331   6.413   3.207 -0.4170  0.3953 -0.4869
10648TIP3    H153435   1.426   6.407   3.203 -0.2802  1.0783  1.0506
10648TIP3    H253436   1.301   6.322   3.210  0.2629  0.1909  0.2398
10649TIP3   OH253437   4.304   1.137  12.268  0.5774  0.5510  0.5488
10649TIP3    H153438   4.282   1.175  12.353  0.0939 -1.1408  1.2287
10649TIP3    H253439   4.236   1.072  12.252  1.0915  0.2971 -0.7823
10650TIP3   OH253440   1.756   3.837   6.251  0.0152  0.0924  0.0925
10650TIP3    H153441   1.802   3.796   6.324 -1.6185 -1.9423  0.0875
10650TIP3    H253442   1.664   3.827   6.272 -0.5110 -0.4289 -2.1358
10651TIP3   OH253443   4.871   6.808  14.314  0.3049 -0.3227  0.2090
10651TIP3    H153444   4.816   6.830  14.389  0.9867  1.0117  0.3452
10651TIP3    H253445   4.951   6.858  14.328  2.1668 -3.2103  0.7127
10652TIP3   OH253446   6.480   5.674   1.795 -0.1341  0.1248  1.0877
10652TIP3    H153447   6.393   5.655   1.759  0.0131 -1.6601  1.5913
10652TIP3    H253448   6.515   5.742   1.737 -1.7599  0.7358  0.7428
10653TIP3   OH253449   0.497   5.776  10.863 -0.6021 -0.0105  0.0225
10653TIP3    H153450   0.448   5.694  10.856  0.8001 -0.9632  0.7302
10653TIP3    H253451   0.471   5.812  10.948 -0.4868 -0.2433  0.1581
10654TIP3   OH253452   5.674   4.903  16.154 -0.1715 -0.6356  0.1213
10654TIP3    H153453   5.693   4.836  16.221  0.9546  0.4070  0.8804
10654TIP3    H253454   5.753   4.957  16.151 -0.2375 -0.5771 -2.0009
10655TIP3   OH253455   2.132   3.352  13.857 -0.3142  0.8539  0.0590
10655TIP3    H153456   2.134   3.363  13.762 -1.2778  2.0704  0.1577
10655TIP3    H253457   2.169   3.434  13.892 -0.5236  0.6685  0.7410
10656TIP3   OH253458   1.603   5.570  12.453 -0.0971  0.0226 -0.1443
10656TIP3    H153459   1.579   5.495  12.399 -2.5117 -1.0184  2.1314
10656TIP3    H253460   1.682   5.542  12.499  0.2303 -0.2807 -0.8781
10657TIP3   OH253461   5.329   6.767  16.414 -0.1394  0.4666 -0.1900
10657TIP3    H153462   5.248   6.774  16.466 -0.7338  1.5942 -1.2201
10657TIP3    H253463   5.315   6.692  16.356 -0.3080  0.4591 -0.1391
10658TIP3   OH253464   4.921   6.475   0.048 -0.1069 -0.0322 -0.5544
10658TIP3    H153465   5.000   6.499  -0.001  0.7201 -0.3234  0.5810
10658TIP3    H253466   4.945   6.395   0.094 -0.3013  0.9972  1.4721
10659TIP3   OH253467   4.396   3.657   1.130 -0.0363  0.2735 -0.3628
10659TIP3    H153468   4.429   3.734   1.175 -0.6475  0.2997  0.0457
10659TIP3    H253469   4.321   3.628   1.182  0.3953 -0.8076 -0.3054
10660TIP3   OH253470   1.312   2.830   1.084 -0.5996  0.4996  0.2749
10660TIP3    H153471   1.371   2.775   1.033 -0.1415  1.9637 -0.8684
10660TIP3    H253472   1.271   2.771   1.146 -1.0157 -1.3639 -1.6631
10661TIP3   OH253473   1.547   5.472   2.576 -0.5205 -0.0127  0.0882
10661TIP3    H153474   1.531   5.517   2.659  0.9576 -2.1826  1.6668
10661TIP3    H253475   1.490   5.394   2.580  0.1275 -0.5350 -0.5644
10662TIP3   OH253476   5.202   1.990   1.753 -0.1537  0.1212  0.1762
10662TIP3    H153477   5.214   1.903   1.793  1.9758  1.5055  2.9274
10662TIP3    H253478   5.121   2.023   1.793  0.2176  0.2150  0.8775
10663TIP3   OH253479   4.940   6.796  11.780  0.2708 -0.4126  0.5166
10663TIP3    H153480   4.912   6.842  11.701  0.7134  2.9067  2.0926
10663TIP3    H253481   4.880   6.722  11.787 -1.2148  0.4601 -1.7292
10664TIP3   OH253482   3.960   0.069   3.326 -0.1582 -0.1046 -0.5093
10664TIP3    H153483   3.943   0.019   3.247 -1.4541 -2.1035  0.9292
10664TIP3    H253484   3.885   0.128   3.334  0.8529  1.4164 -1.6456
10665TIP3   OH253485   4.647   2.085   0.040 -0.0466  0.1810 -0.1674
10665TIP3    H153486   4.683   2.103   0.126  1.3020  1.3578 -0.9333
10665TIP3    H253487   4.639   1.990   0.036 -0.4594  0.1316  1.3556
10666TIP3   OH253488   4.006   2.882  15.015  0.1163 -0.0249 -0.5445
10666TIP3    H153489   4.024   2.868  15.108  1.3474  0.8664 -0.6265
10666TIP3    H253490   3.934   2.945  15.014 -0.4384 -0.6322 -0.2166
10667TIP3   OH253491   1.624   2.248  10.671  0.1021  0.3919 -0.2082
10667TIP3    H153492   1.583   2.162  10.673 -0.9617  0.8975  0.2983
10667TIP3    H253493   1.718   2.229  10.670 -0.1122 -0.7780 -0.9055
10668TIP3   OH253494   3.024   1.918  16.416 -0.1507 -0.1366  0.0766
10668TIP3    H153495   3.111   1.891  16.386  0.3217 -1.2244  2.1837
10668TIP3    H253496   3.034   1.928  16.511 -1.3053  3.9500 -0.0826
10669TIP3   OH253497   3.847   6.108   3.285  0.1199 -0.1170 -0.2711
10669TIP3    H153498   3.802   6.052   3.347  0.8736  2.5039  2.8919
10669TIP3    H253499   3.933   6.068   3.274 -0.3394 -1.0911 -0.4318
10670TIP3   OH253500   0.182   5.914   1.810 -0.1244 -0.1778 -0.0602
10670TIP3    H153501   0.250   5.910   1.877 -1.0437 -1.0066  0.8655
10670TIP3    H253502   0.226   5.888   1.729  0.6174 -0.9468  0.5675
10671TIP3   OH253503   5.098   3.169   3.722 -0.1764 -0.5583  0.1362
10671TIP3    H153504   5.014   3.161   3.767  0.0029 -0.9893  0.4072
10671TIP3    H253505   5.127   3.078   3.710 -0.4636 -0.4810 -1.3091
10672TIP3   OH253506   4.049   5.132   0.260  0.0289 -0.4086 -0.3176
10672TIP3    H153507   4.078   5.085   0.338 -0.6521 -2.1397 -1.0519
10672TIP3    H253508   4.104   5.098   0.189 -0.4175 -0.0267 -0.8598
10673TIP3   OH253509   3.730   4.961  10.845 -0.0908  0.3537  0.2106
10673TIP3    H153510   3.809   4.919  10.811  0.3925  0.2467  1.4167
10673TIP3    H253511   3.711   5.031  10.782  1.7508  1.2475  0.5833
10674TIP3   OH253512   0.954   6.648   5.829  0.0832 -0.0318 -0.5118
10674TIP3    H153513   0.942   6.590   5.753  0.7289  0.7896 -1.2594
10674TIP3    H253514   1.049   6.656   5.838  0.0190  1.3713 -0.8014
10675TIP3   OH253515   4.429   5.925  13.643 -0.2602  0.0627  0.4752
10675TIP3    H153516   4.523   5.932  13.655 -0.5170  0.5512  2.7375
10675TIP3    H253517   4.410   5.832  13.653  0.0188 -0.1271 -0.6185
10676TIP3   OH253518   5.735   2.141  16.552  0.0202 -0.0037  0.3943
10676TIP3    H153519   5.712   2.127  16.460  1.7058 -0.7631  0.0630
10676TIP3    H253520   5.774   2.059  16.580  0.2842  0.5023  1.5571
10677TIP3   OH253521   5.603   1.205  14.817  0.3743  0.1965  0.0173
10677TIP3    H153522   5.524   1.191  14.764 -0.0130  0.5279  0.4931
10677TIP3    H253523   5.674   1.209  14.753 -0.0606  0.3961 -0.4661
10678TIP3   OH253524   0.588   1.924  14.213  0.1205  0.2053 -0.6511
10678TIP3    H153525   0.579   2.019  14.206  0.2629  0.1890 -1.1484
10678TIP3    H253526   0.516   1.889  14.159 -0.4022  0.0174  0.1409
10679TIP3   OH253527   3.124   3.503  12.691  0.0546  0.2521  0.4777
10679TIP3    H153528   3.182   3.442  12.645 -0.2600 -0.9022  1.5454
10679TIP3    H253529   3.156   3.590  12.667  1.1668 -0.3438 -0.2722
10680TIP3   OH253530   0.187   2.855  11.431  0.5805 -0.8288  0.3399
10680TIP3    H153531   0.280   2.836  11.428  0.2939 -2.6106  1.0996
10680TIP3    H253532   0.170   2.884  11.520  1.0701  3.9774 -0.8868
10681TIP3   OH253533   5.598   3.749  13.806 -0.3191 -0.1684 -0.1934
10681TIP3    H153534   5.522   3.788  13.761 -0.0130  0.5730 -0.0720
10681TIP3    H253535   5.590   3.779  13.896 -0.2224 -0.6093 -0.0382
10682TIP3   OH253536   4.279   2.685   3.000  0.8364 -0.3254 -0.5196
10682TIP3    H153537   4.315   2.764   2.962  1.1219 -0.1983  0.0177
10682TIP3    H253538   4.261   2.707   3.091 -0.4306 -0.4354 -0.7156
10683TIP3   OH253539   0.757   1.705  15.826  0.1954  0.4958 -0.1826
10683TIP3    H153540   0.793   1.616  15.832 -2.0573 -0.5430 -0.8680
10683TIP3    H253541   0.784   1.735  15.739  2.2542  1.1492  0.6273
10684TIP3   OH253542   4.453   4.218   4.279  0.6062  0.2444 -0.2228
10684TIP3    H153543   4.426   4.151   4.217  1.1441 -0.1376 -0.0474
10684TIP3    H253544   4.391   4.290   4.264  0.7391  0.1697 -1.2100
10685TIP3   OH253545   2.051   4.266  11.880 -0.0909  0.2825 -0.0939
10685TIP3    H153546   1.970   4.261  11.830  0.0680 -0.5290 -0.2767
10685TIP3    H253547   2.055   4.357  11.910 -1.0281  0.3439 -0.1366
10686TIP3   OH253548   2.670   3.316  15.566  0.5483  0.0829  0.4496
10686TIP3    H153549   2.616   3.361  15.630 -1.2424 -0.6830 -0.4731
10686TIP3    H253550   2.687   3.230  15.605  0.8989  0.2287  0.6240
10687TIP3   OH253551   2.544   3.556   1.296 -0.8375  0.1398 -0.1416
10687TIP3    H153552   2.593   3.631   1.262 -0.0011 -0.3695 -0.1146
10687TIP3    H253553   2.571   3.549   1.388 -2.1576  0.7777  0.3082
10688TIP3   OH253554   2.661   5.158  14.013 -0.3385  0.4847 -0.0032
10688TIP3    H153555   2.588   5.217  14.033 -0.4089  1.2431 -2.2005
10688TIP3    H253556   2.722   5.211  13.962  1.3805 -0.3755  1.0778
10689TIP3   OH253557   2.661   3.940  14.635 -0.0577 -0.1831  0.0585
10689TIP3    H153558   2.612   3.969  14.558  0.9426 -0.2358 -0.6123
10689TIP3    H253559   2.721   4.012  14.654  1.3736 -1.1259 -0.6900
10690TIP3   OH253560   0.906   0.975  16.958 -0.2573  0.5876 -0.0416
10690TIP3    H153561   0.873   1.044  16.900 -0.9103 -0.8121 -1.4198
10690TIP3    H253562   0.999   0.995  16.968 -0.6067  2.1838  0.3957
10691TIP3   OH253563   0.014   1.243   1.103  0.1886  0.1380 -0.5196
10691TIP3    H153564   0.054   1.202   1.026 -0.3738  0.9484 -1.2622
10691TIP3    H253565   0.077   1.310   1.131  0.0979  0.2855 -0.6705
10692TIP3   OH253566   4.373   0.686   4.193 -0.0697 -0.2044 -0.7456
10692TIP3    H153567   4.293   0.723   4.156 -0.8685 -0.0165  1.0581
10692TIP3    H253568   4.389   0.607   4.142 -1.1732 -0.0143 -1.4192
10693TIP3   OH253569   4.484   6.750   4.900 -0.6152 -0.0864 -0.1361
10693TIP3    H153570   4.488   6.685   4.830 -0.8009  1.0370 -1.2223
10693TIP3    H253571   4.570   6.747   4.941 -0.4454 -0.6414 -0.5269
10694TIP3   OH253572   6.426   1.119   0.191 -0.2269  0.1833 -0.5383
10694TIP3    H153573   6.388   1.032   0.186  0.0980  0.0698 -1.1201
10694TIP3    H253574   6.447   1.131   0.284 -0.8597 -0.0999 -0.3597
10695TIP3   OH253575   4.650   0.483   2.109 -0.0894  0.1587 -0.2958
10695TIP3    H153576   4.709   0.523   2.173  0.1584 -1.7266  0.7272
10695TIP3    H253577   4.608   0.557   2.066  1.5333  1.5289  0.3485
10696TIP3   OH253578   3.247   2.363  12.147 -0.1804  0.0891  0.1178
10696TIP3    H153579   3.327   2.381  12.196 -1.2950  0.2465  1.9682
10696TIP3    H253580   3.233   2.440  12.092  1.0270 -0.0345 -0.3830
10697TIP3   OH253581   5.198   5.986  15.119 -0.0336 -0.0010 -0.1429
10697TIP3    H153582   5.140   6.043  15.068 -0.8714 -1.6993 -1.2007
10697TIP3    H253583   5.142   5.912  15.145  0.0322  1.1507  4.1733
10698TIP3   OH253584   1.980   6.753   3.550 -0.0823  0.4925 -0.4253
10698TIP3    H153585   1.954   6.826   3.493 -0.6131  0.5035 -0.1771
10698TIP3    H253586   2.075   6.758   3.553 -0.0639  0.6940 -1.0503
10699TIP3   OH253587   2.520   1.748  11.291  0.0790  0.5576  0.3511
10699TIP3    H153588   2.468   1.825  11.266  1.3641  0.7027 -2.2803
10699TIP3    H253589   2.553   1.768  11.379 -2.3047  1.4868  1.0877
10700TIP3   OH253590   1.662   5.791  10.128  0.5405  0.3207  0.3990
10700TIP3    H153591   1.673   5.727  10.199  2.8638  0.6023  0.3482
10700TIP3    H253592   1.741   5.845  10.132  1.2285 -0.2439 -2.9985
10701TIP3   OH253593   1.747   0.282  14.346  0.5466  0.1040  0.2366
10701TIP3    H153594   1.759   0.226  14.270 -2.9787  0.9823 -1.1661
10701TIP3    H253595   1.677   0.239  14.396  0.6055  1.1656  1.2671
10702TIP3   OH253596   3.020   1.651  16.577  0.0722  0.6864  0.3312
10702TIP3    H153597   3.032   1.637  16.483  0.1690  1.0626  0.2892
10702TIP3    H253598   2.955   1.721  16.583 -0.7524 -0.0691  0.5498
10703TIP3   OH253599   2.455   1.524   0.692  0.4574 -0.4607 -0.0044
10703TIP3    H153600   2.392   1.512   0.763  0.8992  0.1610  0.5112
10703TIP3    H253601   2.420   1.598   0.642  1.0785  0.2946  0.6479
10704TIP3   OH253602   5.214   2.171  14.887 -0.2865  0.2491  0.3762
10704TIP3    H153603   5.207   2.266  14.879  0.4803  0.4081  1.4149
10704TIP3    H253604   5.304   2.156  14.915  0.1329 -0.9150 -1.4902
10705TIP3   OH253605   4.901   3.704   0.873  0.1218 -0.0213 -0.0476
10705TIP3    H153606   4.987   3.713   0.915  0.0525  0.3894  0.0116
10705TIP3    H253607   4.875   3.794   0.854 -0.0283 -0.1826 -0.6059
10706TIP3   OH253608   5.453   4.667  14.718  0.0013 -0.7897  0.2061
10706TIP3    H153609   5.373   4.712  14.691  0.3780  0.4826  1.0870
10706TIP3    H253610   5.431   4.626  14.801  0.1260 -0.8257  0.2217
10707TIP3   OH253611   6.509   6.069   3.653  0.0726 -0.0060  0.1406
10707TIP3    H153612   6.428   6.030   3.686  0.0008 -1.2554 -1.3809
10707TIP3    H253613   6.508   6.159   3.686 -1.7041 -0.1361  0.5188
10708TIP3   OH253614   5.535   1.297   6.636 -0.0108 -0.2181  0.1286
10708TIP3    H153615   5.605   1.268   6.695  0.8743 -1.9914 -1.6859
10708TIP3    H253616   5.579   1.317   6.554 -1.4445  0.3227 -0.5357
10709TIP3   OH253617   4.711   0.592  11.693  0.4020 -0.2787 -0.2232
10709TIP3    H153618   4.659   0.644  11.755 -0.4501 -1.1781 -0.1558
10709TIP3    H253619   4.763   0.657  11.646 -0.1286  0.5737  0.3188
10710TIP3   OH253620   1.751   6.312  13.254  0.1672  0.3010 -1.0635
10710TIP3    H153621   1.718   6.345  13.170 -1.0733  3.1203  0.3845
10710TIP3    H253622   1.675   6.318  13.313  1.3722 -0.2351  0.6137
10711TIP3   OH253623   3.296   2.438  13.653 -0.1897 -0.4354 -0.5801
10711TIP3    H153624   3.234   2.456  13.724  1.2791  1.4742  0.3297
10711TIP3    H253625   3.274   2.503  13.586  0.8038  0.2911 -0.2272
10712TIP3   OH253626   1.759   5.323   2.832 -0.1111 -0.0961  0.0500
10712TIP3    H153627   1.677   5.296   2.873 -0.7312 -0.3545 -1.3159
10712TIP3    H253628   1.737   5.336   2.740  1.1469  0.8834 -0.1386
10713TIP3   OH253629   5.134   0.916   4.030 -0.3992  0.7168  0.0876
10713TIP3    H153630   5.146   0.880   3.942  1.4428 -0.8579  0.9156
10713TIP3    H253631   5.043   0.893   4.053 -0.2672 -0.6714 -0.6453
10714TIP3   OH253632   1.291   5.449  12.007  0.1822 -0.7898  0.2127
10714TIP3    H153633   1.273   5.514  12.076 -0.2085  0.2398 -0.8166
10714TIP3    H253634   1.386   5.441  12.006  0.3075  0.4487 -0.2140
10715TIP3   OH253635   0.895   6.439  11.571 -0.5933 -0.2476 -0.1843
10715TIP3    H153636   0.839   6.516  11.576  1.6062  1.5445 -1.3344
10715TIP3    H253637   0.947   6.442  11.651 -0.2493 -0.3149 -0.4029
10716TIP3   OH253638   2.516   2.272  17.048 -0.1112 -0.4092 -0.2571
10716TIP3    H153639   2.571   2.349  17.032  0.3155 -0.4923  0.7335
10716TIP3    H253640   2.432   2.295  17.008 -0.5020  1.2656  1.3635
10717TIP3   OH253641   6.636   3.385   4.859 -0.2257 -0.0183 -0.2295
10717TIP3    H153642   6.578   3.311   4.880 -0.6332  0.6090  0.8801
10717TIP3    H253643   6.724   3.350   4.873 -0.3560 -0.6186 -0.7939
10718TIP3   OH253644   5.036   0.114   0.440 -0.3797  0.4013  1.0394
10718TIP3    H153645   4.960   0.095   0.386 -1.2298  0.7851  2.0705
10718TIP3    H253646   5.016   0.074   0.525  1.2090 -0.7627  0.9223
10719TIP3   OH253647   0.119   5.129  11.906  0.0268  0.3622  0.5438
10719TIP3    H153648   0.186   5.164  11.964 -1.1347  2.5168  0.6850
10719TIP3    H253649   0.125   5.183  11.827 -0.8304 -0.1280  0.1327
10720TIP3   OH253650   5.695   5.779   1.532  0.3356 -0.0905  0.0415
10720TIP3    H153651   5.776   5.747   1.572  0.6895  0.7680  0.0135
10720TIP3    H253652   5.626   5.739   1.584  0.7587  2.2670  2.6381
10721TIP3   OH253653   3.623   4.544  16.856 -0.1499  0.2114  0.6431
10721TIP3    H153654   3.575   4.565  16.776  0.9939  1.0779  0.1487
10721TIP3    H253655   3.601   4.616  16.916 -1.1702 -0.5450  1.2071
10722TIP3   OH253656   1.281   0.267  11.409  0.0643  0.1184  0.2745
10722TIP3    H153657   1.369   0.235  11.393 -0.9489 -1.5899 -2.6833
10722TIP3    H253658   1.287   0.362  11.398  1.6441  0.1513  1.0938
10723TIP3   OH253659   0.758   4.394   1.195  1.0013  0.7166 -0.0711
10723TIP3    H153660   0.844   4.366   1.226  0.5004  0.2782  0.9713
10723TIP3    H253661   0.726   4.320   1.144 -0.3042 -0.7407  2.6464
10724TIP3   OH253662   2.295   5.301  14.765  0.0752 -0.0858 -0.0650
10724TIP3    H153663   2.337   5.231  14.816  0.2913 -0.0168 -0.1489
10724TIP3    H253664   2.202   5.278  14.766  0.0885 -0.1261  0.2944
10725TIP3   OH253665   1.169   6.344  12.512  0.3910  0.5163 -0.3926
10725TIP3    H153666   1.102   6.287  12.551  0.4849  1.5922  1.4626
10725TIP3    H253667   1.251   6.296  12.522  0.3523  0.6054  0.3847
10726TIP3   OH253668   5.643   6.613   0.713 -0.4066 -0.4051  0.3855
10726TIP3    H153669   5.665   6.707   0.710  0.5166 -0.6280 -0.1984
10726TIP3    H253670   5.727   6.569   0.721 -0.5596 -1.3124 -2.1586
10727TIP3   OH253671   5.904   4.657   3.362  0.0972 -0.3555 -0.1515
10727TIP3    H153672   5.949   4.678   3.280  1.3302  1.0445  0.8160
10727TIP3    H253673   5.892   4.742   3.405  0.4780 -1.1371  1.5966
10728TIP3   OH253674   5.928   4.914   5.867  0.4585 -0.1124 -0.6916
10728TIP3    H153675   5.894   4.835   5.910 -2.0650  0.4678 -1.4534
10728TIP3    H253676   5.954   4.884   5.780  2.3038 -0.6088 -0.0222
10729TIP3   OH253677   2.943   5.651   4.425 -0.1512 -0.1902  0.0491
10729TIP3    H153678   3.027   5.632   4.382  1.0608  2.5608  0.9016
10729TIP3    H253679   2.935   5.584   4.492  1.4087 -0.5517 -0.0723
10730TIP3   OH253680   1.320   3.596   1.446  0.0442 -0.0174  0.2113
10730TIP3    H153681   1.292   3.649   1.521 -0.9749 -0.2554  0.0149
10730TIP3    H253682   1.410   3.625   1.428  0.4044 -0.1473  1.6902
10731TIP3   OH253683   2.924   4.215  15.572  0.1648 -0.1161  0.2309
10731TIP3    H153684   2.855   4.277  15.548 -0.2871 -0.8040 -0.2861
10731TIP3    H253685   2.964   4.252  15.651 -0.1496  0.7864 -0.0259
10732TIP3   OH253686   6.641   3.284  12.417  0.1022  0.1941 -0.0547
10732TIP3    H153687   6.587   3.236  12.479  2.9535 -1.1859  1.5327
10732TIP3    H253688   6.626   3.376  12.439 -0.6073 -0.1984  1.2180
10733TIP3   OH253689   5.649   1.782  14.977 -0.9025  0.3115  0.2651
10733TIP3    H153690   5.732   1.772  15.024 -0.8318 -0.7087 -0.0623
10733TIP3    H253691   5.670   1.757  14.887 -1.7675 -0.8531  0.3698
10734TIP3   OH253692   1.537   1.693   0.131 -0.4139  0.0900  0.3186
10734TIP3    H153693   1.585   1.670   0.051 -1.1182 -0.7100  0.1052
10734TIP3    H253694   1.451   1.722   0.099 -0.7524 -0.3834  0.7837
10735TIP3   OH253695   2.346   2.317   0.741 -0.5181 -0.3819  0.6691
10735TIP3    H153696   2.365   2.348   0.830 -0.2930  0.8543  0.2087
10735TIP3    H253697   2.276   2.253   0.753 -1.0769  0.3794  1.6553
10736TIP3   OH253698   5.079   0.813  11.421  0.4570  0.3941  0.1808
10736TIP3    H153699   5.132   0.753  11.369  0.4300  0.0618  0.5344
10736TIP3    H253700   5.056   0.883  11.360  0.5842  0.1053 -0.2034
10737TIP3   OH253701   6.525   2.259  14.688  0.3230  0.3265  0.3968
10737TIP3    H153702   6.533   2.191  14.620 -0.3333  0.5866  0.0544
10737TIP3    H253703   6.612   2.262  14.728  0.2151 -1.1167  0.8118
10738TIP3   OH253704   5.266   6.473  15.715 -0.5647 -0.0176 -0.4033
10738TIP3    H153705   5.299   6.415  15.647  1.4331  1.9238 -1.2091
10738TIP3    H253706   5.180   6.500  15.683 -1.2510 -1.9229 -0.3185
10739TIP3   OH253707   2.343   6.520  16.800  0.1188  0.2496  0.3236
10739TIP3    H153708   2.366   6.607  16.834  3.1006  0.9882 -2.9853
10739TIP3    H253709   2.268   6.537  16.743 -0.8371  0.1365  1.5003
10740TIP3   OH253710   0.949   2.247  16.662 -0.6691  0.1692 -0.0954
10740TIP3    H153711   0.890   2.272  16.733 -0.3106  1.9571 -0.3680
10740TIP3    H253712   0.976   2.331  16.623  1.6925 -0.5771 -0.2516
10741TIP3   OH253713   3.149   2.480  11.443  0.1728 -0.4109 -0.0257
10741TIP3    H153714   3.151   2.454  11.351 -1.5790 -0.4436 -0.0992
10741TIP3    H253715   3.061   2.455  11.473  1.0014 -1.2413  1.9176
10742TIP3   OH253716   3.112   5.535   5.569 -0.3976 -0.0425  0.4545
10742TIP3    H153717   3.024   5.518   5.600 -0.1591 -2.0321  0.1551
10742TIP3    H253718   3.165   5.465   5.607  1.1307  1.3006  0.9109
10743TIP3   OH253719   4.477   0.834  15.990 -0.5287 -0.1565 -0.0972
10743TIP3    H153720   4.547   0.887  16.027 -1.8797  0.3816  1.8931
10743TIP3    H253721   4.414   0.898  15.956 -2.3500 -0.3284  2.6526
10744TIP3   OH253722   5.966   4.567  11.305 -0.1528  0.1405 -0.4863
10744TIP3    H153723   6.018   4.574  11.384  0.2878  1.3551 -0.8695
10744TIP3    H253724   5.939   4.475  11.302  1.3914 -0.3585  0.0741
10745TIP3   OH253725   0.973   2.842   3.804 -0.5032 -0.0044 -0.0305
10745TIP3    H153726   0.964   2.871   3.713 -0.0132  3.0452  0.7923
10745TIP3    H253727   0.941   2.915   3.856  1.1795 -0.8049  2.3081
10746TIP3   OH253728   5.826   4.154  16.604  0.3222 -0.2191 -0.3615
10746TIP3    H153729   5.830   4.106  16.687 -1.7064  1.8283  1.0232
10746TIP3    H253730   5.769   4.101  16.549  1.0493 -1.1956 -0.2098
10747TIP3   OH253731   0.142   1.894  17.158 -0.9248  0.1762 -0.0336
10747TIP3    H153732   0.196   1.952  17.211 -0.0569 -1.1559  0.6151
10747TIP3    H253733   0.054   1.906  17.192 -0.9287  1.8128 -0.5726
10748TIP3   OH253734   6.311   5.027  13.366 -0.5859  0.3898 -0.9063
10748TIP3    H153735   6.238   5.075  13.405  0.4640 -0.2765  2.1468
10748TIP3    H253736   6.269   4.953  13.321 -1.8588  0.5488 -0.0446
10749TIP3   OH253737   5.462   5.313  17.247 -0.0123  0.3506  0.9556
10749TIP3    H153738   5.487   5.258  17.321 -0.0984 -0.1196  0.6409
10749TIP3    H253739   5.430   5.251  17.181  1.8458  0.5763 -0.2135
10750TIP3   OH253740   5.923   2.804  12.508  0.2012  0.6834  0.0522
10750TIP3    H153741   5.968   2.721  12.499 -0.9269 -0.0692  0.9675
10750TIP3    H253742   5.854   2.801  12.442 -0.5620  0.3687  0.8433
10751TIP3   OH253743   6.446   1.061  13.753  0.1945  0.0060 -0.4722
10751TIP3    H153744   6.442   0.969  13.776 -2.4758  0.1237 -0.1662
10751TIP3    H253745   6.450   1.108  13.836 -1.1471  0.1955 -0.4865
10752TIP3   OH253746   0.424   3.435   2.634  0.3986 -0.5844  0.8311
10752TIP3    H153747   0.376   3.488   2.698  2.3793 -0.0865  1.9686
10752TIP3    H253748   0.377   3.351   2.634 -1.8062  0.5538  0.2010
10753TIP3   OH253749   2.484   4.014   0.390  0.0368 -0.2964 -0.1774
10753TIP3    H153750   2.494   4.024   0.295 -1.3906  1.1243 -0.2302
10753TIP3    H253751   2.411   3.952   0.400  0.8899 -1.2977  0.0340
10754TIP3   OH253752   4.499   0.912  12.741 -0.7481  0.2333  0.2953
10754TIP3    H153753   4.422   0.892  12.793 -0.5082 -1.8892 -0.0704
10754TIP3    H253754   4.471   0.982  12.682 -1.9344  0.5247  1.1765
10755TIP3   OH253755   5.385   2.979   3.327 -0.8221  0.2375 -0.7963
10755TIP3    H153756   5.378   2.887   3.353  0.0556  0.7105  1.3367
10755TIP3    H253757   5.304   3.019   3.359 -0.3836  0.5509 -0.0659
10756TIP3   OH253758   5.791   2.058   0.885  0.2151 -0.1749 -0.5993
10756TIP3    H153759   5.872   2.010   0.903  0.0091 -0.2270  0.1833
10756TIP3    H253760   5.722   1.992   0.886 -0.2552  0.2682  1.7778
10757TIP3   OH253761   3.331   0.533   5.147 -0.2965 -0.0684 -0.5587
10757TIP3    H153762   3.290   0.577   5.073 -1.5602 -1.1196 -0.5146
10757TIP3    H253763   3.331   0.440   5.123  0.9956 -0.2347 -0.0323
10758TIP3   OH253764   5.151   1.223  12.039 -0.5345  0.1866 -0.0144
10758TIP3    H153765   5.164   1.217  11.944 -0.5972 -0.6873  0.0210
10758TIP3    H253766   5.188   1.142  12.073 -1.8773 -0.2148  0.5562
10759TIP3   OH253767   2.660   5.838   1.243  0.4090 -0.2121 -0.1307
10759TIP3    H153768   2.732   5.859   1.183 -0.5286  1.6086 -0.6970
10759TIP3    H253769   2.681   5.885   1.323  0.1076 -0.0984 -0.1179
10760TIP3   OH253770   2.944   4.685  14.758  0.0488  0.6890  0.4533
10760TIP3    H153771   2.854   4.712  14.772 -0.3205 -0.8664  1.3163
10760TIP3    H253772   2.991   4.715  14.836 -0.2136 -0.4329  1.0696
10761TIP3   OH253773   2.130   5.592   3.454  0.0566  0.3182 -0.3718
10761TIP3    H153774   2.062   5.538   3.412  1.5569 -0.4053 -2.0444
10761TIP3    H253775   2.103   5.682   3.437 -2.1934  0.2046  1.9591
10762TIP3   OH253776   0.177   3.579  11.882 -0.1448 -0.2954 -0.5961
10762TIP3    H153777   0.208   3.529  11.807  0.2962 -1.2872  0.2229
10762TIP3    H253778   0.098   3.532  11.911 -0.1152 -0.1233 -0.2282
10763TIP3   OH253779   1.303   2.680  12.870 -0.2614 -0.0157 -0.7557
10763TIP3    H153780   1.253   2.711  12.946 -0.6737  0.0937 -1.0707
10763TIP3    H253781   1.395   2.694  12.895 -0.2626 -1.9395  0.5954
10764TIP3   OH253782   0.904   0.006  17.211  0.3145 -0.6420  0.1858
10764TIP3    H153783   0.982   0.031  17.260  0.8844 -3.0616  0.6123
10764TIP3    H253784   0.929   0.020  17.119  0.1786  1.3398  0.4042
10765TIP3   OH253785   1.546   4.702   4.879  0.2245  0.2296 -0.2405
10765TIP3    H153786   1.539   4.785   4.832  2.0127 -0.2250 -1.4425
10765TIP3    H253787   1.529   4.636   4.812 -0.6948 -0.4029  0.5909
10766TIP3   OH253788   6.538   2.045   6.659  0.9099  0.4460  0.5470
10766TIP3    H153789   6.587   2.071   6.737  1.7753 -0.8106  0.4620
10766TIP3    H253790   6.488   2.123   6.635 -1.7304  0.0854  4.0460
10767TIP3   OH253791   3.713   5.337  12.597  0.1125  0.2675  0.4269
10767TIP3    H153792   3.727   5.407  12.533 -1.6505 -1.2184 -1.7400
10767TIP3    H253793   3.792   5.284  12.594  1.3068  1.8352  1.8118
10768TIP3   OH253794   3.735   5.163  13.368  0.1837 -0.5238 -0.5547
10768TIP3    H153795   3.676   5.208  13.308 -1.4227 -1.8419 -0.0558
10768TIP3    H253796   3.677   5.120  13.431  1.7500 -0.2034  1.2265
10769TIP3   OH253797   2.873   2.784   3.002 -0.0749  0.2022  0.6007
10769TIP3    H153798   2.887   2.845   2.929  0.8065 -0.7357 -0.0455
10769TIP3    H253799   2.891   2.835   3.080  1.1548  0.6483  0.0469
10770TIP3   OH253800   1.627   3.894   0.670  0.0958  1.0591 -0.1635
10770TIP3    H153801   1.669   3.979   0.664  0.7044  0.6745 -1.6872
10770TIP3    H253802   1.539   3.907   0.636  0.1651  1.0895 -0.3287
10771TIP3   OH253803   0.199   5.669   0.038 -0.2064 -0.9003  0.2190
10771TIP3    H153804   0.275   5.627  -0.001  0.0961 -1.6574  1.5680
10771TIP3    H253805   0.160   5.602   0.094 -0.8327  0.0271  0.9322
10772TIP3   OH253806   3.289   1.278  17.191  0.1466 -0.1075  0.4845
10772TIP3    H153807   3.368   1.285  17.137  0.9235 -1.1738  1.4338
10772TIP3    H253808   3.314   1.319  17.275 -0.1838 -0.7796  0.9162
10773TIP3   OH253809   6.329   2.824  16.945  0.0859 -0.3884  0.7278
10773TIP3    H153810   6.336   2.747  16.888  0.1050  0.0327  0.1571
10773TIP3    H253811   6.248   2.810  16.994 -1.2818  0.4111 -1.1730
10774TIP3   OH253812   0.418   1.943   4.856  0.1538 -0.3168  0.3397
10774TIP3    H153813   0.360   2.009   4.894 -1.5671 -1.2297 -0.5590
10774TIP3    H253814   0.382   1.927   4.768  1.1973 -1.6251  0.1053
10775TIP3   OH253815   1.063   5.698  15.257 -0.0102 -0.0747 -0.0825
10775TIP3    H153816   0.971   5.685  15.237 -0.0222 -1.1002  0.5868
10775TIP3    H253817   1.064   5.723  15.349  0.4677 -1.3880  0.2811
10776TIP3   OH253818   5.654   3.121   0.706 -0.7340  0.1557 -0.4481
10776TIP3    H153819   5.721   3.086   0.764  0.2754 -0.6204 -2.0372
10776TIP3    H253820   5.596   3.047   0.688 -0.1946 -0.0073 -1.5831
10777TIP3   OH253821   3.538   2.392   0.790  0.4839  0.2568  0.1627
10777TIP3    H153822   3.524   2.483   0.817  0.2737 -0.5219  2.9312
10777TIP3    H253823   3.535   2.342   0.871  0.0657 -2.3229 -1.3357
10778TIP3   OH253824   5.754   6.281   1.734  0.0341  0.3927 -0.2133
10778TIP3    H153825   5.685   6.332   1.691  0.5315  1.8075  0.6044
10778TIP3    H253826   5.836   6.314   1.698  0.3274 -1.1718 -1.0610
10779TIP3   OH253827   5.101   3.089  14.175  0.1079 -0.6453  0.4274
10779TIP3    H153828   5.118   3.011  14.121 -1.8859  0.2517 -1.6530
10779TIP3    H253829   5.072   3.155  14.113  0.0555  1.2450  2.3633
10780TIP3   OH253830   6.723   6.556  11.074  0.3170  0.3799  0.1721
10780TIP3    H153831   6.767   6.495  11.132 -1.3250  0.4502  1.5546
10780TIP3    H253832   6.697   6.503  10.999  0.1075 -0.3267  0.7315
10781TIP3   OH253833   5.139   1.312   2.421 -0.3651  0.2358 -0.0057
10781TIP3    H153834   5.177   1.375   2.359 -1.3701  0.0960 -0.7894
10781TIP3    H253835   5.056   1.353   2.448  0.4185  0.6697  1.8969
10782TIP3   OH253836   3.146   5.264  10.282 -0.3727  0.3534  0.5707
10782TIP3    H153837   3.182   5.316  10.211  0.5788  0.8087  1.3644
10782TIP3    H253838   3.077   5.319  10.320  1.3002  1.5180  2.0491
10783TIP3   OH253839   3.053   5.712  15.222 -0.2783 -0.6434 -0.2303
10783TIP3    H153840   3.088   5.646  15.162 -0.8772 -0.7096 -0.5137
10783TIP3    H253841   2.993   5.764  15.168  1.2633  1.0610 -0.3800
10784TIP3   OH253842   4.102   1.253  11.759 -0.3794  0.1164  0.0275
10784TIP3    H153843   4.082   1.272  11.667 -1.7771  1.7764  0.6142
10784TIP3    H253844   4.020   1.272  11.805  0.5512  0.1722  1.7182
10785TIP3   OH253845   2.665   0.504  10.860 -0.0158  0.6102 -0.2272
10785TIP3    H153846   2.674   0.427  10.917 -1.6399  0.3025 -0.3537
10785TIP3    H253847   2.722   0.484  10.785 -1.6612 -1.2900 -1.0738
10786TIP3   OH253848   4.701   0.719  16.454 -0.2204  0.1320  0.1357
10786TIP3    H153849   4.699   0.815  16.464 -2.0780  0.1116  0.2895
10786TIP3    H253850   4.633   0.701  16.389  0.3715 -1.0754 -0.1691
10787TIP3   OH253851   1.521   3.976  16.445 -0.0582  0.1705  0.3463
10787TIP3    H153852   1.472   4.058  16.454  3.4050  2.4631  0.0409
10787TIP3    H253853   1.564   3.964  16.530  0.4835 -0.6359 -0.0297
10788TIP3   OH253854   3.280   4.950   0.167 -0.3260 -0.1605 -0.0880
10788TIP3    H153855   3.253   4.859   0.174 -2.8255  0.4419 -1.0172
10788TIP3    H253856   3.219   4.998   0.223  0.8919  0.9757  0.3120
10789TIP3   OH253857   4.221   6.428  13.743 -0.1884 -0.7122  0.0733
10789TIP3    H153858   4.148   6.421  13.803 -1.0856 -0.8464 -1.0021
10789TIP3    H253859   4.298   6.438  13.799 -0.9160 -1.4868  1.2399
10790TIP3   OH253860   1.199   3.110  13.776  0.6226 -0.4955 -0.0578
10790TIP3    H153861   1.167   3.090  13.688  1.3045  1.9107 -0.9429
10790TIP3    H253862   1.294   3.098  13.771  0.6773 -0.2436  0.2927
10791TIP3   OH253863   1.054   5.974  12.261 -0.1729 -0.1947  0.3446
10791TIP3    H153864   1.026   6.050  12.210 -2.5856 -1.2228  0.0012
10791TIP3    H253865   1.137   5.948  12.221  0.1257  1.5595 -0.2705
10792TIP3   OH253866   0.585   2.837   2.378 -0.2708  0.2310 -0.5926
10792TIP3    H153867   0.534   2.838   2.458 -0.4299 -0.9526 -0.6530
10792TIP3    H253868   0.624   2.924   2.372  0.3805  0.0935  1.1787
10793TIP3   OH253869   3.283   4.713  16.100  0.3952 -0.1849  0.0055
10793TIP3    H153870   3.303   4.621  16.117  0.5878  0.1994  2.2894
10793TIP3    H253871   3.224   4.712  16.025 -1.1033 -2.3286  1.1230
10794TIP3   OH253872   4.122   0.093  12.608  0.1782  0.3445  0.1197
10794TIP3    H153873   4.026   0.098  12.614  0.2677  2.0322  0.4620
10794TIP3    H253874   4.146   0.026  12.672 -0.8090 -0.6278 -0.4856
10795TIP3   OH253875   0.146   4.155   3.242  0.3442  0.5876  0.0561
10795TIP3    H153876   0.106   4.191   3.163 -1.0854 -1.6248 -0.3256
10795TIP3    H253877   0.235   4.190   3.242 -0.4542  2.8320 -1.0204
10796TIP3   OH253878   6.180   6.215  12.047 -0.0821  0.1523 -0.5684
10796TIP3    H153879   6.178   6.296  11.996 -1.5084 -0.5614 -1.7217
10796TIP3    H253880   6.123   6.233  12.122  0.3407  0.5077 -0.3265
10797TIP3   OH253881   1.682   2.568  15.962  0.2993  0.2883 -0.3409
10797TIP3    H153882   1.682   2.575  16.057 -1.1929 -0.8377 -0.2298
10797TIP3    H253883   1.702   2.657  15.931 -1.2433  1.1477  0.9968
10798TIP3   OH253884   5.460   2.079   1.048  0.8155 -0.2067 -0.4100
10798TIP3    H153885   5.483   2.010   1.111 -1.4984 -0.9992 -0.3149
10798TIP3    H253886   5.414   2.033   0.978 -1.0982  1.2025 -0.1897
10799TIP3   OH253887   0.408   4.756  10.046 -0.3896  0.3222 -0.6193
10799TIP3    H153888   0.496   4.793  10.035 -0.4701  1.1337  1.1733
10799TIP3    H253889   0.422   4.661  10.047  0.7318  0.4635  1.3550
10800TIP3   OH253890   4.071   5.951  15.066 -0.8004  0.0615  0.6779
10800TIP3    H153891   4.049   6.035  15.026  1.1069  0.0586 -0.4972
10800TIP3    H253892   4.114   5.973  15.148  2.2746  0.4626 -0.8989
10801TIP3   OH253893   2.742   1.187   2.733  0.2987 -0.4157  0.2328
10801TIP3    H153894   2.773   1.264   2.685 -1.0120 -1.1754 -1.9956
10801TIP3    H253895   2.792   1.114   2.696  0.1609 -0.8844  0.9549
10802TIP3   OH253896   1.665   2.994  12.639 -0.3710 -0.1259  0.6768
10802TIP3    H153897   1.574   3.022  12.643 -0.4228 -0.3592  1.1287
10802TIP3    H253898   1.683   2.957  12.725  0.0208 -0.4865  0.4442
10803TIP3   OH253899   4.219   6.613  13.980 -0.1090 -0.9122  0.1629
10803TIP3    H153900   4.234   6.678  13.911  1.4113 -1.1287  0.2518
10803TIP3    H253901   4.154   6.654  14.038  0.4100  0.2991 -0.0854
10804TIP3   OH253902   4.312   4.943   1.657 -0.3170  0.5735 -0.1720
10804TIP3    H153903   4.349   4.878   1.598  0.1616  1.0849 -0.4431
10804TIP3    H253904   4.284   4.893   1.733  1.5345  0.2542  0.3366
10805TIP3   OH253905   6.708   2.367   0.252  0.0902 -0.0413 -0.1885
10805TIP3    H153906   6.791   2.410   0.272  0.2286 -0.7567  0.8312
10805TIP3    H253907   6.695   2.305   0.323 -0.9946 -0.4158 -0.6904
10806TIP3   OH253908   0.709   5.726  17.140 -0.3288  0.4837  0.6092
10806TIP3    H153909   0.637   5.676  17.176 -0.2786 -0.8264 -0.9946
10806TIP3    H253910   0.672   5.769  17.062  0.2090  1.1249  0.6948
10807TIP3   OH253911   3.323   1.352   0.974  0.1498 -0.0647 -0.2043
10807TIP3    H153912   3.247   1.404   0.999  1.4170  1.7380  0.1484
10807TIP3    H253913   3.292   1.295   0.904 -1.4363  0.9180 -0.3425
10808TIP3   OH253914   2.727   5.492  13.265  0.1264 -0.2339 -0.6626
10808TIP3    H153915   2.636   5.498  13.294 -0.2471 -2.0594 -1.2905
10808TIP3    H253916   2.723   5.502  13.170  1.0498  3.2459 -0.4572
10809TIP3   OH253917   2.887   0.656  15.038 -0.2339 -0.7462  0.1983
10809TIP3    H153918   2.950   0.601  15.084  1.4346  0.6168 -0.3536
10809TIP3    H253919   2.907   0.745  15.067 -0.0054  0.0209 -2.1120
10810TIP3   OH253920   4.001   0.108   5.859  0.1005 -0.3241 -0.0971
10810TIP3    H153921   3.926   0.052   5.878  0.1813 -0.4778 -0.2372
10810TIP3    H253922   4.016   0.156   5.941  0.1288 -0.6155  0.0699
10811TIP3   OH253923   3.383   4.539  11.271  0.1014  0.2401 -0.1462
10811TIP3    H153924   3.451   4.581  11.324 -0.3707  0.8135  0.0135
10811TIP3    H253925   3.303   4.550  11.321 -0.2477  0.2423 -0.6967
10812TIP3   OH253926   6.729   1.049  15.453 -0.0344  0.1964 -0.1908
10812TIP3    H153927   6.768   1.049  15.540 -0.5788  0.9900  0.0631
10812TIP3    H253928   6.636   1.037  15.468 -0.1212  0.2363 -0.6686
10813TIP3   OH253929   6.524   3.526  11.995  0.2058 -0.9096  0.3789
10813TIP3    H153930   6.596   3.571  12.038  1.7362 -2.1585 -0.7404
10813TIP3    H253931   6.554   3.435  11.988 -0.8428 -1.1504 -1.4582
10814TIP3   OH253932   1.475   4.642   5.144  0.1951 -0.2660  0.5743
10814TIP3    H153933   1.501   4.728   5.177  2.0307 -0.7034  0.3531
10814TIP3    H253934   1.488   4.647   5.050  0.3209 -0.7845  0.5611
10815TIP3   OH253935   2.671   6.187  14.035 -0.3703 -0.4839 -0.3175
10815TIP3    H153936   2.597   6.181  13.974 -0.5124 -1.0040 -0.0958
10815TIP3    H253937   2.630   6.187  14.122 -0.2469  1.2732 -0.2093
10816TIP3   OH253938   3.679   4.081   4.896 -0.3163 -0.4241 -0.4570
10816TIP3    H153939   3.619   4.155   4.904  0.6605  0.2603  0.8957
10816TIP3    H253940   3.652   4.020   4.965  0.1882 -0.3591 -0.1948
10817TIP3   OH253941   3.919   5.127  14.192  0.2974 -0.1826 -0.0433
10817TIP3    H153942   3.854   5.056  14.191  0.1585 -0.0999  1.2180
10817TIP3    H253943   3.955   5.128  14.104 -1.1449 -0.4872 -0.6685
10818TIP3   OH253944   5.923   5.825  11.735  0.1310  0.0450  0.0818
10818TIP3    H153945   5.841   5.800  11.778  1.0713 -0.6304  1.5871
10818TIP3    H253946   5.971   5.874  11.802  0.7522  0.8881 -0.9486
10819TIP3   OH253947   2.693   1.149  16.166 -0.1201  0.4328  0.1811
10819TIP3    H153948   2.783   1.181  16.160 -0.1842  1.4930  3.2423
10819TIP3    H253949   2.690   1.099  16.248 -1.7456 -1.7360 -1.0936
10820TIP3   OH253950   0.806   3.369  15.789 -0.1900  0.0843  0.0649
10820TIP3    H153951   0.836   3.407  15.706 -0.7759 -0.5344 -0.4371
10820TIP3    H253952   0.828   3.276  15.783 -0.2819  0.0257  0.5838
10821TIP3   OH253953   1.572   1.697   0.781  0.1395  0.1261 -0.0766
10821TIP3    H153954   1.608   1.727   0.698  1.6538 -1.2872  0.0084
10821TIP3    H253955   1.646   1.701   0.842  0.0289 -2.1040  0.3119
10822TIP3   OH253956   2.397   4.946   2.412  0.0675 -0.1414  1.3084
10822TIP3    H153957   2.345   4.980   2.485  0.9904  0.1117  1.8658
10822TIP3    H253958   2.411   5.022   2.355  0.2182 -0.1003  1.3993
10823TIP3   OH253959   2.853   0.251   3.850  0.1605 -0.0608 -0.1997
10823TIP3    H153960   2.821   0.194   3.920  0.7107  0.2122  0.2920
10823TIP3    H253961   2.775   0.298   3.820  0.1735  1.1116  1.4558
10824TIP3   OH253962   1.168   2.685  13.143 -0.6137  0.4256 -0.6121
10824TIP3    H153963   1.098   2.670  13.079 -1.5544  0.7330  0.3306
10824TIP3    H253964   1.123   2.707  13.224  0.5044 -1.3554  0.5631
10825TIP3   OH253965   5.678   0.980   2.275  0.5167 -0.1817  0.0117
10825TIP3    H153966   5.587   1.007   2.293 -0.1989  0.1372 -3.4310
10825TIP3    H253967   5.687   0.895   2.317 -1.2726 -0.0619  0.7099
10826TIP3   OH253968   5.798   0.944   4.573 -0.0726 -0.3250  0.2452
10826TIP3    H153969   5.808   0.874   4.509  0.3104  0.8034 -0.9943
10826TIP3    H253970   5.717   0.989   4.546 -0.1664 -0.1227  0.8507
10827TIP3   OH253971   4.282   2.365  13.678  0.0324  0.3553 -0.1656
10827TIP3    H153972   4.362   2.416  13.665 -0.5558  0.6529 -3.6618
10827TIP3    H253973   4.309   2.274  13.668 -0.0132  0.4642 -1.5239
10828TIP3   OH253974   2.429   1.429  16.877 -1.3064  0.0562 -0.1378
10828TIP3    H153975   2.377   1.456  16.953 -0.9909 -1.8249  0.8264
10828TIP3    H253976   2.520   1.438  16.906 -1.1765 -0.3103 -0.4206
10829TIP3   OH253977   4.311   5.831   3.225  0.1659  0.0796 -0.6189
10829TIP3    H153978   4.290   5.744   3.192  1.1391 -0.2291 -0.4630
10829TIP3    H253979   4.369   5.815   3.300  0.1684  0.8506 -0.4495
10830TIP3   OH253980   0.286   0.360  12.876  0.1784 -0.5409  0.5961
10830TIP3    H153981   0.347   0.369  12.803  0.7041  0.0163  1.1007
10830TIP3    H253982   0.323   0.291  12.931  0.8440  0.3937  1.3618
10831TIP3   OH253983   5.612   6.224  12.862  0.6121 -0.0696 -0.1372
10831TIP3    H153984   5.533   6.278  12.863  1.1347  0.7251 -0.9231
10831TIP3    H253985   5.682   6.284  12.837  1.2536 -1.0495 -0.7573
10832TIP3   OH253986   0.106   1.691  13.436 -0.4287  0.2929 -0.1866
10832TIP3    H153987   0.055   1.663  13.360  0.0657  0.4535 -0.5849
10832TIP3    H253988   0.196   1.699  13.403  0.3716 -2.4414  1.0936
10833TIP3   OH253989   6.717   3.449   0.378 -0.1409 -0.4781 -0.0524
10833TIP3    H153990   6.684   3.516   0.438 -0.3059 -0.4309 -0.1950
10833TIP3    H253991   6.778   3.398   0.431 -0.4504 -0.5728  0.2135
10834TIP3   OH253992   5.254   3.652  16.378 -0.6949  0.4744 -0.0651
10834TIP3    H153993   5.189   3.612  16.320  0.9708 -1.2794 -0.8168
10834TIP3    H253994   5.233   3.618  16.465  0.1374 -1.3955 -0.5551
10835TIP3   OH253995   5.405   4.322  16.399  0.4145  0.1029 -0.0054
10835TIP3    H153996   5.376   4.405  16.438 -0.0868  0.6089 -1.4021
10835TIP3    H253997   5.325   4.272  16.386  0.3965  0.4886 -1.5806
10836TIP3   OH253998   5.041   4.652  13.098 -0.3759  0.1780  0.6551
10836TIP3    H153999   4.976   4.628  13.164 -0.1793 -1.2064  0.3796
10836TIP3    H254000   5.077   4.735  13.129 -2.6722  1.3034  0.4987
10837TIP3   OH254001   2.088   2.310  17.209 -0.5798 -0.3993 -0.3882
10837TIP3    H154002   2.119   2.220  17.210 -0.5911 -0.3985  0.0243
10837TIP3    H254003   2.018   2.310  17.143  0.5320 -0.3097 -1.6092
10838TIP3   OH254004   2.640   2.485  16.496  0.1593  0.2429 -0.1006
10838TIP3    H154005   2.649   2.422  16.568  1.4004  0.5688  0.0543
10838TIP3    H254006   2.672   2.437  16.419 -1.7680 -0.3279 -0.6073
10839TIP3   OH254007   6.570   2.530  15.293  0.1974  0.5548 -0.0656
10839TIP3    H154008   6.529   2.522  15.207  2.0051 -1.2768 -0.8362
10839TIP3    H254009   6.508   2.582  15.344 -3.3601 -2.3092 -0.9802
10840TIP3   OH254010   4.406   3.999  12.561  0.0294 -0.0510  0.1444
10840TIP3    H154011   4.318   3.987  12.599 -0.1045 -0.4766 -0.2941
10840TIP3    H254012   4.404   4.087  12.525  0.1834  0.3949  1.1830
10841TIP3   OH254013   4.991   4.719  11.491 -0.2807 -0.8135  0.8225
10841TIP3    H154014   4.932   4.706  11.565 -0.2895  2.2936  1.4798
10841TIP3    H254015   5.067   4.763  11.528 -0.7240  1.7911 -1.0599
10842TIP3   OH254016   3.345   0.264   0.123 -0.2190 -0.9372 -0.3036
10842TIP3    H154017   3.394   0.317   0.186  0.0687 -0.0083 -1.2891
10842TIP3    H254018   3.301   0.198   0.177  1.1830 -1.0785  0.7189
10843TIP3   OH254019   6.299   1.694  12.781 -0.7127 -0.4469  0.8045
10843TIP3    H154020   6.205   1.684  12.764 -0.3728 -0.9430 -1.0689
10843TIP3    H254021   6.316   1.636  12.855 -1.5835 -1.8525 -0.0345
10844TIP3   OH254022   1.298   1.433  13.686 -0.3940 -0.4368 -0.2399
10844TIP3    H154023   1.257   1.515  13.712 -1.5762 -0.8706 -0.6658
10844TIP3    H254024   1.317   1.444  13.592  1.8173  0.2869  0.2181
10845TIP3   OH254025   3.128   1.546   1.036 -0.1284  0.9309  0.2513
10845TIP3    H154026   3.140   1.579   1.125 -1.2457 -1.7600  1.4798
10845TIP3    H254027   3.174   1.610   0.981  1.6040  2.0665  2.8245
10846TIP3   OH254028   3.402   1.093  11.993  0.2585  0.6467  0.3043
10846TIP3    H154029   3.423   1.076  12.085 -1.1696 -3.0157  0.1253
10846TIP3    H254030   3.308   1.078  11.987  0.5411 -0.7159 -1.9688
10847TIP3   OH254031   4.580   1.259  11.177 -0.0686 -0.0011  0.5717
10847TIP3    H154032   4.585   1.354  11.183  0.2778  0.1650 -1.5265
10847TIP3    H254033   4.524   1.242  11.101  0.4689 -1.4704  0.4648
10848TIP3   OH254034   5.294   3.513  11.217 -0.0882  0.4156 -0.1396
10848TIP3    H154035   5.331   3.537  11.302 -0.7600  2.3808 -0.3520
10848TIP3    H254036   5.367   3.519  11.156 -0.0577  1.0616 -0.0379
10849TIP3   OH254037   2.119   3.674  11.415  0.3035 -0.3012 -0.3500
10849TIP3    H154038   2.206   3.683  11.453  0.7245  1.4656 -1.6029
10849TIP3    H254039   2.130   3.606  11.348  0.8383  0.1927 -0.7771
10850TIP3   OH254040   2.440   5.350   1.246  0.0629  0.2253 -0.5753
10850TIP3    H154041   2.476   5.285   1.306 -0.4163  1.1817  0.8327
10850TIP3    H254042   2.485   5.335   1.163  0.5916 -1.3032 -0.0473
10851TIP3   OH254043   6.390   4.042   5.197  0.1189  0.4039 -0.1289
10851TIP3    H154044   6.313   4.097   5.208  0.0904  0.2894  0.2847
10851TIP3    H254045   6.439   4.082   5.125 -0.5400  0.2200 -0.6865
10852TIP3   OH254046   1.287   2.664   5.611 -0.2587  0.4848 -0.6929
10852TIP3    H154047   1.314   2.673   5.520  0.2100 -0.4165 -0.6518
10852TIP3    H254048   1.283   2.754   5.644 -0.0920  0.7933 -1.5042
10853TIP3   OH254049   3.005   4.124  11.192 -0.9689  0.0377 -0.0402
10853TIP3    H154050   3.015   4.178  11.113  0.2455 -0.6393 -0.3753
10853TIP3    H254051   2.910   4.116  11.204 -1.1923  2.2750  0.0614
10854TIP3   OH254052   6.571   3.369   3.403 -0.1839 -0.1454  0.5615
10854TIP3    H154053   6.490   3.318   3.400 -0.7784  0.3114  4.3252
10854TIP3    H254054   6.545   3.453   3.442  1.9748  0.3042  1.1469
10855TIP3   OH254055   2.629   0.728  12.732 -0.5442  0.3435  0.0007
10855TIP3    H154056   2.563   0.790  12.761 -0.4832  0.3346  0.1626
10855TIP3    H254057   2.592   0.642  12.753 -0.0520  0.3675  1.0387
10856TIP3   OH254058   5.311   0.658  11.269  0.0280 -0.5191 -0.1308
10856TIP3    H154059   5.391   0.610  11.247 -0.3916 -0.9556 -0.7374
10856TIP3    H254060   5.241   0.603  11.235 -0.4716  0.5000 -0.7953
10857TIP3   OH254061   5.096   1.414  14.163  0.1072  0.0532  0.6831
10857TIP3    H154062   5.028   1.460  14.114 -0.0786 -2.0263 -1.1595
10857TIP3    H254063   5.057   1.397  14.249 -1.2226  0.0483  0.1035
10858TIP3   OH254064   4.165   0.371   5.137  0.4804 -0.0319  0.3510
10858TIP3    H154065   4.230   0.309   5.169 -0.0749  0.2054  2.0975
10858TIP3    H254066   4.204   0.457   5.154  0.1545  0.1026  0.4298
10859TIP3   OH254067   0.144   1.218  15.412  0.0376 -0.3040  0.2028
10859TIP3    H154068   0.057   1.198  15.446 -0.9295  1.2863 -1.1822
10859TIP3    H254069   0.150   1.314  15.417  1.6196 -0.3697  0.0392
10860TIP3   OH254070   6.225   2.951  11.867 -0.5512  0.2626 -0.2428
10860TIP3    H154071   6.218   3.025  11.928 -0.1178  1.0364 -1.1132
10860TIP3    H254072   6.293   2.895  11.905 -0.3089  0.7197  0.0043
10861TIP3   OH254073   2.083   3.527  13.623  0.1198 -0.5864  0.0900
10861TIP3    H154074   2.114   3.589  13.557 -1.3865 -1.2429 -1.3083
10861TIP3    H254075   2.016   3.575  13.671  1.9898  0.2718  1.9875
10862TIP3   OH254076   2.989   1.479  14.556 -0.0729 -0.1420 -0.1026
10862TIP3    H154077   2.920   1.531  14.597 -0.8882 -1.2862  0.0323
10862TIP3    H254078   2.943   1.425  14.492  0.5302 -1.6946  0.7335
10863TIP3   OH254079   5.153   5.731   3.776 -0.3123  0.1365 -0.2723
10863TIP3    H154080   5.148   5.783   3.856 -0.9507  0.2248 -0.3666
10863TIP3    H254081   5.191   5.790   3.711 -1.3490  0.6171 -0.4713
10864TIP3   OH254082   0.405   5.223  15.621  0.5692 -0.4510  0.0570
10864TIP3    H154083   0.404   5.157  15.552  1.3292 -0.0052 -0.3910
10864TIP3    H254084   0.478   5.280  15.599  0.6612 -0.1450  1.0935
10865TIP3   OH254085   5.969   2.787  13.303 -0.7332 -0.3685  0.2211
10865TIP3    H154086   5.911   2.743  13.241  1.2793 -1.8090 -0.7500
10865TIP3    H254087   5.940   2.879  13.302 -0.8599 -0.3298 -2.8420
10866TIP3   OH254088   1.363   6.092   3.257 -0.2665  0.4156  0.5948
10866TIP3    H154089   1.338   6.022   3.318 -1.0729 -1.0122 -1.2719
10866TIP3    H254090   1.453   6.113   3.281  0.5605 -2.3728  0.2834
10867TIP3   OH254091   1.878   5.892  11.930 -0.0258 -0.3252  0.3884
10867TIP3    H154092   1.946   5.955  11.951  1.0417 -0.3756 -2.5139
10867TIP3    H254093   1.896   5.818  11.989  0.8192  0.6631  1.4291
10868TIP3   OH254094   5.835   4.226  16.196 -0.6914  0.3590 -0.4180
10868TIP3    H154095   5.908   4.164  16.198 -1.1586 -0.5117 -3.9343
10868TIP3    H254096   5.816   4.243  16.288 -0.3406 -4.5553  0.8625
10869TIP3   OH254097   2.563   3.772  16.197  0.3071 -1.2279 -0.2806
10869TIP3    H154098   2.482   3.819  16.216  0.8133 -0.1158 -0.7304
10869TIP3    H254099   2.632   3.834  16.220  1.0740 -2.6004  1.2361
10870TIP3   OH254100   0.729   2.688   0.976 -0.2678 -0.1366 -0.0634
10870TIP3    H154101   0.795   2.678   1.045  0.5174  1.8188 -0.4551
10870TIP3    H254102   0.779   2.710   0.898 -1.2718 -0.4413 -0.8087
10871TIP3   OH254103   4.915   1.926  14.443  0.2303  0.0938 -0.1161
10871TIP3    H154104   4.827   1.949  14.415 -0.7495 -0.5624  2.1994
10871TIP3    H254105   4.954   1.883  14.367 -1.0993  1.1748 -1.4657
10872TIP3   OH254106   0.591   3.999  16.061 -0.5752 -0.2357  0.3523
10872TIP3    H154107   0.522   4.051  16.104 -0.2123  1.5057 -1.0470
10872TIP3    H254108   0.595   3.919  16.113 -4.0352 -0.6967  0.1951
10873TIP3   OH254109   1.818   2.313  12.640 -0.5052  0.5299  0.0637
10873TIP3    H154110   1.896   2.328  12.693 -0.8171  1.5825  0.2420
10873TIP3    H254111   1.851   2.269  12.562  0.4087  1.7607 -0.2758
10874TIP3   OH254112   3.100   6.289  11.392 -0.1643  0.4898  0.1852
10874TIP3    H154113   3.115   6.255  11.480 -2.3985 -1.5032 -0.0802
10874TIP3    H254114   3.006   6.276  11.378  0.0905  0.9867 -2.3945
10875TIP3   OH254115   4.220   1.500   2.513 -0.0393 -0.0608 -0.0792
10875TIP3    H154116   4.204   1.441   2.586 -1.8327  0.0011 -0.3899
10875TIP3    H254117   4.242   1.584   2.553 -0.2642 -0.2193  0.3679
10876TIP3   OH254118   1.868   2.213  12.374  0.4134  0.2857  0.6964
10876TIP3    H154119   1.834   2.300  12.396  1.2948  0.2216  2.5006
10876TIP3    H254120   1.838   2.197  12.284 -2.1270  1.2553  1.3066
10877TIP3   OH254121   4.543   1.330   5.589  0.4033 -0.6953 -0.3440
10877TIP3    H154122   4.527   1.373   5.673 -0.0628 -1.8813  0.2033
10877TIP3    H254123   4.636   1.346   5.571  0.5995 -0.7155  0.5845
10878TIP3   OH254124   0.728   5.972   2.217 -0.3935  0.6904  0.1653
10878TIP3    H154125   0.761   5.904   2.159  0.8952 -0.5217  2.1863
10878TIP3    H254126   0.645   5.939   2.249  0.0899  0.1765  0.9144
10879TIP3   OH254127   0.849   2.872  14.371  0.4551  0.0850  0.0966
10879TIP3    H154128   0.825   2.940  14.308 -0.8933  1.5885  2.0959
10879TIP3    H254129   0.945   2.868  14.367  0.4094  0.0613 -2.0501
10880TIP3   OH254130   1.770   3.109   3.225 -0.3537 -0.4346  0.3140
10880TIP3    H154131   1.836   3.047   3.255  0.2141  0.6213  1.3198
10880TIP3    H254132   1.713   3.058   3.168  1.5740 -1.2750 -0.9384
10881TIP3   OH254133   3.292   0.001  12.346  0.1370  0.0088 -0.0172
10881TIP3    H154134   3.252   0.044  12.421  0.2545 -0.2535  0.1978
10881TIP3    H254135   3.372  -0.038  12.381  1.0694  1.2881 -0.6306
10882TIP3   OH254136   0.037   4.871  12.243  0.2749 -0.1857  0.5878
10882TIP3    H154137  -0.025   4.936  12.212  2.4786  1.6997 -0.2159
10882TIP3    H254138   0.038   4.804  12.175  1.0537  1.1544 -0.8026
10883TIP3   OH254139   6.568   0.037  12.538  0.0262 -1.0279  0.2371
10883TIP3    H154140   6.533  -0.045  12.503  1.5484 -1.0724 -1.2964
10883TIP3    H254141   6.663   0.027  12.533  0.3280 -0.3210  2.8373
10884TIP3   OH254142   4.512   6.283   1.083 -0.0221 -0.1445  0.3639
10884TIP3    H154143   4.542   6.328   1.004 -0.1081  0.9665  0.9375
10884TIP3    H254144   4.589   6.278   1.139 -0.0478 -0.6050  0.3620
10885TIP3   OH254145   2.010   3.466   1.147  0.2117  0.1879 -0.0105
10885TIP3    H154146   1.967   3.393   1.191 -1.2622  0.3588 -1.1081
10885TIP3    H254147   2.103   3.454   1.167  0.0562 -2.1533 -0.4185
10886TIP3   OH254148   6.126   5.009  16.892 -0.0663  0.5714  0.3257
10886TIP3    H154149   6.195   5.074  16.877  1.4786 -1.2735 -1.1754
10886TIP3    H254150   6.156   4.960  16.969 -0.2445  0.4614  0.3242
10887TIP3   OH254151   3.277   6.671  12.652  0.0412 -0.5807 -0.1664
10887TIP3    H154152   3.232   6.587  12.640 -0.1409 -0.6091  0.6626
10887TIP3    H254153   3.349   6.669  12.589 -0.2479 -1.1588 -0.4814
10888TIP3   OH254154   2.455   6.003   5.889  0.0425 -0.2018  0.4810
10888TIP3    H154155   2.472   5.909   5.878  1.4043  0.0062  0.6487
10888TIP3    H254156   2.487   6.023   5.977  0.9274  0.6549 -0.0118
10889TIP3   OH254157   4.562   2.045   6.052 -0.0418  0.1978  0.1297
10889TIP3    H154158   4.573   2.086   5.966 -0.0674 -0.4248 -0.1781
10889TIP3    H254159   4.567   2.117   6.114 -0.4608  0.7115 -0.4259
10890TIP3   OH254160   0.739   0.851  12.156 -0.5552  0.2268 -0.0350
10890TIP3    H154161   0.697   0.877  12.073  0.5119  0.2046 -0.5971
10890TIP3    H254162   0.734   0.755  12.155 -0.3012  0.2126 -0.2162
10891TIP3   OH254163   1.392   4.607  14.787 -0.6600 -0.2691 -0.2061
10891TIP3    H154164   1.470   4.635  14.740 -0.8860 -1.4124 -1.3009
10891TIP3    H254165   1.338   4.563  14.721 -0.8307 -2.2451  1.1676
10892TIP3   OH254166   5.302   3.642  15.259 -0.7365  0.1599  0.4144
10892TIP3    H154167   5.302   3.648  15.164 -0.1717  0.0787  0.4014
10892TIP3    H254168   5.351   3.719  15.288 -2.7375  1.3654  0.7547
10893TIP3   OH254169   2.183   5.317   5.272  0.4318 -0.6320 -0.1397
10893TIP3    H154170   2.171   5.378   5.345 -3.8914 -0.8522 -0.4171
10893TIP3    H254171   2.224   5.369   5.203  1.5213  0.4884  1.2881
10894TIP3   OH254172   4.377   1.830  11.229 -0.3385  0.3378 -0.0721
10894TIP3    H154173   4.461   1.811  11.186 -0.0556 -0.9716  1.0185
10894TIP3    H254174   4.312   1.785  11.175 -0.2792  0.7828 -0.5271
10895TIP3   OH254175   3.261   2.742   4.282 -0.0554  0.0845  0.1643
10895TIP3    H154176   3.169   2.717   4.272  0.1322 -0.3304 -0.5849
10895TIP3    H254177   3.302   2.716   4.200  1.0016 -0.9645  0.9831
10896TIP3   OH254178   4.437   1.541  13.298  0.2027 -0.3361  0.0168
10896TIP3    H154179   4.524   1.512  13.269 -0.6362 -2.4583 -0.5434
10896TIP3    H254180   4.424   1.498  13.382 -0.9826 -1.5315 -0.7321
10897TIP3   OH254181   6.255   4.893   0.337  0.6135  0.2484 -0.4896
10897TIP3    H154182   6.176   4.938   0.369  0.3640  1.1566 -2.2833
10897TIP3    H254183   6.328   4.941   0.377  0.3258  1.7828 -1.7238
10898TIP3   OH254184   4.501   0.102   3.988  0.3146 -0.2649  0.3531
10898TIP3    H154185   4.430   0.064   4.040 -1.5624 -1.0064 -2.5574
10898TIP3    H254186   4.458   0.163   3.928  2.3747  0.6420 -0.3128
10899TIP3   OH254187   4.969   1.669  13.445 -0.1593 -0.1599  0.1594
10899TIP3    H154188   5.043   1.649  13.388 -0.1915 -0.1175  0.1033
10899TIP3    H254189   4.902   1.704  13.387 -0.1474 -0.0011  0.2406
10900TIP3   OH254190   3.543   3.212  11.511  0.6236  0.1345 -0.0985
10900TIP3    H154191   3.507   3.143  11.566  2.2652  0.6308  1.6780
10900TIP3    H254192   3.467   3.264  11.486 -0.9369 -2.9872 -2.7396
10901TIP3   OH254193   3.480   5.371  13.778  0.4204 -0.4088  0.7282
10901TIP3    H154194   3.541   5.297  13.777  1.9787  0.8352  0.4207
10901TIP3    H254195   3.430   5.360  13.859 -0.2500 -2.4490  0.1051
10902TIP3   OH254196   5.268   0.999   2.827 -0.4619  0.5284  0.2269
10902TIP3    H154197   5.205   0.970   2.760 -3.0824 -0.8440  3.0446
10902TIP3    H254198   5.214   1.034   2.897  2.0482  0.6115  2.2679
10903TIP3   OH254199   6.394   2.360   2.495 -0.0891  0.3280 -0.1196
10903TIP3    H154200   6.339   2.282   2.492 -0.4350  0.5835 -0.5384
10903TIP3    H254201   6.477   2.330   2.531 -0.5096 -0.0563  0.5408
10904TIP3   OH254202   6.361   4.355  13.831  0.7600  0.4220  0.6590
10904TIP3    H154203   6.379   4.340  13.923 -1.4497  0.5278  1.1782
10904TIP3    H254204   6.294   4.290  13.809  0.8257  0.7817 -0.7136
10905TIP3   OH254205   4.637   3.704  15.196  0.9554  0.1655  0.2161
10905TIP3    H154206   4.596   3.719  15.110  1.9340 -1.4427 -0.5791
10905TIP3    H254207   4.682   3.786  15.215 -2.4949  2.0464  1.1387
10906TIP3   OH254208   5.704   1.481   2.012 -0.2597  0.1582 -0.2631
10906TIP3    H154209   5.728   1.393   2.043  0.5343 -0.0336 -1.3861
10906TIP3    H254210   5.774   1.537   2.044 -0.4325  0.2814 -0.0978
10907TIP3   OH254211   1.692   3.418   4.174 -0.0465 -0.1708  0.2042
10907TIP3    H154212   1.726   3.335   4.207  2.4468  0.8542  0.4410
10907TIP3    H254213   1.675   3.402   4.081  0.5913 -0.9237  0.2083
10908TIP3   OH254214   3.490   0.113  13.719 -0.1051 -0.0588 -0.4611
10908TIP3    H154215   3.416   0.089  13.774 -0.4490  2.4206  0.2944
10908TIP3    H254216   3.451   0.134  13.634 -0.4068  1.8042  0.1007
10909TIP3   OH254217   0.364   4.494  14.891 -0.1537 -0.1657  0.0305
10909TIP3    H154218   0.422   4.447  14.952 -0.6092 -0.5228  0.1878
10909TIP3    H254219   0.279   4.494  14.934 -0.6967 -1.1912 -0.9893
10910TIP3   OH254220   6.538   4.889   4.130  0.1068  0.1649 -0.0361
10910TIP3    H154221   6.603   4.935   4.183 -0.4155 -1.0811  1.7579
10910TIP3    H254222   6.581   4.806   4.106 -0.1785  0.1108 -0.3675
10911TIP3   OH254223   1.852   0.160   5.365  0.6597  0.2479 -0.4689
10911TIP3    H154224   1.826   0.068   5.369  1.2445  0.1122  1.0247
10911TIP3    H254225   1.944   0.158   5.339  0.4836  0.4681 -1.1405
10912TIP3   OH254226   3.013   6.733  12.326  0.4584  0.0972 -0.2814
10912TIP3    H154227   2.967   6.814  12.345  0.5158  0.6099 -2.1679
10912TIP3    H254228   3.103   6.759  12.308  0.7379 -0.5277  0.1503
10913TIP3   OH254229   1.970   4.381  14.453 -0.6406  0.1824  0.6282
10913TIP3    H154230   1.933   4.417  14.373 -0.3366  0.7738  0.7437
10913TIP3    H254231   2.022   4.306  14.425  1.7472  1.9933 -0.1134
10914TIP3   OH254232   3.304   5.597  12.380 -0.4170 -0.2533 -0.6418
10914TIP3    H154233   3.241   5.666  12.401 -0.5480 -0.8942  1.3047
10914TIP3    H254234   3.334   5.565  12.466  0.5641 -1.7655 -1.4979
10915TIP3   OH254235   2.088   6.320   4.781  0.4201 -0.2828 -0.0523
10915TIP3    H154236   2.145   6.310   4.704  0.3962  2.0132 -0.4415
10915TIP3    H254237   2.149   6.329   4.855  0.4614 -1.4196  0.0679
10916TIP3   OH254238   0.364   1.418  12.780 -0.1864  0.1270 -0.2935
10916TIP3    H154239   0.425   1.360  12.827 -0.9401  0.6463  1.4126
10916TIP3    H254240   0.278   1.395  12.815 -0.9880 -0.4103 -2.4767
10917TIP3   OH254241   0.849   3.441  14.857 -0.2334 -0.4087  0.2349
10917TIP3    H154242   0.900   3.518  14.882 -0.1689 -0.2400 -0.4133
10917TIP3    H254243   0.892   3.368  14.902 -1.3656  0.1372  2.3412
10918TIP3   OH254244   1.456   5.445   4.601 -0.0486 -0.9038  0.1301
10918TIP3    H154245   1.473   5.357   4.634  1.7293 -0.9559 -0.8408
10918TIP3    H254246   1.371   5.438   4.557 -1.7517 -1.2066  3.1620
10919TIP3   OH254247   2.372   3.042  17.248  0.0783 -0.3876 -0.4009
10919TIP3    H154248   2.334   3.058  17.334 -1.3515 -0.9920 -0.8828
10919TIP3    H254249   2.443   2.979  17.264  1.1223  0.9983  0.5608
10920TIP3   OH254250   1.670   1.702  12.653 -0.3779  0.1878  0.7751
10920TIP3    H154251   1.754   1.676  12.615 -1.4943  0.9097 -2.4887
10920TIP3    H254252   1.622   1.619  12.663 -0.1671  0.0126  0.3332
10921TIP3   OH254253   0.927   0.369  16.731  0.4442  0.5006 -0.0940
10921TIP3    H154254   1.001   0.309  16.741 -0.6908 -0.8444  0.6737
10921TIP3    H254255   0.960   0.453  16.763  1.3198 -0.3268  1.3319
10922TIP3   OH254256   2.446   3.903  15.840 -0.0690  0.8813 -0.1664
10922TIP3    H154257   2.512   3.834  15.836  0.9618  1.8622 -0.6350
10922TIP3    H254258   2.377   3.874  15.780  1.4513  1.3410 -2.2579
10923TIP3   OH254259   3.218   6.097  14.502 -0.1476  0.2091  0.8204
10923TIP3    H154260   3.217   6.047  14.421  3.1893  0.7669  0.3035
10923TIP3    H254261   3.130   6.135  14.508 -0.4071  0.4572 -2.7150
10924TIP3   OH254262   1.928   0.042  15.681 -0.3547 -0.2461 -0.2063
10924TIP3    H154263   1.834   0.045  15.696 -0.7027  0.1352 -2.2391
10924TIP3    H254264   1.963   0.116  15.732 -1.1757 -0.2175  0.3297
10925TIP3   OH254265   2.167   6.354   5.955  0.3597  0.3254 -0.0628
10925TIP3    H154266   2.172   6.266   5.919  1.5449  0.1070  0.6115
10925TIP3    H254267   2.256   6.388   5.952 -0.0380  1.4386 -0.1261
10926TIP3   OH254268   1.506   2.819   5.983 -0.1917 -0.3980  0.4752
10926TIP3    H154269   1.571   2.889   5.981 -0.9914  0.3580  0.1857
10926TIP3    H254270   1.502   2.790   6.074  0.4992 -0.4125  0.5010
10927TIP3   OH254271   5.685   0.903   5.359  0.2752 -0.4239  0.6836
10927TIP3    H154272   5.593   0.917   5.382  0.6542  1.7355  1.0521
10927TIP3    H254273   5.725   0.866   5.438  0.1926  0.8128  1.3202
10928TIP3   OH254274   4.213   1.105   3.562  0.6376  0.2961  0.0291
10928TIP3    H154275   4.185   1.096   3.653  1.6522 -0.6181  0.2834
10928TIP3    H254276   4.287   1.043   3.554  1.0554  0.9230 -1.1976
10929TIP3   OH254277   5.435   6.657  16.086 -0.3558  0.0178 -0.5324
10929TIP3    H154278   5.525   6.673  16.114  0.1146  0.1670 -2.0076
10929TIP3    H254279   5.394   6.614  16.160  1.1550 -0.7682 -0.1120
10930TIP3   OH254280   0.430   0.643   5.860 -0.1653 -0.2846 -0.2933
10930TIP3    H154281   0.425   0.598   5.944  1.3955  0.3479  0.1851
10930TIP3    H254282   0.521   0.632   5.833 -0.4724  0.1259 -1.5749
10931TIP3   OH254283   4.514   5.324   3.091 -0.2195  0.2913  0.6262
10931TIP3    H154284   4.535   5.235   3.063 -4.2559 -0.2255 -1.5674
10931TIP3    H254285   4.559   5.380   3.027  1.1359 -0.1852  1.1260
10932TIP3   OH254286   0.248   1.492   3.219 -0.5665 -0.1110 -0.3802
10932TIP3    H154287   0.310   1.431   3.258  0.4087 -0.8384 -2.8705
10932TIP3    H254288   0.163   1.465   3.254  0.3021  0.2171  2.2487
10933TIP3   OH254289   5.296   5.635  10.370 -0.0949 -0.1398 -0.5390
10933TIP3    H154290   5.377   5.634  10.320 -0.1852 -1.0020 -0.6844
10933TIP3    H254291   5.230   5.599  10.310 -0.8154  1.5021 -0.7828
10934TIP3   OH254292   1.401   1.961  13.473  0.0973 -0.4569 -0.1493
10934TIP3    H154293   1.357   1.895  13.420  0.8540 -1.9013  0.9646
10934TIP3    H254294   1.367   1.948  13.562  0.5295  0.4081  0.1546
10935TIP3   OH254295   4.521   5.114   4.728 -0.0600  0.2122 -0.5469
10935TIP3    H154296   4.560   5.029   4.711  0.7112  0.2340  0.9665
10935TIP3    H254297   4.431   5.095   4.756 -1.1125  0.1401 -3.5849
10936TIP3   OH254298   0.055   1.642  15.625 -0.9126 -0.2634  0.2870
10936TIP3    H154299   0.150   1.645  15.615 -0.9835 -1.2958 -0.8903
10936TIP3    H254300   0.027   1.732  15.607 -0.0560  0.4215  2.1698
10937TIP3   OH254301   4.735   4.427   2.002  0.3211 -0.0127 -0.5285
10937TIP3    H154302   4.830   4.423   2.014  0.3923 -1.4181 -1.3528
10937TIP3    H254303   4.704   4.472   2.081  1.4862 -1.4832  0.8508
10938TIP3   OH254304   6.453   2.570   2.979  0.3641  0.2541  0.8150
10938TIP3    H154305   6.497   2.610   3.054  0.3712  0.1791  0.8507
10938TIP3    H254306   6.412   2.643   2.933  1.6602  0.5230  0.0098
10939TIP3   OH254307   2.396   3.079  16.516 -0.2990  0.3143  0.4174
10939TIP3    H154308   2.331   3.103  16.450 -0.2165  1.0491  0.5933
10939TIP3    H254309   2.383   3.144  16.586  0.6726  0.5076  0.4253
10940TIP3   OH254310   4.740   6.153  13.563  0.5291 -0.3878 -0.1775
10940TIP3    H154311   4.800   6.224  13.541  2.1092 -1.6255 -0.0572
10940TIP3    H254312   4.653   6.190  13.548  1.3034  1.4024 -0.5744
10941TIP3   OH254313   4.073   2.135   2.267 -0.1847 -0.0669 -0.0676
10941TIP3    H154314   4.059   2.133   2.172  0.2827  0.0507 -0.1427
10941TIP3    H254315   4.141   2.201   2.280  1.1587 -1.4160  0.1504
10942TIP3   OH254316   0.430   1.307  14.942 -0.2886 -0.4231  0.2140
10942TIP3    H154317   0.461   1.398  14.948 -0.0762 -0.4496 -0.4100
10942TIP3    H254318   0.338   1.311  14.968 -0.9170  0.3450 -1.9516
10943TIP3   OH254319   4.098   5.836   0.325 -0.3872  0.6088 -0.4060
10943TIP3    H154320   4.150   5.866   0.400  2.0654 -0.3211 -1.5941
10943TIP3    H254321   4.041   5.768   0.360  1.1236 -0.2087  0.5725
10944TIP3   OH254322   3.721   3.098   0.209  0.6500 -0.3118 -0.3247
10944TIP3    H154323   3.626   3.083   0.207  0.6723 -0.3709 -2.4390
10944TIP3    H254324   3.754   3.032   0.271 -0.5942 -0.7896 -0.1333
10945TIP3   OH254325   2.780   6.234   0.918  0.1516  0.5717  0.2685
10945TIP3    H154326   2.787   6.142   0.891  0.4361  0.6279  0.1399
10945TIP3    H254327   2.855   6.247   0.976  0.2160  0.7699  0.1412
10946TIP3   OH254328   2.719   1.448  15.527  0.0153 -0.3442 -0.1948
10946TIP3    H154329   2.659   1.426  15.598 -1.0760  2.3635 -0.1532
10946TIP3    H254330   2.783   1.507  15.567  0.4781 -0.2310 -1.0707
10947TIP3   OH254331   3.113   3.766   2.719 -0.2909 -0.1603 -0.0460
10947TIP3    H154332   3.154   3.747   2.803  0.8056  2.1406  0.0293
10947TIP3    H254333   3.186   3.786   2.661 -1.1525  2.8442 -0.2585
10948TIP3   OH254334   4.480   5.398  12.160  0.1851  0.4764 -0.5192
10948TIP3    H154335   4.469   5.302  12.158  0.5880  0.4240 -0.2078
10948TIP3    H254336   4.541   5.414  12.231 -1.3221  1.1194  0.6960
10949TIP3   OH254337   3.528   1.340  14.399  0.3563  0.3295 -0.5462
10949TIP3    H154338   3.613   1.371  14.431 -0.7832  0.5203  2.7471
10949TIP3    H254339   3.470   1.415  14.409 -0.1907  0.3255 -3.1387
10950TIP3   OH254340   6.437   1.243   3.559  0.2909  0.1847 -0.4700
10950TIP3    H154341   6.355   1.268   3.603  0.2118  0.4252 -0.7528
10950TIP3    H254342   6.485   1.325   3.550  0.9736 -0.0775  0.5130
10951TIP3   OH254343   1.898   2.501  15.419 -0.1169 -0.5062  0.4522
10951TIP3    H154344   1.826   2.451  15.457 -0.8038  0.8167  0.9670
10951TIP3    H254345   1.974   2.443  15.425 -0.7746 -1.2902  1.4724
10952TIP3   OH254346   5.812   5.784   0.869  0.2838  0.1878  0.0945
10952TIP3    H154347   5.743   5.727   0.837  1.1640 -0.5368 -0.5840
10952TIP3    H254348   5.891   5.753   0.825  0.9555  1.3322  0.4406
10953TIP3   OH254349   5.468   3.895  11.718  0.1810  0.2879 -0.0104
10953TIP3    H154350   5.405   3.842  11.767 -0.3709  1.2683  0.3659
10953TIP3    H254351   5.422   3.918  11.638  0.2911  0.4845 -0.0170
10954TIP3   OH254352   1.727   0.893   3.122 -0.3651  0.2425 -0.5069
10954TIP3    H154353   1.725   0.976   3.169 -0.6179 -0.6680  1.1663
10954TIP3    H254354   1.639   0.857   3.131  0.2507 -1.1173  0.5787
10955TIP3   OH254355   0.123   4.491  15.439 -0.2501 -0.1353 -0.1818
10955TIP3    H154356   0.132   4.404  15.401  0.6263 -0.0161 -0.2804
10955TIP3    H254357   0.041   4.488  15.488 -0.9088 -0.5998 -1.2700
10956TIP3   OH254358   3.531   0.298   5.760 -0.1986 -0.2413  0.0011
10956TIP3    H154359   3.552   0.316   5.852 -2.7964 -1.7520  0.9805
10956TIP3    H254360   3.613   0.264   5.723  0.4603 -1.2149  2.2045
10957TIP3   OH254361   4.360   2.317  12.564 -0.0964  0.4880  0.1515
10957TIP3    H154362   4.373   2.304  12.658  1.3503  2.8446  0.3373
10957TIP3    H254363   4.405   2.243  12.524 -1.5429 -1.0892  1.2685
10958TIP3   OH254364   5.647   3.806   4.707  0.3872  0.0643  0.4458
10958TIP3    H154365   5.671   3.725   4.753  1.2217 -0.2812 -0.5513
10958TIP3    H254366   5.694   3.875   4.754  2.2660 -0.4289 -0.5724
10959TIP3   OH254367   1.529   1.456  15.419  1.0882 -0.0454  0.2513
10959TIP3    H154368   1.513   1.490  15.331 -3.1623 -1.0413  0.3770
10959TIP3    H254369   1.479   1.514  15.476  1.7806 -0.8199  1.7013
10960TIP3   OH254370   1.239   2.898   5.750  0.3189 -0.2105 -0.4191
10960TIP3    H154371   1.261   2.988   5.726  0.2018  0.0595  0.4508
10960TIP3    H254372   1.219   2.902   5.844  0.2347 -1.1280 -0.3860
10961TIP3   OH254373   3.411   4.905  13.266  0.2473 -0.0133  0.0417
10961TIP3    H154374   3.405   4.894  13.171  1.1027 -0.8772  0.0683
10961TIP3    H254375   3.497   4.945  13.280 -0.3431  1.1622  0.3889
10962TIP3   OH254376   0.962   3.075   2.399  0.6081  0.1087  0.3562
10962TIP3    H154377   0.873   3.103   2.422  0.6423 -0.7035  1.5901
10962TIP3    H254378   1.017   3.114   2.467  1.2501  0.8116 -0.5387
10963TIP3   OH254379   0.035   0.462  15.365 -0.1017  0.2940 -0.0415
10963TIP3    H154380   0.040   0.476  15.460 -2.5337  0.7976  0.0725
10963TIP3    H254381  -0.036   0.519  15.336  0.1252 -0.3759 -2.0773
10964TIP3   OH254382   2.207   2.413  14.684 -0.3489 -0.0916 -0.2210
10964TIP3    H154383   2.205   2.395  14.778  0.5337  0.2459 -0.1291
10964TIP3    H254384   2.172   2.502  14.676  1.1370  0.5406 -0.0204
10965TIP3   OH254385   6.247   1.660  10.798  0.3406  0.0325 -0.0418
10965TIP3    H154386   6.335   1.683  10.769  0.1032  0.1904 -0.6591
10965TIP3    H254387   6.192   1.674  10.721 -0.2122 -0.1399  0.3141
10966TIP3   OH254388   4.264   5.312   5.167  0.2754 -0.7317  0.4613
10966TIP3    H154389   4.272   5.349   5.255 -2.7595 -0.2340  0.6483
10966TIP3    H254390   4.339   5.347   5.119  1.3371 -0.0347  2.5087
10967TIP3   OH254391   5.356   0.205  12.661 -0.4706  0.0899 -0.6077
10967TIP3    H154392   5.294   0.276  12.642 -0.6292 -0.0980 -0.7920
10967TIP3    H254393   5.430   0.249  12.703 -0.7905  0.2953 -0.2546
10968TIP3   OH254394   1.183   2.706  15.351 -0.3276  0.5556 -0.2085
10968TIP3    H154395   1.201   2.732  15.441 -1.5847 -2.3640  1.0155
10968TIP3    H254396   1.262   2.660  15.323 -0.4515  0.2715 -0.0927
10969TIP3   OH254397   0.061   1.380   1.972  0.2577 -0.1032 -0.3106
10969TIP3    H154398   0.120   1.453   1.993  3.1098 -1.9140 -1.4563
10969TIP3    H254399  -0.024   1.408   2.006  1.6825  2.7681  1.3029
10970TIP3   OH254400   0.910   0.781  15.172 -0.3324  0.1587  0.2993
10970TIP3    H154401   0.926   0.859  15.119 -1.8237  0.5905  0.4242
10970TIP3    H254402   0.952   0.800  15.256  0.4838  0.2386 -0.1188
10971TIP3   OH254403   0.877   1.927   3.670 -0.4229 -0.0086  0.4891
10971TIP3    H154404   0.931   1.928   3.749 -1.6417 -1.2172  1.3812
10971TIP3    H254405   0.927   1.875   3.607  0.8183  1.4335  0.2253
10972TIP3   OH254406   1.458   0.467   0.700 -0.2431  0.5402 -0.4410
10972TIP3    H154407   1.452   0.512   0.616 -2.5441 -0.9804 -1.2020
10972TIP3    H254408   1.384   0.502   0.751 -0.7959 -0.8099 -0.2775
10973TIP3   OH254409   2.274   4.975  11.295  0.0418 -0.3057 -0.3772
10973TIP3    H154410   2.322   5.015  11.223 -2.6425 -1.2722 -2.8805
10973TIP3    H254411   2.208   5.040  11.319  0.4514 -0.2893  0.7593
10974TIP3   OH254412   1.016   0.309   5.617  0.2957  0.0082 -0.2677
10974TIP3    H154413   0.961   0.289   5.693  0.2161  0.6791 -0.1480
10974TIP3    H254414   1.046   0.223   5.587 -1.9708 -0.5322 -1.2225
10975TIP3   OH254415   6.057   2.644   5.968 -0.3667 -0.4800 -0.0905
10975TIP3    H154416   5.989   2.579   5.987 -1.5706  0.5412 -0.7730
10975TIP3    H254417   6.009   2.724   5.946  1.0708  0.5758  0.4304
10976TIP3   OH254418   1.027   6.533  10.962 -0.3088 -0.8116 -0.1465
10976TIP3    H154419   1.094   6.594  10.930  0.9473 -1.7396  0.6459
10976TIP3    H254420   1.022   6.550  11.056 -0.3762 -1.5115 -0.0185
10977TIP3   OH254421   5.849   0.664   0.652  0.3765 -0.5262  0.1766
10977TIP3    H154422   5.910   0.732   0.679  0.5583  0.3401 -2.2307
10977TIP3    H254423   5.777   0.669   0.716  0.8500  1.2494  0.6152
10978TIP3   OH254424   5.015   6.568  12.959  0.0102  0.0838  0.0414
10978TIP3    H154425   5.087   6.624  12.928  0.1457 -0.7872 -1.2553
10978TIP3    H254426   5.059   6.491  12.996 -0.2005 -1.5051 -2.7402
10979TIP3   OH254427   0.464   2.741  13.633  0.2685  0.2435  0.3606
10979TIP3    H154428   0.408   2.697  13.569 -0.1835 -0.8594  1.4925
10979TIP3    H254429   0.492   2.821  13.588 -0.3893 -0.2765 -1.0515
10980TIP3   OH254430   6.168   0.027   0.167 -0.1736  0.1344  0.2211
10980TIP3    H154431   6.251   0.071   0.146 -0.2258 -0.8980 -2.5771
10980TIP3    H254432   6.183  -0.014   0.252  1.4542  1.6453  0.7196
10981TIP3   OH254433   3.318   3.137   2.310 -0.0858 -0.3747 -0.2924
10981TIP3    H154434   3.234   3.147   2.265 -0.5659 -2.1729  0.1386
10981TIP3    H254435   3.303   3.175   2.397 -0.2134  0.0046 -0.4792
10982TIP3   OH254436   1.314   1.994  14.533  0.0190 -0.1701  0.3737
10982TIP3    H154437   1.396   1.972  14.488 -1.1416 -0.8379 -1.5385
10982TIP3    H254438   1.315   2.089  14.540  1.2511 -0.2149  0.9812
10983TIP3   OH254439   3.277   5.003   0.600  0.0909 -0.1698 -0.7427
10983TIP3    H154440   3.229   5.070   0.647  1.1797  1.2228 -1.5180
10983TIP3    H254441   3.244   5.009   0.510 -0.5341 -1.4158 -0.6243
10984TIP3   OH254442   1.720   4.119  11.783 -0.0714 -0.5208  0.1522
10984TIP3    H154443   1.753   4.209  11.786  1.2861 -0.9907 -0.1272
10984TIP3    H254444   1.638   4.122  11.833  0.5909  0.5944  1.2214
10985TIP3   OH254445   3.254   4.866   2.178  0.2725 -0.6210 -0.3144
10985TIP3    H154446   3.189   4.798   2.194 -0.1807 -0.7684 -2.4627
10985TIP3    H254447   3.209   4.931   2.125  0.7355  1.3636  1.5672
10986TIP3   OH254448   4.844   0.410  17.130  0.3123 -0.7766 -0.5124
10986TIP3    H154449   4.828   0.504  17.122 -1.7162 -0.8769  1.3239
10986TIP3    H254450   4.807   0.372  17.051  1.5136 -0.0470 -1.4673
10987TIP3   OH254451   2.360   3.381   4.801  0.0954 -0.4200  0.3385
10987TIP3    H154452   2.387   3.473   4.803 -0.7512 -0.1255 -0.8668
10987TIP3    H254453   2.289   3.377   4.865 -0.0455 -0.1715  0.2011
10988TIP3   OH254454   6.693   3.894   3.309 -0.2193  0.1512  0.9172
10988TIP3    H154455   6.637   3.836   3.361  0.0132 -2.1876 -1.2415
10988TIP3    H254456   6.774   3.900   3.359 -0.5371 -0.7645  1.5780
10989TIP3   OH254457   3.635   6.645   1.931 -0.3587  0.4440  0.7291
10989TIP3    H154458   3.683   6.562   1.921  2.3422  1.9881 -0.1348
10989TIP3    H254459   3.595   6.659   1.846 -2.4121 -0.7942  1.4190
10990TIP3   OH254460   1.016   4.609  13.764 -0.6663  0.5835  0.4414
10990TIP3    H154461   0.966   4.529  13.774  1.0838 -0.8858 -1.5528
10990TIP3    H254462   1.108   4.581  13.770  0.1161  1.8093 -3.0560
10991TIP3   OH254463   0.041   5.054   1.422 -0.2903 -0.9667  0.0196
10991TIP3    H154464   0.105   4.994   1.383 -0.1826  0.4214 -2.1332
10991TIP3    H254465  -0.008   5.088   1.347 -0.1780  1.8094  1.0840
10992TIP3   OH254466   6.652   1.751  12.350 -0.0658 -0.1140 -0.1388
10992TIP3    H154467   6.605   1.723  12.428  0.1285  2.9268  1.2127
10992TIP3    H254468   6.585   1.753  12.281 -0.5363 -1.5107  0.2449
10993TIP3   OH254469   0.865   3.424   1.375  0.6508  0.0692 -0.1685
10993TIP3    H154470   0.950   3.462   1.354  0.8452 -0.4870 -0.4136
10993TIP3    H254471   0.840   3.374   1.297 -0.0108  0.4102 -0.1873
10994TIP3   OH254472   1.268   0.198   0.856  0.0819  0.1619  0.2420
10994TIP3    H154473   1.333   0.263   0.883  0.2378  0.0978  0.0286
10994TIP3    H254474   1.315   0.142   0.794 -0.2215  0.2032 -0.0252
10995TIP3   OH254475   2.389   2.937   4.368 -0.3866  0.0253  0.6239
10995TIP3    H154476   2.346   2.972   4.289  0.1840 -0.3312  0.1550
10995TIP3    H254477   2.467   2.991   4.379  1.2818 -1.9167 -0.9177
10996TIP3   OH254478   4.960   2.508  11.897 -0.5943  0.4778  0.8373
10996TIP3    H154479   4.893   2.440  11.891  0.1532 -0.1224 -1.6417
10996TIP3    H254480   4.993   2.518  11.808  2.9018  0.4617  1.9871
10997TIP3   OH254481   6.332   4.196  11.419  0.3329  0.1139 -0.0011
10997TIP3    H154482   6.379   4.126  11.465 -1.0173 -0.6267  0.2990
10997TIP3    H254483   6.314   4.160  11.332  0.6479  0.5340 -0.2407
10998TIP3   OH254484   2.594   4.758  15.167  0.0225  0.3970  0.0037
10998TIP3    H154485   2.520   4.816  15.183 -0.9587 -1.2474  1.9511
10998TIP3    H254486   2.555   4.671  15.162  1.4405 -0.1920 -2.8122
10999TIP3   OH254487   0.114   3.214  12.512  0.0729  0.2455 -0.5981
10999TIP3    H154488   0.097   3.241  12.422 -0.7616  1.2844 -0.1540
10999TIP3    H254489   0.086   3.123  12.516  0.6250  0.0210 -1.5121
11000TIP3   OH254490   4.131   6.343   3.895 -0.1854 -0.1787  0.2144
11000TIP3    H154491   4.142   6.362   3.802  0.5533 -1.1797  0.0870
11000TIP3    H254492   4.118   6.249   3.900  2.6806 -0.6296  1.3176
11001TIP3   OH254493   4.855   4.865   2.489  0.2540  0.4246  1.0534
11001TIP3    H154494   4.799   4.902   2.421  0.4368  0.7402  1.0739
11001TIP3    H254495   4.944   4.888   2.463  0.4978 -1.3008  0.2704
11002TIP3   OH254496   2.349   4.816  13.302  0.3541 -0.6729  0.0811
11002TIP3    H154497   2.418   4.766  13.258  0.6358 -1.0679  0.9432
11002TIP3    H254498   2.291   4.749  13.338  0.2924 -0.3666  0.5593
11003TIP3   OH254499   3.377   6.701  11.105 -0.1186  0.2191 -0.0488
11003TIP3    H154500   3.400   6.704  11.012  0.2516 -0.0181  0.0351
11003TIP3    H254501   3.311   6.632  11.112 -0.4607  0.5259 -0.2003
11004TIP3   OH254502   5.694   0.731   2.408  0.1497 -0.1959  0.6148
11004TIP3    H154503   5.637   0.682   2.349  0.1276  0.3556  0.1703
11004TIP3    H254504   5.718   0.668   2.476 -0.3291 -0.6609  0.3599
11005TIP3   OH254505   0.955   0.626   4.167  0.1277 -0.1701 -0.4379
11005TIP3    H154506   0.917   0.712   4.150 -0.6428 -0.4960 -0.4104
11005TIP3    H254507   0.989   0.598   4.082 -0.6142 -0.3063 -0.7030
11006TIP3   OH254508   3.733   6.368   0.870 -0.2000 -0.3411  0.2574
11006TIP3    H154509   3.702   6.425   0.800 -1.0867 -0.6566  0.3688
11006TIP3    H254510   3.738   6.425   0.947  2.3461  0.3903 -0.3682
11007TIP3   OH254511   3.450   6.468  16.210  0.6695  0.0864  0.3191
11007TIP3    H154512   3.487   6.403  16.150  3.2532  0.7944  0.9902
11007TIP3    H254513   3.491   6.550  16.183 -0.7986  1.0350  0.9062
11008TIP3   OH254514   4.385   1.079   3.078  0.3575 -0.2316  0.1697
11008TIP3    H154515   4.417   1.023   3.008 -0.1387  1.0450 -1.1455
11008TIP3    H254516   4.464   1.114   3.119  0.8100  1.9444 -2.2565
11009TIP3   OH254517   6.227   5.621  13.356  1.0852  0.1247  0.1517
11009TIP3    H154518   6.160   5.593  13.418  0.3554  0.2222 -0.5699
11009TIP3    H254519   6.238   5.545  13.298 -0.1629  0.9275 -1.1976
11010TIP3   OH254520   1.166   4.255   4.751  0.6253  0.4548  0.3244
11010TIP3    H154521   1.141   4.171   4.791 -1.6964 -0.3244 -2.4669
11010TIP3    H254522   1.219   4.230   4.675  0.4841  1.5459 -0.1462
11011TIP3   OH254523   1.386   3.791   3.345 -0.0923 -0.3285 -0.2846
11011TIP3    H154524   1.345   3.721   3.294 -3.0113  1.0967 -0.1410
11011TIP3    H254525   1.331   3.868   3.328  2.9904  2.0388 -0.5472
11012TIP3   OH254526   2.196   2.354   0.375  0.2873 -0.2365 -0.0282
11012TIP3    H154527   2.182   2.282   0.313  0.2473 -0.6744  0.4816
11012TIP3    H254528   2.118   2.353   0.430 -0.3301  1.0461 -0.8403
11013TIP3   OH254529   2.964   0.639  17.156 -0.2933 -0.0070  0.0413
11013TIP3    H154530   2.983   0.658  17.064 -1.4476 -1.0646 -0.4445
11013TIP3    H254531   2.899   0.705  17.180  2.4217  2.4512  1.1688
11014TIP3   OH254532   1.062   5.650  15.536  0.1209 -0.3685  0.3807
11014TIP3    H154533   1.039   5.563  15.504  0.1702 -0.2403 -0.0116
11014TIP3    H254534   0.996   5.671  15.602  0.4192 -0.9257  0.8658
11015TIP3   OH254535   2.379   1.635  15.531  0.2459  0.0942  0.6939
11015TIP3    H154536   2.347   1.612  15.443 -1.4289  2.2923  0.6592
11015TIP3    H254537   2.309   1.609  15.590  0.7995 -0.1379  1.2608
11016TIP3   OH254538   4.491   1.958   6.355  0.3564  0.2059  0.1876
11016TIP3    H154539   4.486   1.971   6.260  1.0548 -0.2316  0.0802
11016TIP3    H254540   4.563   1.895   6.367  0.7808  0.8286  1.0567
11017TIP3   OH254541   5.312   4.235   3.621  0.7635 -0.3102 -0.7147
11017TIP3    H154542   5.380   4.300   3.638  1.0266 -0.1714 -2.1530
11017TIP3    H254543   5.360   4.155   3.601  0.4495 -0.8270  0.5394
11018TIP3   OH254544   2.109   3.309  14.668  0.0406 -1.0898 -0.0686
11018TIP3    H154545   2.047   3.297  14.739 -1.2094  1.5253 -0.6243
11018TIP3    H254546   2.091   3.236  14.608 -1.8001 -0.9660  0.2761
11019TIP3   OH254547   6.742   1.282  13.188 -0.0499 -0.5061 -0.2964
11019TIP3    H154548   6.773   1.199  13.225 -1.4702 -1.2052 -0.5789
11019TIP3    H254549   6.679   1.315  13.251  0.3171  0.2412 -0.3099
11020TIP3   OH254550   5.651   1.063  15.084 -0.1128  0.2625  0.4305
11020TIP3    H154551   5.657   1.125  15.157 -0.9608  1.5572 -0.5506
11020TIP3    H254552   5.626   1.117  15.009 -1.0405 -1.3066 -0.4416
11021TIP3   OH254553   6.036   2.563   2.098 -0.3966 -0.1660  0.1860
11021TIP3    H154554   5.963   2.555   2.159 -0.2109 -0.8278  0.3293
11021TIP3    H254555   6.058   2.473   2.075 -0.6779  0.0716 -1.1234
11022TIP3   OH254556   5.783   6.454   3.794 -0.7969  0.5558 -0.0671
11022TIP3    H154557   5.828   6.503   3.862  1.3193 -0.1825 -0.8562
11022TIP3    H254558   5.718   6.401   3.841 -0.2650  1.0081  1.2135
11023TIP3   OH254559   1.009   0.646   4.494  0.2517  0.0662 -0.0110
11023TIP3    H154560   1.030   0.669   4.584  0.9411  0.8890 -0.3688
11023TIP3    H254561   0.983   0.729   4.454  2.2808  0.2124 -1.1917
11024TIP3   OH254562   0.600   0.579  12.475 -0.4243 -0.1879 -0.0877
11024TIP3    H154563   0.620   0.590  12.568 -0.8907 -0.8551  0.1011
11024TIP3    H254564   0.603   0.484  12.461  1.1887 -0.0252 -1.1111
11025TIP3   OH254565   3.703   6.530  15.477 -0.4137 -0.1518  0.4570
11025TIP3    H154566   3.798   6.543  15.473 -0.1912 -1.7941 -2.1465
11025TIP3    H254567   3.666   6.619  15.473  0.9756  0.5365  2.0511
11026TIP3   OH254568   0.694   5.115   2.261 -0.0484  0.1727  0.4119
11026TIP3    H154569   0.728   5.140   2.176  0.9581  3.1495  1.5614
11026TIP3    H254570   0.604   5.145   2.261 -0.4622 -1.0076 -0.0108
11027TIP3   OH254571   4.555   6.767  11.754  0.4779  0.9456  0.5004
11027TIP3    H154572   4.513   6.773  11.668  0.0072  1.1157  0.7379
11027TIP3    H254573   4.554   6.856  11.788  2.8403  1.3619 -0.3063
11028TIP3   OH254574   6.634   5.572   2.026  0.1581 -0.1767  0.1509
11028TIP3    H154575   6.577   5.592   2.099  0.1833 -0.5238  0.2704
11028TIP3    H254576   6.582   5.591   1.948  0.7783  2.0732  0.2155
11029TIP3   OH254577   4.320   4.741   2.065 -0.1346 -0.3991 -0.4843
11029TIP3    H154578   4.274   4.679   2.008 -0.2502 -0.7238 -0.0374
11029TIP3    H254579   4.347   4.689   2.141 -0.0880  0.0590 -0.1850
11030TIP3   OH254580   5.853   0.244   5.862 -0.5973  0.0642 -0.0859
11030TIP3    H154581   5.806   0.265   5.781 -1.0891  1.0742  0.4541
11030TIP3    H254582   5.796   0.181   5.907 -0.8325  0.3285 -0.0157
11031TIP3   OH254583   3.426   4.093  11.774 -0.4310 -0.2218 -0.0770
11031TIP3    H154584   3.514   4.090  11.811 -0.5902 -0.5101  0.2858
11031TIP3    H254585   3.426   4.027  11.705 -0.0214  0.5734 -0.8557
11032TIP3   OH254586   3.648   4.939  15.209  0.4654 -0.2838 -0.4078
11032TIP3    H154587   3.688   4.854  15.227 -0.0113 -0.2280  1.0429
11032TIP3    H254588   3.599   4.927  15.127  0.0238 -1.5354  0.0314
11033TIP3   OH254589   3.066   1.164  15.273  0.2681 -0.2052 -0.2819
11033TIP3    H154590   3.016   1.170  15.191  0.2043 -0.4011 -0.2579
11033TIP3    H254591   3.148   1.122  15.248  0.7577  0.8477 -0.4660
11034TIP3   OH254592   2.033   0.914  12.298 -0.3106  0.2755 -0.3322
11034TIP3    H154593   1.958   0.855  12.291 -1.0151  0.6445  2.7127
11034TIP3    H254594   2.109   0.857  12.299 -0.5605 -0.1721 -2.3744
11035TIP3   OH254595   6.431   5.675   2.173 -0.3989  0.4331  0.2316
11035TIP3    H154596   6.399   5.587   2.191 -0.2527  0.1793 -0.6921
11035TIP3    H254597   6.352   5.728   2.165 -0.4649  0.5644  1.6001
11036TIP3   OH254598   1.167   5.894  15.105 -0.1805  0.2410 -0.3176
11036TIP3    H154599   1.111   5.830  15.149 -0.4956  1.1854  0.6897
11036TIP3    H254600   1.110   5.969  15.087  0.3328  0.5009 -0.9230
11037TIP3   OH254601   1.767   4.466  13.014  0.0263 -0.1416  0.2505
11037TIP3    H154602   1.855   4.428  13.007  0.2280  0.3089  0.3047
11037TIP3    H254603   1.724   4.441  12.932  0.5534  0.4874 -0.2345
11038TIP3   OH254604   6.796   4.884  16.405 -0.6071  0.0269 -0.0779
11038TIP3    H154605   6.841   4.880  16.489  1.3130  0.9251 -1.0018
11038TIP3    H254606   6.829   4.965  16.364 -2.8896  0.6044 -0.9418
11039TIP3   OH254607   2.999   2.898   0.397  0.4039  0.5247 -0.2694
11039TIP3    H154608   2.964   2.827   0.452 -1.5829  2.6103  1.3570
11039TIP3    H254609   2.994   2.863   0.308 -1.8297 -0.9302  0.3244
11040TIP3   OH254610   6.696   3.257  11.625 -0.5262  0.1787  0.0062
11040TIP3    H154611   6.636   3.288  11.556 -0.0600  0.1679 -0.4134
11040TIP3    H254612   6.758   3.202  11.578 -0.5015 -0.2363  0.5250
11041TIP3   OH254613   6.659   5.977   1.456 -0.1938 -0.4741 -0.5822
11041TIP3    H154614   6.626   5.969   1.366  0.6327 -1.6192 -0.8009
11041TIP3    H254615   6.653   5.889   1.491 -0.4511 -0.0405  0.4879
11042TIP3   OH254616   5.916   5.138  16.372  0.3705 -0.4530 -0.5848
11042TIP3    H154617   6.011   5.146  16.380  0.3789 -1.7282  1.0363
11042TIP3    H254618   5.902   5.112  16.281  1.3893  1.6721 -1.4157
11043TIP3   OH254619   2.661   4.745   4.450 -0.0849  0.3304 -0.6041
11043TIP3    H154620   2.739   4.784   4.490 -0.7227  1.1746 -0.1828
11043TIP3    H254621   2.684   4.652   4.440  1.2312  0.6933 -1.1122
11044TIP3   OH254622   0.796   0.144   2.775 -0.6526 -0.4162  0.6199
11044TIP3    H154623   0.813   0.127   2.868 -0.0225 -0.2094  0.5435
11044TIP3    H254624   0.819   0.236   2.762  3.5142 -1.4039 -0.6540
11045TIP3   OH254625   3.868   1.702   2.821 -0.0320  0.6795  0.2665
11045TIP3    H154626   3.797   1.654   2.864 -0.3214 -0.2289 -1.1238
11045TIP3    H254627   3.946   1.681   2.873 -0.4003 -0.1946  0.4980
11046TIP3   OH254628   5.039   2.530  16.360 -0.1460 -0.5053 -0.0143
11046TIP3    H154629   5.112   2.488  16.315  0.5275 -1.4271  1.8556
11046TIP3    H254630   4.964   2.516  16.302  0.9196 -0.4816 -1.4552
11047TIP3   OH254631   3.360   4.962  13.013 -0.2201 -0.2052 -0.3484
11047TIP3    H154632   3.284   5.021  13.012 -0.1830 -0.1508  0.0171
11047TIP3    H254633   3.351   4.911  12.933 -1.1569 -0.8487  0.1495
11048TIP3   OH254634   1.737   0.530  14.511 -0.1268 -0.0199  0.2042
11048TIP3    H154635   1.655   0.579  14.524 -0.3395 -0.7654  1.8842
11048TIP3    H254636   1.709   0.440  14.494  0.3179  0.0995 -1.3481
11049TIP3   OH254637   3.179   2.556   6.576 -0.4480  1.0435 -0.0902
11049TIP3    H154638   3.108   2.617   6.596 -0.8817 -0.2965  2.9919
11049TIP3    H254639   3.137   2.470   6.574  1.1366 -0.0141  3.5389
11050TIP3   OH254640   2.570   6.566  16.410  0.2389 -0.2632  0.2903
11050TIP3    H154641   2.634   6.499  16.434 -0.8649 -1.7077 -0.5931
11050TIP3    H254642   2.564   6.560  16.314 -0.3658  0.6475  0.2600
11051TIP3   OH254643   2.407   0.268  14.874  0.0205 -0.2994  0.0610
11051TIP3    H154644   2.485   0.214  14.882 -0.5720 -1.3339 -0.8587
11051TIP3    H254645   2.433   0.354  14.909  1.2453 -0.9093  0.7100
11052TIP3   OH254646   4.694   5.774  12.958  0.8646  0.0694 -0.0582
11052TIP3    H154647   4.727   5.761  13.047  0.2804 -2.0200 -0.0947
11052TIP3    H254648   4.742   5.850  12.926  0.9021  1.0413  2.1154
11053TIP3   OH254649   2.670   6.687  17.174 -0.5469  0.0895  0.7584
11053TIP3    H154650   2.595   6.685  17.234 -0.5876 -1.1341  0.6919
11053TIP3    H254651   2.651   6.619  17.110  0.5512 -0.1279  0.6490
11054TIP3   OH254652   2.413   3.791   1.528 -0.8296 -0.4530 -0.1266
11054TIP3    H154653   2.424   3.746   1.612  0.2833  0.0632  0.0216
11054TIP3    H254654   2.485   3.759   1.474 -1.4159 -0.6202 -0.8330
11055TIP3   OH254655   5.435   2.521   2.644  0.2809  0.0497 -0.1103
11055TIP3    H154656   5.361   2.515   2.704  1.1426  1.5251  1.1941
11055TIP3    H254657   5.407   2.582   2.576  0.1791  0.4063  0.2436
11056TIP3   OH254658   0.367   3.290   4.607 -0.1528 -0.3064  0.2740
11056TIP3    H154659   0.327   3.371   4.576 -0.8865 -1.1916 -1.2238
11056TIP3    H254660   0.294   3.240   4.645  0.5811  0.3922  2.8248
11057TIP3   OH254661   1.273   4.290  15.040  0.1668  0.0438  0.3626
11057TIP3    H154662   1.182   4.266  15.022  0.1271  1.1346 -1.1070
11057TIP3    H254663   1.320   4.265  14.961  1.1574 -0.5199  1.1148
11058TIP3   OH254664   3.779   6.788   4.504  0.6535  0.0934 -0.3819
11058TIP3    H154665   3.804   6.713   4.449 -2.8012 -0.0603 -2.0151
11058TIP3    H254666   3.769   6.751   4.591  2.1605 -0.5862 -0.4634
11059TIP3   OH254667   5.083   2.041  16.642 -0.1013  0.1724 -0.1697
11059TIP3    H154668   5.045   1.958  16.612 -1.1507  0.2623  0.8318
11059TIP3    H254669   5.177   2.032  16.624 -0.3712 -0.7018 -1.2560
11060TIP3   OH254670   2.996   6.657  16.128 -0.2998 -0.3971 -0.3254
11060TIP3    H154671   2.994   6.613  16.043 -2.6722 -1.7020  0.2991
11060TIP3    H254672   2.952   6.596  16.188  1.1441  0.5584  1.8193
11061TIP3   OH254673   6.821   0.059  15.857 -0.2275 -0.0225  0.2551
11061TIP3    H154674   6.804  -0.026  15.817 -1.6326  0.1297  0.4732
11061TIP3    H254675   6.825   0.041  15.951  0.4846  0.0006  0.2284
11062TIP3   OH254676   2.207   2.130   2.938  0.1787  0.3839 -0.2048
11062TIP3    H154677   2.278   2.079   2.898  0.6129  0.0671  0.9432
11062TIP3    H254678   2.202   2.098   3.028 -0.9539  0.9096 -0.0697
11063TIP3   OH254679   6.744   0.800  11.873  0.3816  0.5924 -0.4485
11063TIP3    H154680   6.654   0.811  11.901  1.2324  1.7974  2.1474
11063TIP3    H254681   6.760   0.706  11.879 -1.1065  0.1557 -2.5358
11064TIP3   OH254682   3.748   2.743  11.501  0.4633  0.1221 -0.3037
11064TIP3    H154683   3.747   2.831  11.539 -0.5252 -0.1065  0.2400
11064TIP3    H254684   3.766   2.685  11.575 -0.5388 -0.2579 -0.3489
11065TIP3   OH254685   3.533   4.550  10.775  0.7513 -0.5362  0.2275
11065TIP3    H154686   3.466   4.513  10.718 -0.8278  2.3753 -0.0174
11065TIP3    H254687   3.489   4.566  10.858  1.1882  1.0968  0.1833
11066TIP3   OH254688   1.511   1.876   5.638  0.2926  0.0418 -0.2371
11066TIP3    H154689   1.453   1.944   5.672 -0.7767 -0.4242 -1.0951
11066TIP3    H254690   1.499   1.802   5.698  1.4762  0.5877  0.7121
11067TIP3   OH254691   0.789   5.048   6.807  0.4597 -0.0188 -0.3726
11067TIP3    H154692   0.765   5.134   6.840 -0.7757  0.7621 -3.0083
11067TIP3    H254693   0.848   5.066   6.734  1.3253 -1.5158 -0.0928
11068TIP3   OH254694   5.956   6.586   2.838  0.6950 -0.0218  0.2483
11068TIP3    H154695   5.922   6.576   2.928 -0.8987  0.6856 -0.2422
11068TIP3    H254696   5.917   6.513   2.790 -0.0657  0.7293 -0.2998
11069TIP3   OH254697   3.725   6.828  15.559  0.1793  0.0292  0.0983
11069TIP3    H154698   3.782   6.853  15.632 -0.6934 -0.9516  1.1526
11069TIP3    H254699   3.636   6.844  15.591 -0.2069  0.2627 -1.0309
11070TIP3   OH254700   6.077   1.964   5.114  0.1458  0.2382 -0.2922
11070TIP3    H154701   6.100   1.938   5.025  1.5634 -0.9510  0.3916
11070TIP3    H254702   6.144   1.924   5.170 -0.4080  1.3804  1.2777
11071TIP3   OH254703   4.340   3.371   2.878  0.2307  0.5350 -0.4537
11071TIP3    H154704   4.432   3.382   2.898  0.0648  0.2858  0.4751
11071TIP3    H254705   4.300   3.456   2.896  0.1758  0.4721 -0.2811
11072TIP3   OH254706   3.296   4.165  16.173 -0.2102 -0.7996  0.1916
11072TIP3    H154707   3.328   4.252  16.150 -0.4479 -1.1564 -1.6304
11072TIP3    H254708   3.373   4.109  16.168 -0.3930 -1.0012 -0.4801
11073TIP3   OH254709   2.545   2.242  12.036  0.0641 -0.0262  0.3508
11073TIP3    H154710   2.513   2.201  12.116  1.5798 -1.2193  0.4051
11073TIP3    H254711   2.474   2.232  11.972 -0.0622 -1.6947  0.7228
11074TIP3   OH254712   2.677   4.680   2.791 -1.0228 -0.3124  0.5476
11074TIP3    H154713   2.676   4.589   2.820 -2.8372 -0.9914 -1.4048
11074TIP3    H254714   2.671   4.731   2.871 -0.1507 -1.8916  1.6681
11075TIP3   OH254715   5.881   4.010  15.746  0.0468 -0.0734 -0.0209
11075TIP3    H154716   5.842   3.967  15.670 -0.9174  0.3762  0.1944
11075TIP3    H254717   5.832   3.974  15.821  0.9018 -0.4253  0.3836
11076TIP3   OH254718   3.604   0.369   5.178  0.2428  0.0830 -0.0606
11076TIP3    H154719   3.617   0.438   5.113  0.0808 -1.3084 -1.6719
11076TIP3    H254720   3.520   0.329   5.153  0.7178 -1.2018  0.3000
11077TIP3   OH254721   6.265   6.723  13.419  0.1809  0.7167 -0.3579
11077TIP3    H154722   6.329   6.663  13.381  0.1471  0.7315 -0.4375
11077TIP3    H254723   6.193   6.724  13.355  1.0118  2.3605 -1.3292
11078TIP3   OH254724   6.722   6.028  13.871  0.3451 -0.7683  0.6601
11078TIP3    H154725   6.790   5.964  13.850  0.6829 -0.3043  0.3045
11078TIP3    H254726   6.645   5.999  13.822  0.3456 -1.1805  0.9015
11079TIP3   OH254727   0.840   1.362   4.493 -0.5218 -0.0969  0.2489
11079TIP3    H154728   0.747   1.363   4.471 -0.6546 -2.0573  0.5332
11079TIP3    H254729   0.843   1.385   4.585 -0.5823  1.3280 -0.0891
11080TIP3   OH254730   3.450   2.359   0.287 -0.1617 -0.2074 -0.1206
11080TIP3    H154731   3.487   2.441   0.318 -0.0012 -0.2661 -0.1535
11080TIP3    H254732   3.363   2.382   0.255 -0.5511 -0.2400  0.8867
11081TIP3   OH254733   3.105   0.520   1.240 -0.6141 -0.5446  0.3621
11081TIP3    H154734   3.024   0.543   1.195  0.5197  1.2674 -0.8770
11081TIP3    H254735   3.125   0.431   1.210 -1.5430 -0.5786 -0.1807
11082TIP3   OH254736   3.873   3.680   4.811  0.0214 -0.2779 -0.0688
11082TIP3    H154737   3.931   3.637   4.748  1.1883  1.1073  0.0073
11082TIP3    H254738   3.830   3.608   4.857 -0.7005 -1.3256 -2.2656
11083TIP3   OH254739   1.950   4.926  10.268  0.1099  0.4053 -0.3344
11083TIP3    H154740   2.012   4.888  10.329  0.0081  0.7296 -0.0238
11083TIP3    H254741   1.866   4.885  10.289 -0.1077  1.1724  0.3573
11084TIP3   OH254742   4.867   4.575   0.787  0.3265  0.2525  0.0543
11084TIP3    H154743   4.911   4.501   0.827 -0.5903  0.4574  1.5180
11084TIP3    H254744   4.775   4.566   0.815  0.4756  2.7862  1.6600
11085TIP3   OH254745   3.037   0.441   2.319  0.0076 -0.0504  0.4975
11085TIP3    H154746   3.002   0.422   2.406  0.5548 -0.2277  0.6806
11085TIP3    H254747   3.114   0.385   2.311 -0.0481 -0.0472 -0.1079
11086TIP3   OH254748   1.176   0.198  16.740  0.3438 -0.4265  0.6170
11086TIP3    H154749   1.206   0.275  16.691 -0.9916  0.0065  0.4450
11086TIP3    H254750   1.221   0.203  16.824  2.4453 -1.0079 -0.3962
11087TIP3   OH254751   2.943   0.293   4.949  0.3091  0.6692 -0.1046
11087TIP3    H154752   2.880   0.234   4.908 -1.7598  0.8521  2.5846
11087TIP3    H254753   2.925   0.378   4.909  0.9218  0.2130 -1.4422
11088TIP3   OH254754   4.110   6.667   1.485 -0.5405  0.1847  0.3261
11088TIP3    H154755   4.085   6.685   1.395  0.1656  0.1474  0.1180
11088TIP3    H254756   4.035   6.620   1.522 -1.5314  1.6265  0.2463
11089TIP3   OH254757   2.943   1.715   4.473 -0.7368  0.5217 -0.0348
11089TIP3    H154758   2.989   1.729   4.555  0.0615  2.8752 -0.8094
11089TIP3    H254759   2.857   1.754   4.486 -1.8612 -1.9927  0.6960
11090TIP3   OH254760   0.773   4.947  14.299 -0.1179 -0.2976  0.2501
11090TIP3    H154761   0.855   4.918  14.338  0.1755  0.6740  0.3848
11090TIP3    H254762   0.711   4.876  14.317  0.9488 -1.5363 -0.7994
11091TIP3   OH254763   5.131   4.489   0.119 -0.6282 -0.5272 -0.0171
11091TIP3    H154764   5.132   4.461   0.027 -2.2261  0.3864 -0.3440
11091TIP3    H254765   5.149   4.583   0.115  0.3000 -0.6626  0.7068
11092TIP3   OH254766   4.278   0.023  13.186  0.4510  0.0706  0.1289
11092TIP3    H154767   4.237  -0.049  13.235  0.7241 -0.0847  0.1359
11092TIP3    H254768   4.206   0.081  13.163 -0.2810 -1.7752 -2.6267
11093TIP3   OH254769   5.385   2.801   1.834 -1.1112 -0.0587 -0.2370
11093TIP3    H154770   5.322   2.870   1.812 -0.3142  0.2118 -1.8102
11093TIP3    H254771   5.461   2.819   1.779  0.7666  0.1768  2.2690
11094TIP3   OH254772   1.183   1.784   5.609 -0.1758 -0.1489 -0.6262
11094TIP3    H154773   1.257   1.734   5.574 -0.9444 -0.6733 -1.5415
11094TIP3    H254774   1.158   1.738   5.689  0.9573  0.4720  0.1023
11095TIP3   OH254775   3.475   6.089  13.752 -0.5438 -1.1552  0.1968
11095TIP3    H154776   3.566   6.113  13.769 -1.6434  2.3405  2.2851
11095TIP3    H254777   3.443   6.056  13.836 -1.7377 -0.1536  0.1669
11096TIP3   OH254778   2.685   0.218   6.003  1.1735 -0.5502  0.1610
11096TIP3    H154779   2.746   0.181   6.067  1.7524  2.4831  1.5463
11096TIP3    H254780   2.608   0.241   6.055  1.4112  1.3893 -0.2664
11097TIP3   OH254781   2.192   4.428  14.617  0.2763  0.5936  0.1763
11097TIP3    H154782   2.118   4.438  14.557  1.0442 -2.5135 -1.4732
11097TIP3    H254783   2.266   4.465  14.568  0.9118 -1.9878 -0.9536
11098TIP3   OH254784   3.588   6.142   2.404  0.0655  0.0756  0.1250
11098TIP3    H154785   3.636   6.071   2.360  1.7073  0.7119  0.8170
11098TIP3    H254786   3.651   6.214   2.410 -0.5045  0.4732  2.3246
11099TIP3   OH254787   6.468   2.099   1.009  0.0109  0.0614 -0.3209
11099TIP3    H154788   6.444   2.065   1.095  0.5696  1.5047  0.4464
11099TIP3    H254789   6.385   2.109   0.963 -0.4636  0.8500  0.6674
11100TIP3   OH254790   4.519   3.754  16.922 -0.2753 -0.0340  0.0390
11100TIP3    H154791   4.559   3.821  16.866  0.3618 -0.1726  0.3209
11100TIP3    H254792   4.574   3.752  17.000 -0.4950 -0.6454  0.1805
11101TIP3   OH254793   1.691   0.591  15.446  0.2574  0.0654 -0.3193
11101TIP3    H154794   1.641   0.513  15.471  0.1738 -0.4573 -1.9999
11101TIP3    H254795   1.634   0.665  15.466  0.0466 -0.3293  0.5975
11102TIP3   OH254796   4.653   2.585   4.817  0.1133  0.2379 -0.7055
11102TIP3    H154797   4.593   2.655   4.792 -0.5851 -0.5560 -1.2944
11102TIP3    H254798   4.611   2.544   4.893  0.8777  0.8990  0.0965
11103TIP3   OH254799   0.790   2.839  17.127 -0.0783 -0.1615  0.3739
11103TIP3    H154800   0.747   2.767  17.173 -0.5401  0.6320  1.2370
11103TIP3    H254801   0.857   2.797  17.073 -1.0937 -1.3256 -0.0409
11104TIP3   OH254802   1.094   5.782   0.095  0.0238  0.0951  0.6307
11104TIP3    H154803   1.046   5.724   0.153 -1.2180  0.4558  0.0080
11104TIP3    H254804   1.048   5.775   0.011 -0.5651  2.4089  0.6930
11105TIP3   OH254805   3.114   1.006   0.394  0.1400  0.4454  0.3295
11105TIP3    H154806   3.073   1.030   0.477 -0.4129 -1.5719  0.6826
11105TIP3    H254807   3.208   1.007   0.413  0.1110  1.5895  0.4985
11106TIP3   OH254808   6.150   2.104   2.149  0.1141  0.0414  0.4114
11106TIP3    H154809   6.242   2.077   2.147  0.1550  0.0824  1.3118
11106TIP3    H254810   6.124   2.107   2.057  0.6524 -1.1947  0.1890
11107TIP3   OH254811   0.328   5.015  14.697  0.7560  0.7127  0.0213
11107TIP3    H154812   0.324   4.926  14.732  0.6390  1.0005  0.7553
11107TIP3    H254813   0.390   5.009  14.624  1.5670  0.2455  0.7213
11108TIP3   OH254814   0.609   1.270   3.936  0.0596  0.4504  1.0937
11108TIP3    H154815   0.632   1.298   3.847 -0.8280 -0.8061  0.4315
11108TIP3    H254816   0.603   1.351   3.986 -0.6001  1.3007 -0.2990
11109TIP3   OH254817   0.033   1.814   1.389 -0.0768 -0.0239  0.3401
11109TIP3    H154818  -0.007   1.862   1.462  0.6093  0.0570  0.6738
11109TIP3    H254819  -0.039   1.799   1.328 -1.5056 -3.0352  2.4952
11110TIP3   OH254820   0.130   3.263   0.992 -0.0965  0.1213  0.2831
11110TIP3    H154821   0.081   3.203   0.935 -0.2321  1.6513 -1.3068
11110TIP3    H254822   0.214   3.275   0.948  0.7954 -0.5665  1.7272
11111TIP3   OH254823   3.469   3.563  11.310  0.1337  0.1609  0.0615
11111TIP3    H154824   3.406   3.634  11.307  0.4729  0.4630 -0.0397
11111TIP3    H254825   3.419   3.486  11.337 -0.8106 -0.1888 -2.4615
11112TIP3   OH254826   2.329   5.479  15.117  0.4889  0.1425 -0.8368
11112TIP3    H154827   2.324   5.425  15.038  0.3993 -0.7981 -0.2041
11112TIP3    H254828   2.245   5.464  15.161  0.6288  0.4805 -0.4526
11113TIP3   OH254829   0.034   3.868   1.132  0.2145  0.2666  0.6737
11113TIP3    H154830   0.032   3.886   1.038 -1.8055  1.1428  0.8434
11113TIP3    H254831   0.111   3.812   1.144 -0.2023 -0.9143 -1.6716
11114TIP3   OH254832   1.373   4.978   3.804 -0.7015  0.0170 -0.1150
11114TIP3    H154833   1.442   4.927   3.762  0.7948  1.6885  0.1753
11114TIP3    H254834   1.303   4.916   3.819 -0.3316 -1.2203 -2.8053
11115TIP3   OH254835   0.557   4.112   2.007 -0.0479  0.2688  0.5048
11115TIP3    H154836   0.495   4.122   1.935  0.0427  1.1392  0.5319
11115TIP3    H254837   0.606   4.032   1.987 -2.0065 -1.1708  1.1199
11116TIP3   OH254838   5.286   3.047   2.165 -0.2326 -0.0082 -0.5513
11116TIP3    H154839   5.268   3.039   2.258  0.0111  1.4634 -0.3487
11116TIP3    H254840   5.302   2.957   2.135  1.7395 -0.3421  1.2435
11117TIP3   OH254841   2.014   6.391   2.786 -0.1828 -0.3452  0.1308
11117TIP3    H154842   1.981   6.481   2.786 -0.4697 -0.4443  0.8343
11117TIP3    H254843   2.078   6.389   2.857  1.1940 -0.2172 -1.0603
11118TIP3   OH254844   1.984   0.789  13.423 -0.0180  0.5622 -0.1133
11118TIP3    H154845   2.042   0.852  13.379 -0.7382  0.6919 -0.9028
11118TIP3    H254846   1.915   0.772  13.360  0.6984 -1.8412 -0.3364
11119TIP3   OH254847   2.316   2.154   1.061  0.2859 -0.2581 -0.2155
11119TIP3    H154848   2.390   2.214   1.053  0.5010 -0.3913  0.6542
11119TIP3    H254849   2.298   2.151   1.155  0.2755 -1.5496 -0.2513
11120TIP3   OH254850   4.843   6.025  17.215  0.1001  0.1505  0.0366
11120TIP3    H154851   4.924   5.973  17.216 -0.6046 -0.9751  0.1031
11120TIP3    H254852   4.858   6.091  17.147  0.4491 -1.0668 -1.1091
11121TIP3   OH254853   3.900   6.662  13.176  0.1431 -0.2270  0.9707
11121TIP3    H154854   3.946   6.666  13.092 -1.2890 -2.2217  0.0127
11121TIP3    H254855   3.816   6.704  13.159  0.0177 -0.2464  1.5343
11122TIP3   OH254856   6.306   4.003  13.886  0.4965  0.3357  0.3503
11122TIP3    H154857   6.218   4.001  13.848  0.3657  0.3224  0.6573
11122TIP3    H254858   6.315   3.918  13.929  0.2018  0.8186  1.3739
11123TIP3   OH254859   3.020   5.591  11.430  0.0507 -0.1525  0.3877
11123TIP3    H154860   2.957   5.647  11.384 -1.2008 -1.4179  0.5116
11123TIP3    H254861   3.004   5.608  11.523 -1.2531 -1.6637  0.4610
11124TIP3   OH254862   4.952   3.264  13.424 -0.2475 -0.5591  0.2276
11124TIP3    H154863   4.905   3.188  13.458  2.0845 -1.1012  2.6076
11124TIP3    H254864   4.973   3.241  13.333 -0.9675 -2.0615  0.4078
11125TIP3   OH254865   1.679   1.497   3.629 -0.5403 -0.4392 -0.3252
11125TIP3    H154866   1.605   1.555   3.610 -0.6694 -0.4893  0.0123
11125TIP3    H254867   1.754   1.538   3.587 -0.5068  0.3004  0.4332
11126TIP3   OH254868   6.105   6.485   0.330 -0.2590 -1.0303 -0.2378
11126TIP3    H154869   6.079   6.465   0.240  1.2236  2.2506 -1.5423
11126TIP3    H254870   6.023   6.512   0.373 -0.7350 -1.0723 -1.0988
11127TIP3   OH254871   6.497   1.747   4.687 -0.1225  0.0721  0.0616
11127TIP3    H154872   6.430   1.806   4.650 -2.2216 -0.9705  1.9480
11127TIP3    H254873   6.471   1.660   4.658  0.6467 -0.3222  0.5334
11128TIP3   OH254874   4.177   6.262   4.226  0.3252  0.1315 -0.1223
11128TIP3    H154875   4.126   6.200   4.175 -0.9534  1.4945 -0.5821
11128TIP3    H254876   4.166   6.234   4.317 -3.7195  1.9194  0.1441
11129TIP3   OH254877   0.561   5.755   1.539 -0.1536  0.2556  0.3197
11129TIP3    H154878   0.640   5.805   1.521  0.5616 -0.7561  0.5718
11129TIP3    H254879   0.490   5.819   1.531  0.5464  0.8987 -1.2451
11130TIP3   OH254880   4.522   1.085  16.552 -0.1732 -0.7575 -0.2926
11130TIP3    H154881   4.483   1.132  16.478  0.6707  0.4236 -0.0182
11130TIP3    H254882   4.601   1.135  16.573  0.3653 -1.9001  0.4945
11131TIP3   OH254883   4.667   1.812   2.922 -0.0452  0.6467  0.1262
11131TIP3    H154884   4.639   1.895   2.884 -1.4703 -0.8094 -2.2440
11131TIP3    H254885   4.728   1.776   2.858  0.0022 -0.4564  0.7639
11132TIP3   OH254886   1.652   1.905   0.304  0.4772  0.1673 -0.0163
11132TIP3    H154887   1.650   1.832   0.242  4.4423  0.4560 -0.7504
11132TIP3    H254888   1.605   1.975   0.259 -0.2100 -0.8322 -0.9131
11133TIP3   OH254889   1.685   4.945  17.267 -0.1815  0.3802 -0.1128
11133TIP3    H154890   1.608   4.955  17.211 -1.2097  0.0378  1.1816
11133TIP3    H254891   1.651   4.905  17.347  1.4932 -0.5343  0.1803
11134TIP3   OH254892   3.338   3.663   0.474 -0.7093  0.5864  0.6566
11134TIP3    H154893   3.416   3.715   0.491  0.4993 -0.4419 -1.3285
11134TIP3    H254894   3.316   3.625   0.558  1.3894  0.3210  1.1485
11135TIP3   OH254895   1.020   1.981  11.152 -0.1946  0.1339 -0.1401
11135TIP3    H154896   1.054   1.892  11.139 -0.3999  0.0863 -0.3615
11135TIP3    H254897   0.925   1.972  11.142 -0.0880  0.7015 -2.0757
11136TIP3   OH254898   3.262   1.671   4.824 -0.0212  0.2988  0.0818
11136TIP3    H154899   3.217   1.730   4.763 -1.4490  0.2797  1.0593
11136TIP3    H254900   3.261   1.586   4.780  1.2231  0.7683 -0.9321
11137TIP3   OH254901   2.003   3.520  17.162 -0.3539  0.1610  0.0190
11137TIP3    H154902   2.061   3.531  17.237 -1.5223 -1.0334  1.1356
11137TIP3    H254903   1.997   3.426  17.150 -0.4623  0.3234 -1.3836
11138TIP3   OH254904   4.214   2.182   4.452  0.4159  0.1449 -0.4884
11138TIP3    H154905   4.299   2.192   4.495  0.1166 -0.4895  0.2790
11138TIP3    H254906   4.151   2.175   4.524 -0.2992  0.6427 -1.0467
11139TIP3   OH254907   3.360   6.619   1.078 -0.2372 -0.5370 -0.0649
11139TIP3    H154908   3.385   6.557   1.146 -0.6444  0.2144  0.7791
11139TIP3    H254909   3.442   6.661   1.053  0.1563 -1.8603 -1.1242
11140TIP3   OH254910   6.411   4.635   4.479  0.1669  0.1728 -0.3574
11140TIP3    H154911   6.364   4.642   4.396 -1.1081 -1.7491  0.1374
11140TIP3    H254912   6.499   4.606   4.456 -0.3803 -1.0172 -1.0089
11141TIP3   OH254913   5.089   3.035   1.312  0.4078 -0.3796 -0.1575
11141TIP3    H154914   5.107   3.001   1.225 -0.4728 -1.2498 -0.0289
11141TIP3    H254915   5.021   2.977   1.346 -0.8969  1.3149  0.2392
11142TIP3   OH254916   3.870   0.759   3.565  0.5394 -0.2652 -0.3354
11142TIP3    H154917   3.798   0.774   3.503 -0.5710  1.8051  1.3451
11142TIP3    H254918   3.869   0.835   3.623  5.0193  0.6729 -1.0380
11143TIP3   OH254919   4.080   3.401   1.958  0.1403 -0.1789  0.1929
11143TIP3    H154920   4.102   3.491   1.984  3.8581 -0.6111 -0.9830
11143TIP3    H254921   4.118   3.391   1.871 -0.4576 -2.8483  0.1564
11144TIP3   OH254922   2.766   6.758   4.770 -0.1542  0.7522  0.1138
11144TIP3    H154923   2.808   6.674   4.791 -0.6628  0.7322  1.1149
11144TIP3    H254924   2.694   6.734   4.711 -0.9424  0.3379  1.2198
11145TIP3   OH254925   1.202   5.860   6.294 -0.5358  0.0442  0.3948
11145TIP3    H154926   1.160   5.783   6.255 -0.2943  0.1509 -0.0818
11145TIP3    H254927   1.288   5.864   6.252 -0.0100 -0.2042  1.3999
11146TIP3   OH254928   5.427   5.447  13.656  0.4153 -0.0671 -0.3762
11146TIP3    H154929   5.336   5.430  13.677  0.3016  0.3364 -0.5292
11146TIP3    H254930   5.477   5.405  13.727  0.0631  0.7690  0.3957
11147TIP3   OH254931   2.755   5.903  11.862 -0.1502  0.2524  0.0141
11147TIP3    H154932   2.804   5.882  11.782  1.3677  1.2242  0.6560
11147TIP3    H254933   2.663   5.906  11.833  0.1041 -1.7177 -1.1913
11148TIP3   OH254934   4.918   3.857  11.491  0.2924 -0.1544 -0.1690
11148TIP3    H154935   4.990   3.820  11.440  2.3669  1.6588  1.3000
11148TIP3    H254936   4.953   3.866  11.580 -1.6070  1.2056  0.4986
11149TIP3   OH254937   0.993   6.755   3.587  0.1068 -0.5310 -0.2679
11149TIP3    H154938   0.935   6.690   3.547 -0.9377  1.6147 -2.4231
11149TIP3    H254939   0.934   6.815   3.632  0.8226  0.4469 -0.6091
11150TIP3   OH254940   2.441   4.681   5.537  0.1761  0.0719  0.7261
11150TIP3    H154941   2.390   4.722   5.466  2.2832  0.2395 -0.8101
11150TIP3    H254942   2.388   4.607   5.565  0.2599 -1.4987 -2.7772
11151TIP3   OH254943   1.821   2.659  14.359  0.1431 -0.5873  0.3365
11151TIP3    H154944   1.865   2.743  14.364 -0.6837 -0.1578  0.5382
11151TIP3    H254945   1.731   2.677  14.386  0.1171 -1.6596  1.0174
11152TIP3   OH254946   2.821   1.424  11.781 -0.1973 -0.0920  0.1643
11152TIP3    H154947   2.901   1.416  11.833  0.6558  0.9159 -0.9237
11152TIP3    H254948   2.823   1.514  11.748  0.2112 -1.1170 -2.9468
11153TIP3   OH254949   3.907   2.264  13.178 -0.1173  0.0390  0.4187
11153TIP3    H154950   3.985   2.300  13.220  0.8346 -1.5855  0.1057
11153TIP3    H254951   3.936   2.183  13.137 -1.9173 -0.4931  0.0887
11154TIP3   OH254952   3.059   2.626  11.188 -0.1601 -0.1858 -0.5845
11154TIP3    H154953   3.036   2.670  11.270  1.2899 -0.9717  0.2720
11154TIP3    H254954   2.976   2.588  11.158 -0.6562 -0.1455  0.6700
11155TIP3   OH254955   4.613   2.785   3.061 -0.4770  0.4033 -0.0909
11155TIP3    H154956   4.572   2.819   3.141 -0.9676  1.3984 -0.7424
11155TIP3    H254957   4.547   2.798   2.993 -0.1977 -0.7578 -0.6035
11156TIP3   OH254958   6.128   4.998   5.679  0.4097 -0.4012 -0.3074
11156TIP3    H154959   6.183   5.060   5.633  0.2990 -0.2993 -0.3034
11156TIP3    H254960   6.089   5.048   5.751  0.4428 -0.5139 -0.2101
11157TIP3   OH254961   5.279   1.741  13.498 -0.3244  0.6197 -0.4978
11157TIP3    H154962   5.218   1.791  13.551 -1.2401  0.6131 -1.5025
11157TIP3    H254963   5.338   1.807  13.461 -0.6080  0.7956 -0.6425
11158TIP3   OH254964   3.272   0.184   4.304  0.5218  0.3171  0.1213
11158TIP3    H154965   3.282   0.278   4.292  0.3039  0.3815  0.4662
11158TIP3    H254966   3.277   0.170   4.398  0.8402 -0.0500  0.0536
11159TIP3   OH254967   2.597   4.260   4.431  0.1793  0.0761  0.9679
11159TIP3    H154968   2.516   4.209   4.423 -1.8652  3.2241 -0.2282
11159TIP3    H254969   2.597   4.290   4.521 -1.0115  1.5270  0.5151
11160TIP3   OH254970   1.537   2.139  15.958  0.4483 -0.3957 -0.0747
11160TIP3    H154971   1.499   2.214  15.911 -0.7908 -0.5870  0.5820
11160TIP3    H254972   1.605   2.177  16.012  2.4444 -0.2550 -2.5122
11161TIP3   OH254973   6.779   2.985  13.861 -0.4116 -0.5115 -0.2124
11161TIP3    H154974   6.847   3.035  13.815  0.6614 -0.4583  1.3356
11161TIP3    H254975   6.799   2.894  13.841 -0.9758 -0.4318 -1.1850
11162TIP3   OH254976   1.798   1.320   0.902 -0.1081  0.3933 -0.4587
11162TIP3    H154977   1.761   1.383   0.841  1.6265  0.0087 -1.9836
11162TIP3    H254978   1.726   1.258   0.919 -1.2367  1.6575 -0.4468
11163TIP3   OH254979   1.778   0.965   2.018  0.1973 -0.5267  0.2043
11163TIP3    H154980   1.873   0.953   2.025  0.1769 -0.5053  0.5321
11163TIP3    H254981   1.766   1.014   1.937  0.3687 -1.7467 -0.6005
11164TIP3   OH254982   2.200   5.572   2.560 -0.4289 -0.4805 -0.3262
11164TIP3    H154983   2.159   5.517   2.493 -1.1230  1.7491 -1.8283
11164TIP3    H254984   2.133   5.637   2.582  0.8010  0.5876  0.3984
11165TIP3   OH254985   6.678   3.902   0.334 -0.6704  0.1994 -0.4027
11165TIP3    H154986   6.698   3.992   0.306  0.2004  0.1780  0.0916
11165TIP3    H254987   6.752   3.851   0.302  0.1231  0.0962  1.4695
11166TIP3   OH254988   3.438   6.445   2.637 -0.1164  0.4555 -0.0140
11166TIP3    H154989   3.370   6.492   2.684  0.6545  1.4568  0.1558
11166TIP3    H254990   3.512   6.442   2.699  0.4002  0.4819 -0.6154
11167TIP3   OH254991   2.254   4.098   5.318  0.0591  0.3978  0.3607
11167TIP3    H154992   2.199   4.176   5.316  1.4516  1.4054  0.3713
11167TIP3    H254993   2.240   4.061   5.406 -0.6456  0.5946  0.3355
11168TIP3   OH254994   0.888   3.373  13.023 -0.0146  0.6018 -0.2368
11168TIP3    H154995   0.867   3.368  12.930  2.2207  0.7623 -0.8234
11168TIP3    H254996   0.846   3.454  13.053  0.4215  1.3153 -1.4813
11169TIP3   OH254997   0.792   6.078   4.885 -0.0398 -0.3510  0.1044
11169TIP3    H154998   0.867   6.035   4.927 -0.0440  0.0389  0.5178
11169TIP3    H254999   0.822   6.096   4.796 -0.7008 -2.9706 -0.7466
11170TIP3   OH255000   5.552   4.857  12.703 -0.2420  0.0788 -0.1801
11170TIP3    H155001   5.547   4.814  12.618  0.9146  1.4267 -0.9782
11170TIP3    H255002   5.544   4.950  12.683 -3.2709  0.3215  1.5302
11171TIP3   OH255003   6.580   1.658   0.156 -0.6607 -0.0248 -0.8575
11171TIP3    H155004   6.556   1.567   0.172  2.6894 -1.0648 -0.9481
11171TIP3    H255005   6.502   1.698   0.119 -3.4198 -1.8592  2.4245
11172TIP3   OH255006   1.738   1.064   1.756 -0.4886  0.2531  0.1190
11172TIP3    H155007   1.755   1.100   1.668  0.3683  0.5756  0.4000
11172TIP3    H255008   1.744   0.969   1.744  2.7325  0.2983  0.3433
11173TIP3   OH255009   4.964   5.543  13.416 -0.4845 -0.0067 -0.0718
11173TIP3    H155010   4.963   5.454  13.451 -1.6282 -0.3648 -0.9820
11173TIP3    H255011   4.977   5.531  13.322  3.1653  0.9533  0.1487
11174TIP3   OH255012   2.742   6.723   3.237  0.4362 -1.0762  0.3126
11174TIP3    H155013   2.716   6.806   3.276  0.1764 -0.5603 -0.9306
11174TIP3    H255014   2.754   6.664   3.312  2.0761  0.4622  1.3502
11175TIP3   OH255015   3.250   1.972   0.806 -0.0813  0.3952  0.2027
11175TIP3    H155016   3.329   1.939   0.850  0.6673  1.4674 -0.2907
11175TIP3    H255017   3.271   2.063   0.784 -0.1237 -0.2516 -3.0066
11176TIP3   OH255018   1.216   6.444  11.961 -0.1649 -0.2884  0.1096
11176TIP3    H155019   1.305   6.462  11.931 -0.5256 -2.3645 -2.5096
11176TIP3    H255020   1.222   6.448  12.057  2.5043  0.5509 -0.0169
11177TIP3   OH255021   1.496   1.452  12.509 -0.2190 -0.2356 -0.5651
11177TIP3    H155022   1.444   1.516  12.558 -1.1173 -0.1703 -1.5583
11177TIP3    H255023   1.439   1.426  12.437  0.7737 -0.9184 -1.1229
11178TIP3   OH255024   6.409   0.751   1.581  0.2698 -0.3550 -0.2577
11178TIP3    H155025   6.313   0.745   1.586  0.2996 -1.3440 -0.7083
11178TIP3    H255026   6.425   0.838   1.544 -0.3762  0.6587  1.6319
11179TIP3   OH255027   4.863   1.344  17.206  0.5003 -0.2945 -0.1987
11179TIP3    H155028   4.869   1.335  17.111  1.5237 -3.0519  0.0287
11179TIP3    H255029   4.908   1.426  17.224  1.2346 -0.2256 -2.0406
11180TIP3   OH255030   6.342   2.850  14.512  0.1821  0.0134 -0.4413
11180TIP3    H155031   6.249   2.873  14.519 -0.4070 -1.9396 -1.1371
11180TIP3    H255032   6.362   2.805  14.594  0.8839  1.4436  0.2185
11181TIP3   OH255033   4.146   6.227   3.133  0.2506  0.2689 -0.1709
11181TIP3    H155034   4.120   6.309   3.174  0.0336  0.5638 -0.8788
11181TIP3    H255035   4.239   6.238   3.114  0.2031  0.3933 -0.3423
11182TIP3   OH255036   5.868   6.133  16.055  0.0240  0.4444 -0.3941
11182TIP3    H155037   5.834   6.092  15.976  0.1496 -0.2916 -0.0787
11182TIP3    H255038   5.963   6.124  16.048  0.0573  0.7853 -0.3781
11183TIP3   OH255039   4.990   2.511   3.562 -0.3983 -0.1114 -0.1136
11183TIP3    H155040   4.991   2.488   3.654 -0.9810 -2.4198 -0.6233
11183TIP3    H255041   4.940   2.593   3.557 -0.5048 -0.0540  1.5691
11184TIP3   OH255042   0.232   4.198   4.700 -0.0141 -0.3615  0.4651
11184TIP3    H155043   0.205   4.279   4.657  1.5468 -1.1628 -2.2884
11184TIP3    H255044   0.286   4.227   4.773 -0.3426  1.0666  0.1869
11185TIP3   OH255045   5.892   0.516   6.550 -0.3199  0.0315 -0.3310
11185TIP3    H155046   5.799   0.499   6.534 -0.2148  0.2000 -1.1581
11185TIP3    H255047   5.893   0.591   6.609 -0.7231  3.2360 -3.9816
11186TIP3   OH255048   1.416   6.596  16.214  0.2577  0.3432 -0.3183
11186TIP3    H155049   1.486   6.539  16.246 -1.2316 -0.9201  0.7910
11186TIP3    H255050   1.366   6.541  16.154  0.4928  1.4166 -1.5697
11187TIP3   OH255051   1.281   1.285  14.909  0.0038  0.1793  0.4650
11187TIP3    H155052   1.306   1.322  14.824  1.4890 -1.0455  0.3070
11187TIP3    H255053   1.294   1.356  14.971 -0.8854  1.0275 -0.2916
11188TIP3   OH255054   6.250   1.134  14.813 -0.3547 -0.3197 -0.0540
11188TIP3    H155055   6.234   1.076  14.887  1.9456 -2.9633 -1.4393
11188TIP3    H255056   6.172   1.126  14.758  0.7497 -4.3103 -1.4207
11189TIP3   OH255057   3.256   3.449   0.706  0.7638  0.1583  0.3906
11189TIP3    H155058   3.326   3.405   0.756 -0.3549 -2.0558  0.1489
11189TIP3    H255059   3.210   3.377   0.663 -0.2284  1.7651 -1.3519
11190TIP3   OH255060   5.283   1.974  14.185  0.6189 -0.6855 -0.4600
11190TIP3    H155061   5.234   2.042  14.231 -1.5245 -2.5067  0.1537
11190TIP3    H255062   5.235   1.962  14.103  1.8734 -0.4505 -1.2515
11191TIP3   OH255063   4.806   2.921   1.114 -0.7165 -0.4364  0.1623
11191TIP3    H155064   4.874   2.980   1.080  0.3241 -0.8713  1.3956
11191TIP3    H255065   4.792   2.858   1.044 -0.5179  0.1942 -0.4626
11192TIP3   OH255066   3.795   1.843  12.967  0.1536 -0.2243 -0.1927
11192TIP3    H155067   3.836   1.843  12.881 -1.2911 -1.1688 -0.9380
11192TIP3    H255068   3.775   1.935  12.984  1.1396  0.0594 -0.5026
11193TIP3   OH255069   3.400   1.507   3.593  0.2907  0.3305 -0.1237
11193TIP3    H155070   3.455   1.573   3.635 -1.5454  0.6413  1.9831
11193TIP3    H255071   3.454   1.427   3.594  1.3435  1.0199  0.2822
11194TIP3   OH255072   1.108   3.538   3.014 -0.5548  0.1412  0.3353
11194TIP3    H155073   1.145   3.450   3.014  0.8134  0.6919  0.0874
11194TIP3    H255074   1.144   3.579   2.935  2.2841  2.2740  2.5183
11195TIP3   OH255075   4.019   0.410  15.494  0.4288 -0.2984  0.5213
11195TIP3    H155076   4.074   0.487  15.501 -0.6327  0.3380  3.0315
11195TIP3    H255077   3.963   0.427  15.418  1.4267  0.5272 -0.0566
11196TIP3   OH255078   5.580   5.109   4.887  0.8033 -0.3716  0.2282
11196TIP3    H155079   5.640   5.132   4.816 -1.3392  1.0655 -1.2302
11196TIP3    H255080   5.519   5.183   4.892  1.0995 -0.1433  3.9369
11197TIP3   OH255081   5.522   3.878  11.162 -0.2446 -0.2829  0.2165
11197TIP3    H155082   5.525   3.936  11.238 -0.7651 -0.5610  0.4494
11197TIP3    H255083   5.544   3.935  11.088  3.1590 -0.5614  0.8446
11198TIP3   OH255084   4.662   5.881  11.117  0.0546  0.1850 -0.0532
11198TIP3    H155085   4.724   5.867  11.045 -1.8148 -0.5048 -1.6180
11198TIP3    H255086   4.689   5.964  11.156  1.2731  0.4682 -1.4162
11199TIP3   OH255087   4.454   6.760  13.520 -0.1936 -0.1661 -0.1388
11199TIP3    H155088   4.444   6.853  13.498 -0.3509  0.1926  1.3369
11199TIP3    H255089   4.535   6.756  13.570 -0.6540 -0.6691  0.5861
11200TIP3   OH255090   5.683   5.862   3.948 -0.6332 -0.5640  0.1415
11200TIP3    H155091   5.662   5.902   4.033 -0.5106 -0.2406  0.0206
11200TIP3    H255092   5.779   5.856   3.948 -0.6871 -1.7297  0.5529
11201TIP3   OH255093   0.553   2.451   5.683 -0.4389 -0.1366 -0.0980
11201TIP3    H155094   0.469   2.460   5.637  0.1494 -0.2647 -1.2275
11201TIP3    H255095   0.595   2.536   5.673 -0.7031  0.1434  1.0469
11202TIP3   OH255096   4.112   4.835  11.188  0.1925  0.4830 -0.5085
11202TIP3    H155097   4.053   4.775  11.143  0.3348 -0.4059  0.4337
11202TIP3    H255098   4.175   4.778  11.232  1.0676  1.3744 -0.5726
11203TIP3   OH255099   4.684   2.330  14.575  0.0336  0.2409  0.1421
11203TIP3    H155100   4.742   2.255  14.562 -1.5496 -0.6892 -2.1995
11203TIP3    H255101   4.731   2.404  14.535  2.0767  0.9162  3.3756
11204TIP3   OH255102   5.801   1.165   1.318  0.2203  0.0065  0.5470
11204TIP3    H155103   5.781   1.073   1.298  1.4860 -0.4942  1.4216
11204TIP3    H255104   5.860   1.160   1.394  0.6823  1.5318  0.3115
11205TIP3   OH255105   0.887   4.018   0.241  0.7104 -0.2772 -0.8872
11205TIP3    H155106   0.868   4.064   0.159  1.4345  1.5702 -0.0662
11205TIP3    H255107   0.880   4.085   0.309  1.5695 -1.4264  0.3973
11206TIP3   OH255108   2.867   5.406   3.968  0.1274 -0.5810  0.1994
11206TIP3    H155109   2.936   5.399   4.034 -1.9581 -0.4961  2.5081
11206TIP3    H255110   2.912   5.441   3.891  2.6146 -0.3693  1.6333
11207TIP3   OH255111   6.709   1.621  16.970 -0.2257  0.3039  0.7006
11207TIP3    H155112   6.712   1.541  16.918  1.5550 -1.3950  3.2354
11207TIP3    H255113   6.620   1.623  17.006 -0.1588 -0.7496  0.9390
11208TIP3   OH255114   3.956   1.990  13.588 -0.1030  0.1037  0.6408
11208TIP3    H155115   3.965   1.959  13.498 -0.7238 -0.6489  0.8312
11208TIP3    H255116   3.949   2.085  13.579  2.3735  0.3123  0.0975
11209TIP3   OH255117   5.319   6.367   2.903 -0.0419  0.1209 -0.1108
11209TIP3    H155118   5.266   6.344   2.979 -1.9507 -1.2713 -1.7428
11209TIP3    H255119   5.264   6.427   2.852 -0.1341 -1.3477 -1.8486
11210TIP3   OH255120   3.363   5.738   5.149  0.6520 -0.0645 -0.0766
11210TIP3    H155121   3.450   5.711   5.178  0.9380 -0.0556 -0.9132
11210TIP3    H255122   3.379   5.817   5.097  0.3051 -0.8435 -1.4058
11211TIP3   OH255123   5.799   4.991   3.019  0.2742  0.5823  0.2294
11211TIP3    H155124   5.751   5.040   2.953 -1.6655 -0.5800  0.6978
11211TIP3    H255125   5.749   5.004   3.100  0.2578 -1.2837  0.5708
11212TIP3   OH255126   0.876   4.034   5.423  0.1194  0.4080 -0.4716
11212TIP3    H155127   0.868   3.994   5.337 -0.0420  3.3369 -1.9345
11212TIP3    H255128   0.799   4.091   5.431  0.2366  0.3667  1.5402
11213TIP3   OH255129   2.774   3.022   4.685  0.1185 -0.3046 -0.2243
11213TIP3    H155130   2.730   3.054   4.764 -1.0134  1.5963 -1.5519
11213TIP3    H255131   2.855   3.071   4.681  0.7060 -1.1891  0.2779
11214TIP3   OH255132   2.414   0.572   4.519  0.2191 -0.6331 -0.1891
11214TIP3    H155133   2.341   0.557   4.579 -0.2127  1.2566 -0.2003
11214TIP3    H255134   2.376   0.621   4.446  1.1936 -0.9825 -0.9577
11215TIP3   OH255135   5.518   3.259   5.398 -0.5104 -0.0658  0.3000
11215TIP3    H155136   5.433   3.292   5.371 -0.4922  0.2167  0.5750
11215TIP3    H255137   5.581   3.307   5.344 -0.4911  0.2638  0.6076
11216TIP3   OH255138   1.356   1.299   3.996 -0.4369  0.0283 -0.3280
11216TIP3    H155139   1.364   1.391   4.023  1.3006 -0.3220  0.5246
11216TIP3    H255140   1.319   1.303   3.908  0.2904  1.5932 -0.5973
11217TIP3   OH255141   5.589   0.579   6.497  0.3334 -0.6963 -0.2193
11217TIP3    H155142   5.529   0.647   6.528 -0.3745 -0.7502 -1.4385
11217TIP3    H255143   5.545   0.539   6.423  0.3401 -3.1322  1.0025
11218TIP3   OH255144   3.150   0.347  14.845 -0.0544 -0.4271  0.5040
11218TIP3    H155145   3.097   0.315  14.918 -1.5224 -1.8892 -1.1205
11218TIP3    H255146   3.087   0.385  14.784  1.1171  0.5659 -0.1362
11219TIP3   OH255147   5.548   4.778  16.977  0.2579  0.2548  0.2757
11219TIP3    H155148   5.643   4.786  16.982  0.3531 -1.1338  1.4054
11219TIP3    H255149   5.515   4.860  17.012  1.0750  0.0841  1.5186
11220TIP3   OH255150   1.990   0.519  11.002  0.3024  0.2095 -0.3314
11220TIP3    H155151   1.975   0.592  10.942 -0.3834 -0.2016 -0.6767
11220TIP3    H255152   2.051   0.462  10.955  2.1781  1.3579  0.6287
11221TIP3   OH255153   6.185   6.766   2.573  0.1989 -0.0450  0.2325
11221TIP3    H155154   6.191   6.845   2.627  1.9527 -0.3647  0.5518
11221TIP3    H255155   6.197   6.797   2.483  0.4118  0.1004  0.3111
11222TIP3   OH255156   2.296   6.073   4.044 -0.0789 -0.4073  0.3570
11222TIP3    H155157   2.357   6.064   3.971  1.7771  0.5710  1.7147
11222TIP3    H255158   2.309   5.993   4.095  1.4806  0.5901  1.6104
11223TIP3   OH255159   3.255   1.914  11.799  0.0982 -0.0441  0.5873
11223TIP3    H155160   3.332   1.957  11.762 -1.3143  1.8374 -0.3649
11223TIP3    H255161   3.248   1.948  11.888  2.0904 -2.6832  1.8924
11224TIP3   OH255162   2.273   4.128  13.004  0.4483 -0.1126  0.2636
11224TIP3    H155163   2.179   4.133  13.018  0.2250 -0.0718 -1.1617
11224TIP3    H255164   2.284   4.091  12.917  1.8102 -2.4673  1.3331
11225TIP3   OH255165   5.597   2.573   0.323  0.0695 -0.5609 -0.1020
11225TIP3    H155166   5.565   2.492   0.362 -0.5525  0.5778  1.8931
11225TIP3    H255167   5.529   2.598   0.260 -0.8839 -0.4072  0.9626
11226TIP3   OH255168   2.106   1.186   5.997  0.4840  0.5708 -0.8751
11226TIP3    H155169   2.146   1.250   6.056  0.0643 -0.5546  0.6636
11226TIP3    H255170   2.015   1.214   5.990  0.2257 -0.0070  0.0416
11227TIP3   OH255171   0.313   6.369   2.346  0.5518  0.6406  0.2542
11227TIP3    H155172   0.408   6.371   2.358  0.3439  0.0001  2.4736
11227TIP3    H255173   0.294   6.279   2.319  0.5094  0.4830  0.7879
11228TIP3   OH255174   5.572   0.896   6.260 -0.4206  0.4418 -0.0540
11228TIP3    H155175   5.531   0.828   6.314 -0.8244  0.0699 -0.8126
11228TIP3    H255176   5.659   0.908   6.299 -0.1077 -0.9474 -0.2748
11229TIP3   OH255177   5.226   4.002   2.649  0.0314  0.0099 -0.4694
11229TIP3    H155178   5.289   3.977   2.582  1.4259 -1.6456  1.3426
11229TIP3    H255179   5.169   4.066   2.606  0.4747 -1.3838 -3.3697
11230TIP3   OH255180   5.828   1.257   0.794 -0.4558 -0.3123 -0.4519
11230TIP3    H155181   5.743   1.249   0.750 -1.0971  1.4409  0.3494
11230TIP3    H255182   5.848   1.168   0.824 -1.6969 -0.8847 -1.2194
11231TIP3   OH255183   4.022   3.859   3.695  0.2314 -0.5439  0.4079
11231TIP3    H155184   4.016   3.952   3.672 -1.2675 -0.6744  0.2248
11231TIP3    H255185   4.095   3.855   3.758  1.9411  0.3587 -1.4213
11232TIP3   OH255186   5.390   1.649  13.835  0.1052 -0.3623 -0.0783
11232TIP3    H155187   5.312   1.692  13.799 -0.2801 -1.9441 -1.2607
11232TIP3    H255188   5.389   1.671  13.928 -1.3379  0.2514 -0.2157
11233TIP3   OH255189   5.020   0.386  13.916  0.3675  0.6370 -0.2094
11233TIP3    H155190   5.004   0.474  13.950 -1.0982  0.4153 -0.2355
11233TIP3    H255191   4.977   0.385  13.831  0.6913  0.0054 -0.3720
11234TIP3   OH255192   0.697   4.586  16.271 -0.1139 -0.2253 -0.0641
11234TIP3    H155193   0.723   4.583  16.363  1.3905  2.8053 -0.2566
11234TIP3    H255194   0.602   4.577  16.272 -0.1476 -0.0045  1.8324
11235TIP3   OH255195   4.945   0.383  13.283 -0.0699 -0.1383  0.3030
11235TIP3    H155196   5.024   0.357  13.235  0.2556 -1.8713  1.6946
11235TIP3    H255197   4.972   0.461  13.332  0.5384 -0.2156  0.1038
11236TIP3   OH255198   0.634   2.524   2.140 -0.2019 -0.2484 -0.2628
11236TIP3    H155199   0.713   2.574   2.118  0.6187 -1.4306 -0.0946
11236TIP3    H255200   0.667   2.439   2.170 -1.5593 -1.2050 -1.3275
11237TIP3   OH255201   1.940   3.775  12.381  0.0109 -0.0113  1.0169
11237TIP3    H155202   1.998   3.848  12.401  1.2736  0.0723 -2.2851
11237TIP3    H255203   1.997   3.698  12.381  0.4482  0.1283 -2.7155
11238TIP3   OH255204   0.351   5.520  16.723  0.6111 -0.2276 -0.4160
11238TIP3    H155205   0.283   5.472  16.770  0.1452 -0.6393 -1.4990
11238TIP3    H255206   0.312   5.606  16.708 -0.0247 -0.7340 -1.7873
11239TIP3   OH255207   0.431   4.337  13.976  0.0567  0.8101 -0.0026
11239TIP3    H155208   0.459   4.359  14.065 -1.0690  2.6556 -0.0358
11239TIP3    H255209   0.512   4.333  13.925  0.7205 -0.3858  1.1100
11240TIP3   OH255210   1.771   6.037   0.645  0.0673 -0.8303 -1.1958
11240TIP3    H155211   1.849   6.018   0.592 -0.0650 -1.2156 -1.2534
11240TIP3    H255212   1.715   6.089   0.586 -0.1401 -1.3773 -1.4850
11241TIP3   OH255213   4.543   2.814  16.580  0.7880 -0.1730 -0.4102
11241TIP3    H155214   4.491   2.836  16.502 -1.2039 -0.4959  0.7633
11241TIP3    H255215   4.554   2.719  16.576 -1.9794 -0.6750  1.1573
11242TIP3   OH255216   6.550   1.967   1.312  0.6416  0.4241 -0.0317
11242TIP3    H155217   6.455   1.959   1.314  0.7339 -1.0684  0.0614
11242TIP3    H255218   6.579   1.887   1.267  1.7869  1.5397 -1.3798
11243TIP3   OH255219   2.947   5.652  15.454  0.0025  0.0640  0.6584
11243TIP3    H155220   2.998   5.679  15.377 -1.6232 -0.9666 -0.8663
11243TIP3    H255221   2.878   5.718  15.460 -2.2496 -1.9247 -1.3052
11244TIP3   OH255222   4.885   4.893  14.387 -0.0253  0.6514  0.6054
11244TIP3    H155223   4.972   4.856  14.401 -1.0118 -1.6060  1.1336
11244TIP3    H255224   4.832   4.859  14.459 -2.1691 -0.9184 -1.5592
11245TIP3   OH255225   3.257   5.815  11.359 -0.6418 -0.3793  0.0836
11245TIP3    H155226   3.312   5.892  11.340 -0.2294 -0.9413 -1.1392
11245TIP3    H255227   3.233   5.825  11.451  1.3931 -0.0295  0.6260
11246TIP3   OH255228   2.712   0.052  13.116  0.0816  0.5896  0.1122
11246TIP3    H155229   2.640  -0.005  13.140  1.0291  0.0828  2.0048
11246TIP3    H255230   2.788   0.014  13.160  1.7436  0.5108 -2.6356
11247TIP3   OH255231   5.313   1.487  14.306  0.5885  0.2657 -0.1710
11247TIP3    H155232   5.270   1.534  14.378  1.5041  0.1784  0.4409
11247TIP3    H255233   5.240   1.458  14.251 -0.0777  1.2291  0.1552
11248TIP3   OH255234   1.918   4.597   3.696 -0.7643 -0.5728  0.0034
11248TIP3    H155235   1.837   4.546   3.700 -0.1845 -1.4571  3.1978
11248TIP3    H255236   1.978   4.551   3.755  1.6191  0.8440 -1.1643
11249TIP3   OH255237   5.450   2.369  14.568 -0.0686  0.4669 -0.2872
11249TIP3    H155238   5.448   2.392  14.661  0.2382  3.4676 -0.9251
11249TIP3    H255239   5.524   2.308  14.560 -0.5594 -0.4257  1.5063
11250TIP3   OH255240   2.069   1.615   3.655  0.2653 -0.1020 -0.4422
11250TIP3    H155241   2.109   1.702   3.660 -1.1321  0.4966  1.3972
11250TIP3    H255242   2.142   1.555   3.667  1.2403  0.7830 -1.6163
11251TIP3   OH255243   0.184   5.660   3.861  0.5404  1.1063 -0.5204
11251TIP3    H155244   0.272   5.687   3.887  0.7400  0.7851 -0.8642
11251TIP3    H255245   0.191   5.638   3.768 -0.0768  1.8243 -0.7476
11252TIP3   OH255246   0.987   5.503  11.508 -0.0588  0.1653  0.2561
11252TIP3    H155247   0.985   5.577  11.568 -1.1694  0.1542  0.2521
11252TIP3    H255248   0.999   5.542  11.422  0.0390  0.2927  0.3274
11253TIP3   OH255249   5.561   4.855   4.069  0.4130 -0.4100 -0.6354
11253TIP3    H155250   5.473   4.834   4.037 -0.9018  1.6555  1.3331
11253TIP3    H255251   5.578   4.943   4.036  1.8070 -0.7931 -1.0235
11254TIP3   OH255252   0.768   1.397  13.589 -0.3585  0.0606  0.1914
11254TIP3    H155253   0.792   1.461  13.656 -1.9137  0.3650  0.4845
11254TIP3    H255254   0.710   1.335  13.633  1.0909 -1.5891 -0.0952
11255TIP3   OH255255   5.133   1.020  13.748 -0.5268 -0.8825 -0.0326
11255TIP3    H155256   5.103   1.090  13.806 -1.1492 -1.7486  0.7290
11255TIP3    H255257   5.166   1.065  13.670 -0.7902  0.2524  0.4945
11256TIP3   OH255258   4.168   1.850   4.600 -0.1645 -0.0078 -0.5310
11256TIP3    H155259   4.219   1.769   4.595 -0.4815 -0.2567  0.1292
11256TIP3    H255260   4.224   1.915   4.559  0.6514 -0.3041  0.0671
11257TIP3   OH255261   3.084   2.226   5.218 -0.0655  0.3385  0.1281
11257TIP3    H155262   3.028   2.282   5.164  0.4213 -0.9727 -1.8393
11257TIP3    H255263   3.054   2.137   5.199  0.5953 -0.2253  1.5377
11258TIP3   OH255264   3.423   3.629   3.470  0.2138  0.3052  0.1065
11258TIP3    H155265   3.412   3.599   3.561  1.1097  1.8838  0.7817
11258TIP3    H255266   3.365   3.572   3.419 -2.0353  0.7746  1.9383
11259TIP3   OH255267   4.046   4.938  14.482 -0.0029 -0.1219  0.1130
11259TIP3    H155268   3.962   4.903  14.512  1.8106 -2.0837  3.5540
11259TIP3    H255269   4.057   4.901  14.395 -1.2674 -2.6863  0.9308
11260TIP3   OH255270   3.785   4.720  11.839 -0.6054  0.0834  0.0947
11260TIP3    H155271   3.746   4.637  11.865  1.2927 -0.9149 -0.0468
11260TIP3    H255272   3.855   4.735  11.903 -0.8014  1.4995  0.0165
11261TIP3   OH255273   6.329   2.816   6.574 -0.0595 -0.2545  0.3448
11261TIP3    H155274   6.327   2.722   6.590  0.3050 -0.2114  0.6664
11261TIP3    H255275   6.329   2.855   6.662 -0.2842  0.0451  0.2122
11262TIP3   OH255276   4.029   0.417  13.218 -0.0148  0.2273  0.1743
11262TIP3    H155277   3.985   0.346  13.265 -2.1521 -0.2433 -2.2944
11262TIP3    H255278   3.959   0.478  13.195  1.5392  2.3570  0.7974
11263TIP3   OH255279   4.907   2.084  15.249  0.2346 -0.1001  0.5830
11263TIP3    H155280   4.841   2.048  15.309  2.1686 -1.3150  2.0963
11263TIP3    H255281   4.985   2.032  15.265  0.7855 -0.8469 -3.4182
11264TIP3   OH255282   2.180   3.259   5.416  0.1436 -0.4702  0.1108
11264TIP3    H155283   2.231   3.183   5.388  0.1548 -1.0525  1.5975
11264TIP3    H255284   2.183   3.256   5.512  0.4329  1.6088  0.2300
11265TIP3   OH255285   0.521   1.419  13.360 -0.1525 -0.4326  0.4397
11265TIP3    H155286   0.554   1.346  13.306  0.0864 -0.3479  0.4720
11265TIP3    H255287   0.507   1.490  13.297 -1.8967 -0.9812  0.1334
11266TIP3   OH255288   6.576   6.730   3.362  0.3381 -0.3917 -0.1163
11266TIP3    H155289   6.549   6.821   3.347  0.5975 -0.2683  0.1593
11266TIP3    H255290   6.502   6.678   3.333  0.1050 -0.0824 -0.0786
11267TIP3   OH255291   1.216   5.499  15.141 -0.1534 -0.2369 -0.0106
11267TIP3    H155292   1.215   5.438  15.215  2.2205  0.5736  0.7805
11267TIP3    H255293   1.162   5.573  15.171  1.0098  0.2085  1.0604
11268TIP3   OH255294   3.738   2.238   2.824 -0.1473  0.7770 -0.3246
11268TIP3    H155295   3.773   2.324   2.846 -0.8393  0.7020  1.1900
11268TIP3    H255296   3.803   2.176   2.857 -0.2446  0.6898 -0.2965
11269TIP3   OH255297   1.284   4.295  10.314 -0.1545  0.1809  0.1069
11269TIP3    H155298   1.227   4.218  10.308  1.2150 -0.9447  0.8836
11269TIP3    H255299   1.249   4.356  10.250 -2.2316 -0.4509  0.5564
11270TIP3   OH255300   5.066   4.657   4.588  0.6840 -0.1112  0.0066
11270TIP3    H155301   4.976   4.632   4.567  1.1586  0.5609 -3.4427
11270TIP3    H255302   5.059   4.745   4.623 -0.0266 -0.2033  0.1038
11271TIP3   OH255303   4.182   0.009   3.856  0.2134  0.0728 -0.1287
11271TIP3    H155304   4.200  -0.078   3.891 -1.8341 -0.5780 -0.5513
11271TIP3    H255305   4.103  -0.002   3.804 -1.4037  2.5656  1.5478
11272TIP3   OH255306   2.548   3.121  11.007  0.1982 -0.0396 -0.0851
11272TIP3    H155307   2.587   3.037  11.032 -0.0858 -0.0082  0.4734
11272TIP3    H255308   2.474   3.132  11.066  0.1015  0.5022 -0.2988
11273TIP3   OH255309   4.772   1.644  14.958  0.0939  0.5883  0.0118
11273TIP3    H155310   4.866   1.624  14.951 -0.4164 -2.9804  1.2891
11273TIP3    H255311   4.765   1.698  15.036  1.1070  1.2541 -0.3352
11274TIP3   OH255312   3.294   6.116  14.990 -0.5946  0.1736 -0.2333
11274TIP3    H155313   3.325   6.121  14.899 -1.5824 -1.0537 -0.6608
11274TIP3    H255314   3.353   6.054  15.032 -0.8504 -0.1462 -0.3459
11275TIP3   OH255315   2.409   1.607  12.312 -0.1519  0.0991 -0.0982
11275TIP3    H155316   2.398   1.631  12.404 -1.2764 -1.0885  0.0988
11275TIP3    H255317   2.409   1.512  12.312 -0.0185  0.0862 -1.3238
11276TIP3   OH255318   3.191   0.719   3.849 -0.0304 -0.1449 -0.2770
11276TIP3    H155319   3.230   0.799   3.813 -0.4322 -0.0811 -0.5865
11276TIP3    H255320   3.254   0.688   3.914 -0.3531  1.0208  0.6427
11277TIP3   OH255321   2.300   0.817  16.454  0.1326 -0.3493  0.7322
11277TIP3    H155322   2.317   0.791  16.544 -2.0459 -0.8028  1.0640
11277TIP3    H255323   2.386   0.817  16.412  0.8090 -3.7558  1.8419
11278TIP3   OH255324   1.218   0.834  15.120  0.8394 -0.0117  0.2400
11278TIP3    H155325   1.214   0.844  15.025 -0.4660 -1.4503  0.0960
11278TIP3    H255326   1.274   0.757  15.133  0.4010 -0.2767  0.5807
11279TIP3   OH255327   0.006   3.825   4.718 -0.1119  0.1166 -0.0678
11279TIP3    H155328  -0.016   3.731   4.721 -2.2755  0.5956  1.0340
11279TIP3    H255329   0.099   3.827   4.697 -0.1157 -2.2697 -0.6129
11280TIP3   OH255330   1.996   5.286   1.292 -0.4495  0.6331 -0.5805
11280TIP3    H155331   2.065   5.342   1.256 -1.0316  1.3049 -0.6661
11280TIP3    H255332   1.958   5.337   1.363  0.7095 -0.6932  1.0794
11281TIP3   OH255333   0.760   1.328   4.756  0.4345 -0.4880  0.3525
11281TIP3    H155334   0.723   1.330   4.844 -1.5844  1.0764 -0.4458
11281TIP3    H255335   0.718   1.254   4.714  0.1942 -0.2809  0.2283
11282TIP3   OH255336   2.258   5.773  11.712  0.1147  0.4888 -0.0458
11282TIP3    H155337   2.193   5.810  11.652 -0.0212  1.9071  0.9212
11282TIP3    H255338   2.208   5.751  11.791  0.5196  0.0041  0.0771
11283TIP3   OH255339   6.317   4.975  12.688 -0.9923  0.2575 -0.4262
11283TIP3    H155340   6.242   5.034  12.679 -1.3651 -0.0914  0.3062
11283TIP3    H255341   6.342   4.982  12.780 -0.6926 -0.3143 -0.4614
11284TIP3   OH255342   4.265   3.741   1.667  0.8655 -0.0023 -0.1164
11284TIP3    H155343   4.259   3.649   1.694  2.9586  0.3902  2.0555
11284TIP3    H255344   4.349   3.747   1.621  2.3063  1.2760  2.4152
11285TIP3   OH255345   1.306   5.403  13.201 -0.3661  0.1278  0.4236
11285TIP3    H155346   1.340   5.473  13.256 -0.3342  0.4100  0.0487
11285TIP3    H255347   1.383   5.353  13.175 -0.3369  0.2284  0.3158
11286TIP3   OH255348   5.668   4.159   2.443 -0.6335 -0.2443 -0.1893
11286TIP3    H155349   5.649   4.210   2.522 -0.9210 -1.3596  0.4742
11286TIP3    H255350   5.583   4.147   2.401 -0.6352 -0.5986 -0.0849
11287TIP3   OH255351   6.478   5.196  12.376  0.3851 -0.1316 -0.0776
11287TIP3    H155352   6.461   5.233  12.290  0.7724 -1.5998 -0.8200
11287TIP3    H255353   6.479   5.271  12.435 -1.4797  0.7477 -1.0785
11288TIP3   OH255354   6.357   6.092   1.366 -0.1018  0.0696  0.1173
11288TIP3    H155355   6.356   6.015   1.423  1.8925 -0.2905 -0.2737
11288TIP3    H255356   6.301   6.156   1.411 -1.3997 -1.4042  0.6939
11289TIP3   OH255357   5.344   3.160   0.826  0.5981  0.0446  0.0748
11289TIP3    H155358   5.363   3.139   0.734 -1.3691  1.6321 -0.7722
11289TIP3    H255359   5.358   3.078   0.872 -1.4741 -1.7452 -2.1830
11290TIP3   OH255360   1.480   6.374  14.270 -0.3642 -0.6251  0.3230
11290TIP3    H155361   1.542   6.394  14.340 -0.0872 -0.2729 -0.0183
11290TIP3    H255362   1.483   6.278  14.263 -0.4285 -0.6683  0.8165
11291TIP3   OH255363   3.954   4.060   2.355  0.4359 -0.4856  0.1202
11291TIP3    H155364   3.970   4.061   2.450  2.7730  0.0384 -0.2037
11291TIP3    H255365   3.931   4.150   2.334  2.4806  0.0411 -0.1048
11292TIP3   OH255366   4.302   0.928  14.267  0.2627  0.5020  0.0143
11292TIP3    H155367   4.273   1.019  14.270 -2.7609 -0.3684  0.3715
11292TIP3    H255368   4.284   0.899  14.177 -0.2004 -0.1293  0.3001
11293TIP3   OH255369   1.468   6.379   2.172  0.0077  0.5118  0.1807
11293TIP3    H155370   1.414   6.452   2.202  0.5526  1.2653 -0.6033
11293TIP3    H255371   1.428   6.301   2.211 -2.0282  0.9478 -0.8983
11294TIP3   OH255372   3.493   4.530  15.820 -0.0313 -0.5215 -0.1317
11294TIP3    H155373   3.580   4.557  15.848 -0.6483  0.0196  1.3581
11294TIP3    H255374   3.445   4.613  15.809 -0.4397 -0.8227 -0.6851
11295TIP3   OH255375   5.513   3.234   3.519  0.0396  0.5311  0.7491
11295TIP3    H155376   5.465   3.257   3.440  1.5422 -1.2158 -0.7612
11295TIP3    H255377   5.594   3.285   3.514  0.7039 -0.5288  0.4788
11296TIP3   OH255378   0.400   5.992  16.963 -0.7380 -0.1133 -0.8945
11296TIP3    H155379   0.459   6.062  16.992 -0.5222 -0.4519 -0.5068
11296TIP3    H255380   0.434   5.966  16.878 -0.5889 -0.0088 -0.8670
11297TIP3   OH255381   4.401   0.142  12.954  0.3511 -0.3363 -0.2901
11297TIP3    H155382   4.340   0.110  13.021  1.0461 -0.2204  0.4164
11297TIP3    H255383   4.405   0.071  12.890 -0.5913 -0.3056 -0.3874
11298TIP3   OH255384   5.017   6.817   1.343  0.0899 -0.2219  0.0346
11298TIP3    H155385   4.973   6.773   1.416  2.9555  0.7681  2.5742
11298TIP3    H255386   5.024   6.751   1.275 -0.2952 -2.0947  1.7296
11299TIP3   OH255387   3.470   1.428   1.651 -0.1233  0.1579  0.3810
11299TIP3    H155388   3.541   1.474   1.608 -0.1519  0.1850  0.3634
11299TIP3    H255389   3.501   1.413   1.740 -0.1892  0.3753  0.4417
11300TIP3   OH255390   0.345   3.534   3.601  0.7928  0.4454 -0.4542
11300TIP3    H155391   0.290   3.609   3.622  1.7993  0.7871  1.1641
11300TIP3    H255392   0.306   3.461   3.650  0.9344  0.3686 -0.4540
11301TIP3   OH255393   0.343   2.326  15.911  0.0038 -0.3120 -0.8595
11301TIP3    H155394   0.365   2.302  16.001  2.2275  0.7068 -1.0474
11301TIP3    H255395   0.402   2.274  15.857 -2.6925 -2.4766 -1.9732
11302TIP3   OH255396   2.209   4.874  14.926 -0.1386 -0.4510  0.6666
11302TIP3    H155397   2.172   4.826  14.851  1.6812 -0.0481 -0.5587
11302TIP3    H255398   2.240   4.956  14.888  0.8538 -0.2548  1.8795
11303TIP3   OH255399   5.572   1.204  12.589  0.2137 -0.6808 -0.1657
11303TIP3    H155400   5.545   1.114  12.607  0.0189 -0.2452  2.0920
11303TIP3    H255401   5.636   1.223  12.658  0.1980  0.9185 -0.5636
11304TIP3   OH255402   4.485   3.078  11.174 -0.0726 -0.2075  0.2008
11304TIP3    H155403   4.485   3.088  11.079  0.2421  3.3690  0.4158
11304TIP3    H255404   4.564   3.124  11.203  0.4923 -2.2463  2.1633
11305TIP3   OH255405   1.517   0.491   0.170  0.4638  0.1940 -0.1826
11305TIP3    H155406   1.506   0.563   0.108  1.3165  0.4624 -0.0393
11305TIP3    H255407   1.457   0.423   0.139  1.4068  0.0199 -1.7588
11306TIP3   OH255408   6.651   2.010  16.389  0.2143  0.3672 -0.4894
11306TIP3    H155409   6.629   2.079  16.325 -1.7007 -0.4403 -0.7651
11306TIP3    H255410   6.581   1.946  16.379  0.4889 -0.3223  1.6636
11307TIP3   OH255411   1.713   5.531   5.586  0.1621 -0.4517 -0.2556
11307TIP3    H155412   1.734   5.504   5.497  0.5069 -1.2722  0.0565
11307TIP3    H255413   1.618   5.526   5.591  0.2412 -3.2185  0.2199
11308TIP3   OH255414   1.358   2.877   5.230 -0.7997  0.6907  0.6941
11308TIP3    H155415   1.390   2.966   5.248 -1.3146  1.1571 -0.5995
11308TIP3    H255416   1.329   2.880   5.139  0.7216 -1.2690  0.0729
11309TIP3   OH255417   6.286   6.707   3.334  0.0082 -0.7144 -0.5206
11309TIP3    H155418   6.191   6.710   3.330 -0.0386 -0.4256  0.5124
11309TIP3    H255419   6.305   6.662   3.416  0.7276  1.8691  0.8447
11310TIP3   OH255420   6.801   6.054  14.331  0.2496 -0.5119  0.1385
11310TIP3    H155421   6.819   5.984  14.268 -0.6917 -1.6623  1.1251
11310TIP3    H255422   6.763   6.124  14.277 -0.1860 -1.3238 -0.6508
11311TIP3   OH255423   6.174   5.997   4.866 -0.1223 -0.5463  0.7710
11311TIP3    H155424   6.269   6.007   4.877  0.0674 -1.2398 -0.1632
11311TIP3    H255425   6.145   5.953   4.946  0.5898 -1.7777  0.3727
11312TIP3   OH255426   0.347   0.723  16.648 -0.7672 -0.4311  0.1094
11312TIP3    H155427   0.335   0.797  16.708  0.4706 -0.0654 -0.0837
11312TIP3    H255428   0.401   0.661  16.697  0.1381 -0.1892 -0.5638
11313TIP3   OH255429   0.982   3.560   5.224 -0.0911 -0.0855  0.5553
11313TIP3    H155430   1.021   3.613   5.293 -1.1048  1.7475 -0.2201
11313TIP3    H255431   0.895   3.538   5.257 -1.5630  2.8580 -0.9914
11314TIP3   OH255432   1.655   6.140  17.030 -0.0844 -0.3291  0.0054
11314TIP3    H155433   1.631   6.192  16.953 -1.4714 -0.0501  0.5995
11314TIP3    H255434   1.720   6.078  16.998  1.0487  1.2605 -0.8936
11315TIP3   OH255435   4.382   2.044  15.933 -0.1877  0.2476 -0.3677
11315TIP3    H155436   4.440   1.973  15.960 -1.3007 -1.3764 -2.0382
11315TIP3    H255437   4.436   2.123  15.940  1.0729 -0.7156  1.5566
11316TIP3   OH255438   1.868   0.157   0.146  0.9143  0.1279  0.2651
11316TIP3    H155439   1.773   0.153   0.139  0.8290  2.6133 -1.8314
11316TIP3    H255440   1.899   0.078   0.101 -0.1596 -0.1098 -0.0814
11317TIP3   OH255441   3.463   3.379   6.307  0.5716  0.0472  0.0094
11317TIP3    H155442   3.495   3.466   6.329  1.2665 -0.0274 -0.7050
11317TIP3    H255443   3.475   3.328   6.387 -0.7070  0.8357  0.7329
11318TIP3   OH255444   1.330   6.256  16.397 -0.4333 -0.1685  0.3219
11318TIP3    H155445   1.297   6.344  16.416  1.4565  0.5026  0.6583
11318TIP3    H255446   1.393   6.269  16.326 -1.0859 -1.4616 -0.5365
11319TIP3   OH255447   2.170   2.608   5.061 -0.4103  0.4947 -0.0949
11319TIP3    H155448   2.090   2.610   5.009  0.2307 -0.5259 -1.1944
11319TIP3    H255449   2.240   2.595   4.996  0.5246  0.2322  0.9322
11320TIP3   OH255450   3.010   2.601  17.190  0.5319 -0.4113  0.0690
11320TIP3    H155451   3.091   2.650  17.180  0.1046  0.2827 -0.0596
11320TIP3    H255452   2.990   2.570  17.102 -0.6327  1.5272 -0.4071
11321TIP3   OH255453   0.560   0.703  11.905 -0.1051  0.2474 -0.3527
11321TIP3    H155454   0.536   0.755  11.828  0.6900 -0.2071 -0.9127
11321TIP3    H255455   0.494   0.727  11.971  1.0183  3.0546 -0.0984
11322TIP3   OH255456   5.897   4.219   3.463 -0.9020 -0.2534 -0.6326
11322TIP3    H155457   5.857   4.299   3.497 -0.7087 -1.0923  1.8083
11322TIP3    H255458   5.983   4.247   3.431 -1.1509  0.6376 -0.5534
11323TIP3   OH255459   5.034   2.764   1.192  0.0503 -0.4817 -0.0163
11323TIP3    H155460   5.126   2.773   1.218 -0.6379  0.2754  2.3172
11323TIP3    H255461   5.003   2.686   1.239 -0.0664 -1.9444 -2.3185
11324TIP3   OH255462   0.648   2.231  14.666 -0.4339 -0.0296  0.1979
11324TIP3    H155463   0.610   2.246  14.753  1.3194 -0.3545  1.0636
11324TIP3    H255464   0.658   2.136  14.660 -0.3034  0.0112 -0.2539
11325TIP3   OH255465   1.611   2.792  16.271 -0.2575 -0.1648  0.3737
11325TIP3    H155466   1.626   2.727  16.339  1.6219 -0.7950 -0.5867
11325TIP3    H255467   1.661   2.869  16.298 -0.1476 -0.1390  0.1073
11326TIP3   OH255468   3.656   4.637   1.973 -0.1459 -0.1486 -0.6395
11326TIP3    H155469   3.704   4.707   2.018 -0.8555 -0.3914  0.5410
11326TIP3    H255470   3.618   4.680   1.896  0.0564  0.5784 -0.3446
11327TIP3   OH255471   4.308   0.490  12.339 -0.2826 -0.0386 -0.2248
11327TIP3    H155472   4.244   0.496  12.409 -0.8694  1.0491 -0.8250
11327TIP3    H255473   4.266   0.437  12.272 -0.3930  0.3205 -0.4424
11328TIP3   OH255474   6.017   0.901  10.836  0.3974 -0.0738  0.3796
11328TIP3    H155475   6.034   0.995  10.845 -0.7054  0.0569  1.3926
11328TIP3    H255476   5.934   0.896  10.789  1.0745 -0.5962 -0.8236
11329TIP3   OH255477   1.888   5.465  13.399 -0.5183  0.1126  0.0623
11329TIP3    H155478   1.826   5.491  13.468  1.0357 -0.6029  1.8241
11329TIP3    H255479   1.974   5.479  13.438  0.4080 -1.0099 -1.4922
11330TIP3   OH255480   6.650   3.410  16.645 -0.1733  0.1381 -0.3970
11330TIP3    H155481   6.658   3.374  16.734  3.4202  1.8147  0.1294
11330TIP3    H255482   6.662   3.504  16.656  1.0323  0.3189 -2.7280
11331TIP3   OH255483   4.762   5.494   3.616 -0.6936  0.3203 -0.0638
11331TIP3    H155484   4.740   5.513   3.707 -0.5871  1.8618 -0.3369
11331TIP3    H255485   4.800   5.576   3.583  0.0638 -0.4774 -1.2529
11332TIP3   OH255486   1.218   3.156   6.127  0.0987 -0.2729 -0.4390
11332TIP3    H155487   1.152   3.167   6.058 -0.4999 -0.3194  0.1244
11332TIP3    H255488   1.266   3.239   6.127 -0.2425 -0.0724 -0.5566
11333TIP3   OH255489   2.355   4.451   0.911 -0.3397 -0.2490  0.0696
11333TIP3    H155490   2.446   4.423   0.913  0.0313  0.9300  0.3900
11333TIP3    H255491   2.308   4.376   0.873  1.0335 -0.1315 -2.0489
11334TIP3   OH255492   5.162   6.028   9.792 -0.4275  0.3389 -0.3783
11334TIP3    H155493   5.089   5.982   9.749 -0.5388  0.2749 -0.1211
11334TIP3    H255494   5.177   5.979   9.873  1.2539 -0.8994 -1.3814
11335TIP3   OH255495   5.928   3.355   2.382 -0.1797 -0.6802  0.1058
11335TIP3    H155496   5.887   3.441   2.397  0.1302 -0.7048  1.1769
11335TIP3    H255497   5.855   3.298   2.356 -0.4322 -0.1713 -0.3382
11336TIP3   OH255498   6.751   6.632   3.160 -0.0012  0.6319  0.1765
11336TIP3    H155499   6.716   6.663   3.076  3.6277 -0.7865 -2.0796
11336TIP3    H255500   6.696   6.675   3.225 -3.4739  1.3319 -2.8470
11337TIP3   OH255501   3.508   4.695  11.485  0.2177 -0.4756  0.2513
11337TIP3    H155502   3.510   4.761  11.554 -1.3634 -0.3227  0.1995
11337TIP3    H255503   3.579   4.635  11.506 -0.6943 -0.8715  2.4506
11338TIP3   OH255504   3.635   5.166  13.895  0.2520 -0.0464 -0.8122
11338TIP3    H155505   3.711   5.131  13.849 -0.0337 -0.3156 -1.0903
11338TIP3    H255506   3.671   5.213  13.970  0.6303 -1.5555 -0.0032
11339TIP3   OH255507   4.089   2.257  15.933  0.0378  0.2194 -0.3002
11339TIP3    H155508   4.029   2.226  15.865  0.5128 -1.5926  0.0703
11339TIP3    H255509   4.034   2.263  16.011 -0.0742  0.4053 -0.3923
11340TIP3   OH255510   4.170   4.091  13.993 -0.4369  0.0135 -0.0175
11340TIP3    H155511   4.219   4.143  14.058  1.4089 -2.2099  0.4802
11340TIP3    H255512   4.083   4.080  14.033 -0.0675  0.6081  1.0080
11341TIP3   OH255513   6.022   5.571   2.035  0.3410 -0.3780  0.6657
11341TIP3    H155514   6.004   5.624   1.958  1.2549  0.5644  1.0744
11341TIP3    H255515   6.006   5.480   2.007 -0.8700  0.0703 -0.1540
11342TIP3   OH255516   5.103   4.414   4.769  0.4669 -0.3010  0.0240
11342TIP3    H155517   5.111   4.495   4.718 -1.5683  0.6490  1.1017
11342TIP3    H255518   5.193   4.384   4.779  1.3401  2.0200 -0.1380
11343TIP3   OH255519   5.844   2.569   5.111  0.8804 -0.3743  0.1287
11343TIP3    H155520   5.868   2.569   5.018  2.1929 -1.1806  0.4304
11343TIP3    H255521   5.928   2.565   5.157  0.4347  2.6895  1.4589
11344TIP3   OH255522   3.552   0.739  11.170 -0.4434  0.3319 -0.6011
11344TIP3    H155523   3.601   0.812  11.132 -0.5649  0.2041 -1.0165
11344TIP3    H255524   3.589   0.728  11.257 -1.4117  1.8413  0.0508
11345TIP3   OH255525   4.675   5.236   0.193 -0.3109 -0.1041 -0.5302
11345TIP3    H155526   4.770   5.244   0.180 -0.4670  2.0502 -0.6186
11345TIP3    H255527   4.666   5.183   0.272  0.9906  0.1303 -0.2016
11346TIP3   OH255528   1.225   3.622   4.617 -0.2570  0.5048 -0.5194
11346TIP3    H155529   1.206   3.574   4.698  1.2244  0.3339 -0.2455
11346TIP3    H255530   1.158   3.690   4.613 -1.0852 -0.2347  0.2151
11347TIP3   OH255531   2.980   3.878   4.624  0.7443 -0.2677 -0.0562
11347TIP3    H155532   3.008   3.798   4.668 -1.6536 -1.6343 -0.8170
11347TIP3    H255533   2.892   3.894   4.657  0.8535  1.5932 -0.5674
11348TIP3   OH255534   2.641   2.838   2.408 -0.2034  0.3375 -0.2224
11348TIP3    H155535   2.718   2.798   2.448 -1.3196 -0.8423  0.8658
11348TIP3    H255536   2.612   2.774   2.342 -0.3430  0.7048 -0.5239
11349TIP3   OH255537   3.625   3.809  11.907  0.0199  0.8555  0.3152
11349TIP3    H155538   3.540   3.814  11.950 -0.7632 -1.2564 -0.8903
11349TIP3    H255539   3.659   3.723  11.930  0.6026  0.5935 -1.3636
11350TIP3   OH255540   0.403   2.490  11.703 -0.0101  0.2081  0.5873
11350TIP3    H155541   0.396   2.523  11.613 -0.4595  0.3878  0.6853
11350TIP3    H255542   0.313   2.492  11.736  0.0304 -0.6440  0.7689
11351TIP3   OH255543   1.248   0.807   5.065  0.4243  0.3079 -0.1599
11351TIP3    H155544   1.231   0.757   4.985  0.1978 -0.7367  0.5164
11351TIP3    H255545   1.199   0.761   5.133  1.1435  0.7850  0.7071
11352TIP3   OH255546   3.850   0.951   4.641 -0.1604  0.0223 -0.1566
11352TIP3    H155547   3.836   0.857   4.652 -1.5031  0.2499  0.2496
11352TIP3    H255548   3.944   0.959   4.624 -0.1799 -1.4758 -1.2111
11353TIP3   OH255549   6.432   4.762  13.797 -0.1110  0.7456 -0.6337
11353TIP3    H155550   6.341   4.747  13.770  0.2180 -0.3649 -1.2191
11353TIP3    H255551   6.480   4.690  13.757  0.8006  0.4362  0.9417
11354TIP3   OH255552   4.777   2.443   4.364  0.3243 -0.3048  0.1627
11354TIP3    H155553   4.750   2.487   4.284  0.7169 -0.7826 -0.2387
11354TIP3    H255554   4.697   2.433   4.415 -0.0963 -0.8697 -0.5975
11355TIP3   OH255555   5.369   2.919  11.001  0.2097  0.1305 -0.2442
11355TIP3    H155556   5.399   2.877  10.920  2.1959  0.4364  0.2787
11355TIP3    H255557   5.349   2.847  11.060 -0.6117 -0.0853 -0.7638
11356TIP3   OH255558   3.221   4.041  12.227 -0.4288  0.3165 -0.1436
11356TIP3    H155559   3.236   4.108  12.294  0.3769 -1.3436  1.4192
11356TIP3    H255560   3.158   3.981  12.266 -0.4585 -0.3271 -1.1447
11357TIP3   OH255561   6.654   6.106   0.787  0.5031 -0.6470  0.3427
11357TIP3    H155562   6.695   6.183   0.749  2.2065 -1.2960  0.7927
11357TIP3    H255563   6.563   6.109   0.756  1.0069  0.5686 -1.0921
11358TIP3   OH255564   3.607   2.150   4.227  0.0381  0.4615  0.0532
11358TIP3    H155565   3.602   2.231   4.175 -0.3680  1.0719  1.0165
11358TIP3    H255566   3.528   2.152   4.282  0.1879 -0.4393  0.3147
11359TIP3   OH255567   6.402   4.920  10.980  0.7045 -0.1498 -0.5400
11359TIP3    H155568   6.429   4.842  10.932  0.1684 -0.4113 -0.4244
11359TIP3    H255569   6.423   4.900  11.071  0.4263 -0.2170 -0.4922
11360TIP3   OH255570   6.062   0.467  15.773 -0.0067 -0.6257  0.5387
11360TIP3    H155571   5.997   0.528  15.806  1.4049  0.1979  1.9302
11360TIP3    H255572   6.146   0.502  15.803  1.2985 -0.6609 -2.6438
11361TIP3   OH255573   1.662   0.382   6.261  0.6971 -0.6863 -0.0240
11361TIP3    H155574   1.729   0.427   6.312 -0.1866 -0.2614  0.7866
11361TIP3    H255575   1.601   0.346   6.326 -0.7162  0.2734 -0.7553
11362TIP3   OH255576   6.517   3.591   2.000 -0.1360  0.2775 -0.2637
11362TIP3    H155577   6.544   3.516   2.053 -1.5005  1.0720  1.6865
11362TIP3    H255578   6.487   3.553   1.917  1.7541 -1.0449 -0.4044
11363TIP3   OH255579   2.099   6.041   3.433  0.8944 -0.0219 -0.4346
11363TIP3    H155580   2.140   5.989   3.364  2.7529  0.4939  0.2092
11363TIP3    H255581   2.102   6.131   3.400 -0.4639 -0.0486 -0.6911
11364TIP3   OH255582   6.443   1.409   2.509 -0.0325 -0.0679  0.3846
11364TIP3    H155583   6.397   1.370   2.584 -0.6771  0.2530  0.1701
11364TIP3    H255584   6.384   1.392   2.435 -1.1170  2.6188  0.5185
11365TIP3   OH255585   3.333   0.831   2.363  0.3954  0.2779  0.6324
11365TIP3    H155586   3.382   0.796   2.289 -0.7340 -1.9442  0.8602
11365TIP3    H255587   3.376   0.914   2.383  2.8419 -0.6793 -0.3365
11366TIP3   OH255588   5.794   2.206  11.898 -0.3424 -0.2071  0.3522
11366TIP3    H155589   5.875   2.158  11.881  0.9430  2.0843 -0.3708
11366TIP3    H255590   5.783   2.264  11.823 -1.6430  0.8815  1.3171
11367TIP3   OH255591   4.357   1.066   2.611 -0.6575 -0.2364  0.1561
11367TIP3    H155592   4.274   1.082   2.566 -0.5619  2.0869  0.6393
11367TIP3    H255593   4.413   1.025   2.546 -1.7716 -0.6120 -0.5877
11368TIP3   OH255594   6.764   4.112  15.599 -0.3851 -0.2919 -0.0155
11368TIP3    H155595   6.673   4.130  15.623 -1.7389 -5.1983 -0.3519
11368TIP3    H255596   6.815   4.133  15.677 -2.0996  0.5910  0.9113
11369TIP3   OH255597   2.378   5.554   3.363 -0.5234 -0.3542  0.0834
11369TIP3    H155598   2.352   5.599   3.282 -1.1654 -2.1788 -0.7822
11369TIP3    H255599   2.296   5.528   3.404 -0.1939 -1.7855 -0.0977
11370TIP3   OH255600   4.884   4.417   0.227 -0.0721  0.5699  0.3300
11370TIP3    H155601   4.889   4.440   0.320 -2.2776  2.1462  0.1658
11370TIP3    H255602   4.974   4.425   0.195  0.6581  0.4531  2.2242
11371TIP3   OH255603   3.220   5.439   2.945 -0.1032 -0.5884 -0.3926
11371TIP3    H155604   3.224   5.344   2.934  0.1286 -0.8426  1.5466
11371TIP3    H255605   3.289   5.458   3.009 -0.0186  0.9248 -0.9023
11372TIP3   OH255606   3.728   0.803   0.857 -0.0381 -0.3442  0.4318
11372TIP3    H155607   3.637   0.830   0.858 -0.2580 -0.9622 -0.8668
11372TIP3    H255608   3.753   0.805   0.765  1.6115  0.9207  0.8665
11373TIP3   OH255609   3.194   2.256  14.059  0.5143 -0.0615  0.0010
11373TIP3    H155610   3.246   2.337  14.063 -0.6134  0.6921 -0.0471
11373TIP3    H255611   3.193   2.233  13.966  1.2130 -0.3977  0.0684
11374TIP3   OH255612   1.321   6.023  12.846 -0.3124  0.3472  0.2192
11374TIP3    H155613   1.301   6.004  12.938  3.2531  1.8872  1.5098
11374TIP3    H255614   1.397   5.968  12.827 -1.8089 -0.9841 -2.3706
11375TIP3   OH255615   0.242   0.412  17.241 -0.1191  0.0599  0.5150
11375TIP3    H155616   0.297   0.342  17.276  0.7401 -1.5528 -3.4540
11375TIP3    H255617   0.155   0.373  17.232  0.1348 -0.2441 -0.8251
11376TIP3   OH255618   0.355   5.492   5.357 -0.1581  0.9203  0.7495
11376TIP3    H155619   0.443   5.464   5.383  0.7220  1.1106 -1.7475
11376TIP3    H255620   0.313   5.520   5.439  0.7130 -2.6627  2.6509
11377TIP3   OH255621   0.195   5.700  13.308 -0.0299  0.9218 -0.1149
11377TIP3    H155622   0.280   5.669  13.277  0.1055 -0.7958  1.7510
11377TIP3    H255623   0.214   5.748  13.389 -0.7627  1.2172 -0.1017
11378TIP3   OH255624   0.800   3.120   4.835  0.0582  0.5054  0.3114
11378TIP3    H155625   0.821   3.193   4.893  1.1217 -0.5587  1.3139
11378TIP3    H255626   0.859   3.131   4.761  0.7781  0.2234  0.8368
11379TIP3   OH255627   6.337   3.091  16.903  0.2671 -0.2364  0.1612
11379TIP3    H155628   6.352   3.092  16.808 -1.4425 -0.6352 -0.1416
11379TIP3    H255629   6.337   2.998  16.926 -1.0471 -0.2388  0.2278
11380TIP3   OH255630   3.419   6.715   4.284 -0.4250 -0.6070  0.6547
11380TIP3    H155631   3.345   6.654   4.294 -0.9611  0.2300  1.9724
11380TIP3    H255632   3.406   6.780   4.352  0.1633  0.9851 -0.6943
11381TIP3   OH255633   3.679   3.166   1.103  0.3959  0.4841 -0.1335
11381TIP3    H155634   3.598   3.209   1.130  0.0380 -1.1369  1.5689
11381TIP3    H255635   3.697   3.202   1.016 -0.6679  2.8935  0.5437
11382TIP3   OH255636   3.967   2.420   5.574 -0.5979 -0.2191  0.9929
11382TIP3    H155637   3.902   2.366   5.529 -0.2331  0.0512  0.1336
11382TIP3    H255638   4.016   2.358   5.628 -0.5142 -0.6726  0.3995
11383TIP3   OH255639   6.033   1.201  16.697 -0.1452  0.1129  0.5044
11383TIP3    H155640   6.051   1.231  16.608  0.3200 -0.7738  0.2905
11383TIP3    H255641   5.985   1.273  16.737 -1.6003 -0.0263 -0.8947
11384TIP3   OH255642   1.774   0.575   2.036 -0.2171 -0.3569 -0.1029
11384TIP3    H155643   1.714   0.596   1.964 -0.3423  1.8456  0.5602
11384TIP3    H255644   1.722   0.520   2.095 -0.7445 -0.5699 -0.7557
11385TIP3   OH255645   2.655   6.684  11.792  0.3989  0.3082  0.5794
11385TIP3    H155646   2.590   6.636  11.741  1.2361  1.9001 -2.2323
11385TIP3    H255647   2.603   6.738  11.852 -0.6268 -1.5337  1.4695
11386TIP3   OH255648   6.760   2.917  12.042 -0.1152  0.4284 -0.3321
11386TIP3    H155649   6.689   2.937  12.103 -1.1377 -0.5996 -1.1555
11386TIP3    H255650   6.734   2.959  11.960  0.3038  0.1466 -0.6113
11387TIP3   OH255651   0.666   4.639   1.346  0.4177  0.6829 -0.6020
11387TIP3    H155652   0.606   4.665   1.276 -2.1968 -0.8137  0.9359
11387TIP3    H255653   0.707   4.559   1.313  0.5863  0.9760 -1.1263
11388TIP3   OH255654   6.062   5.417  15.708 -0.1853 -0.0793  0.3404
11388TIP3    H155655   6.137   5.465  15.673 -0.1450 -0.1995  0.2639
11388TIP3    H255656   6.002   5.486  15.738 -1.8893  0.2529 -3.2761
11389TIP3   OH255657   0.922   1.640   4.978 -0.1322 -0.0383 -0.2115
11389TIP3    H155658   0.826   1.635   4.977 -0.0934 -1.0657 -0.5518
11389TIP3    H255659   0.941   1.726   5.014 -1.1957  0.4410 -0.7335
11390TIP3   OH255660   3.727   4.868  13.867 -0.4178 -0.0169 -0.1063
11390TIP3    H155661   3.665   4.838  13.934 -1.1509  0.8288 -0.3833
11390TIP3    H255662   3.730   4.795  13.804 -0.8422 -0.2283  0.1105
11391TIP3   OH255663   4.834   6.048  16.383  0.3670  0.1273 -0.2707
11391TIP3    H155664   4.807   6.120  16.325  0.3151  0.3298  0.0015
11391TIP3    H255665   4.787   5.972  16.350  0.0510  0.3186 -0.2696
11392TIP3   OH255666   1.456   4.914   4.729  0.3871  0.2492 -0.2876
11392TIP3    H155667   1.429   4.888   4.641  0.6112 -0.3304 -0.1899
11392TIP3    H255668   1.466   5.009   4.724  2.0003  0.0575 -1.3405
11393TIP3   OH255669   0.154   4.121   5.207  0.3959 -0.1580 -0.4025
11393TIP3    H155670   0.169   4.214   5.194 -0.0077  0.1198  0.9252
11393TIP3    H255671   0.228   4.077   5.164  0.3597  0.7349 -1.4142
11394TIP3   OH255672   6.804   2.289  14.151  0.1532 -0.1800 -0.3571
11394TIP3    H155673   6.877   2.245  14.107  0.2498 -1.4534  1.0086
11394TIP3    H255674   6.840   2.321  14.233 -0.1058  1.8791 -0.9956
11395TIP3   OH255675   6.017   3.990  14.386 -0.4284 -0.2726 -0.2606
11395TIP3    H155676   6.011   3.916  14.447 -2.2033 -0.9015 -1.1405
11395TIP3    H255677   5.927   4.005  14.357  0.2606  0.4996 -2.1702
11396TIP3   OH255678   3.865   2.902   4.562  0.6028  0.1032  0.2012
11396TIP3    H155679   3.881   2.834   4.627  0.0716 -1.2444 -1.0338
11396TIP3    H255680   3.806   2.964   4.606 -1.6078 -1.9547  0.3307
11397TIP3   OH255681   6.769   6.191  15.097  0.5574 -0.2217  0.0665
11397TIP3    H155682   6.852   6.152  15.124 -0.1778 -1.2082  0.9726
11397TIP3    H255683   6.751   6.258  15.163 -0.5523 -1.6985  1.3702
11398TIP3   OH255684   3.450   2.184   2.861  0.5190  0.0639 -0.2569
11398TIP3    H155685   3.391   2.260   2.863  0.6352  0.1732 -0.9312
11398TIP3    H255686   3.536   2.221   2.839  0.1540 -0.5045 -3.0250
11399TIP3   OH255687   0.230   0.508   0.741 -0.4250  0.6666 -0.2663
11399TIP3    H155688   0.255   0.452   0.815 -0.6205 -1.7510 -1.9287
11399TIP3    H255689   0.305   0.567   0.730  1.2597 -1.3595 -0.3756
11400TIP3   OH255690   3.259   5.290  13.044 -0.4572  0.8770  0.1672
11400TIP3    H155691   3.251   5.199  13.073  0.1868  1.2493  1.6412
11400TIP3    H255692   3.227   5.341  13.119  1.4011  1.9088  0.3051
11401TIP3   OH255693   3.486   5.121   2.989 -0.0241 -0.1928 -0.0984
11401TIP3    H155694   3.544   5.162   3.053 -1.0908  0.4400  0.4911
11401TIP3    H255695   3.477   5.186   2.919 -2.8363  1.3037  1.4866
11402TIP3   OH255696   6.540   1.066  14.931 -0.2687  0.6180 -0.0346
11402TIP3    H155697   6.468   1.126  14.945 -1.0406 -0.3331  0.1839
11402TIP3    H255698   6.580   1.055  15.017 -0.3881  0.4960  0.0052
11403TIP3   OH255699   2.689   4.923   1.015  0.2113  0.5676 -0.0429
11403TIP3    H155700   2.663   4.832   1.027  0.3531  0.6389  0.8072
11403TIP3    H255701   2.679   4.937   0.921 -1.0908  0.0687 -0.0077
11404TIP3   OH255702   5.812   1.810  14.139 -0.6176 -0.7873  0.6024
11404TIP3    H155703   5.747   1.879  14.155  0.5694  0.8708 -1.1682
11404TIP3    H255704   5.873   1.817  14.212 -0.8475 -0.3878  0.7596
11405TIP3   OH255705   1.988   0.647  14.326  0.3336 -0.0898  0.2682
11405TIP3    H155706   1.988   0.622  14.418  2.1463  1.1454  0.6474
11405TIP3    H255707   2.061   0.708  14.317 -1.1979  1.6249 -1.5084
11406TIP3   OH255708   6.230   1.012  16.676 -0.9395  0.3180 -0.1636
11406TIP3    H155709   6.160   1.077  16.687 -1.7911 -0.4779 -0.7196
11406TIP3    H255710   6.311   1.060  16.695 -1.5365  1.5807 -0.7003
11407TIP3   OH255711   3.312   2.677  13.318 -0.3330 -0.5367  0.5863
11407TIP3    H155712   3.267   2.697  13.400  1.0299 -0.8269  1.4523
11407TIP3    H255713   3.349   2.590  13.332  0.2208 -0.4432 -0.1943
11408TIP3   OH255714   5.074   3.087   4.869 -0.1472  0.2589 -0.3829
11408TIP3    H155715   5.103   3.113   4.781  1.7712  0.6105  0.3240
11408TIP3    H255716   5.150   3.100   4.925 -1.0207 -0.9473  1.1710
11409TIP3   OH255717   2.247   1.931   0.491 -0.1699 -0.5515  0.3250
11409TIP3    H155718   2.299   1.853   0.506  0.1108 -0.2873  0.7605
11409TIP3    H255719   2.302   2.003   0.521 -0.2339 -0.1409 -0.5210
11410TIP3   OH255720   2.991   2.315  12.805  0.0990 -0.2579 -0.4528
11410TIP3    H155721   3.074   2.362  12.810 -0.1395  0.3988 -2.1921
11410TIP3    H255722   2.963   2.308  12.897  1.2878  0.8972  0.0363
11411TIP3   OH255723   0.691   2.141   0.048  0.5651 -0.5665  0.7127
11411TIP3    H155724   0.605   2.131   0.088 -0.0046  1.7148  0.2251
11411TIP3    H255725   0.753   2.130   0.120 -0.0415 -2.7533  0.9806
11412TIP3   OH255726   0.402   2.556   5.466 -0.3251 -0.2244 -0.0614
11412TIP3    H155727   0.449   2.568   5.384  2.1091  2.7113  1.5111
11412TIP3    H255728   0.316   2.596   5.451  0.3412  0.9081 -1.0325
11413TIP3   OH255729   0.418   3.607   4.938  0.3574 -0.0970  0.4992
11413TIP3    H155730   0.403   3.519   4.973 -0.1507 -1.2562 -2.3372
11413TIP3    H255731   0.333   3.650   4.945  0.5214  0.0768  1.5868
11414TIP3   OH255732   3.128   3.674  10.186 -0.0484  0.5506 -0.7505
11414TIP3    H155733   3.218   3.689  10.215  0.2662  1.2625 -2.0473
11414TIP3    H255734   3.075   3.730  10.242  0.4163  0.8999 -0.6583
11415TIP3   OH255735   2.997   1.889   5.387  0.4718 -0.0017  0.9310
11415TIP3    H155736   3.048   1.856   5.313 -0.6179  2.4964 -1.0852
11415TIP3    H255737   2.996   1.816   5.449 -0.0082 -2.9568 -2.2073
11416TIP3   OH255738   0.102   6.643  15.764  0.0088 -0.4458 -0.3123
11416TIP3    H155739   0.155   6.624  15.842 -1.3024  1.6560  1.2051
11416TIP3    H255740   0.158   6.618  15.690  1.2901 -2.5518  1.2739
11417TIP3   OH255741   0.484   2.629   0.149 -0.8748  0.2145 -0.0701
11417TIP3    H155742   0.394   2.604   0.126 -0.8873  0.0592  0.1385
11417TIP3    H255743   0.486   2.625   0.245 -0.6711  0.3056 -0.0707
11418TIP3   OH255744   2.244   3.850  13.193 -0.3288 -0.4166 -0.9564
11418TIP3    H155745   2.314   3.827  13.131 -0.0580  1.5401 -1.4320
11418TIP3    H255746   2.208   3.931  13.159 -0.6971  0.3054  1.0481
11419TIP3   OH255747   5.110   6.454  13.976 -0.1173  0.1930 -0.7517
11419TIP3    H155748   5.093   6.508  14.053 -1.6277  0.0727 -0.9665
11419TIP3    H255749   5.169   6.506  13.922 -0.1625  0.8685 -0.1640
11420TIP3   OH255750   2.642   2.027   5.815 -0.1573 -0.0031 -0.8633
11420TIP3    H155751   2.639   2.049   5.722 -2.9243  1.9137 -0.4288
11420TIP3    H255752   2.570   2.076   5.854  1.3141 -0.2126  2.4460
11421TIP3   OH255753   0.831   2.436   2.333 -0.4702 -0.3041 -0.3107
11421TIP3    H155754   0.897   2.506   2.334 -0.2874 -0.4558  1.1390
11421TIP3    H255755   0.768   2.462   2.400 -0.5642 -1.3623  0.0359
11422TIP3   OH255756   6.058   0.100  12.382 -0.0026 -0.0338  0.1325
11422TIP3    H155757   6.040   0.141  12.466  0.8877 -1.1660  0.9070
11422TIP3    H255758   6.031   0.009  12.393 -1.8060  0.2410 -1.5029
11423TIP3   OH255759   6.440   1.270  16.916  0.1566  0.2348 -0.1985
11423TIP3    H155760   6.523   1.273  16.963 -0.1617  1.4004  0.3230
11423TIP3    H255761   6.464   1.247  16.826  0.7016 -3.0425  0.6332
11424TIP3   OH255762   2.775   3.967  15.260 -0.0521  0.5972  0.2106
11424TIP3    H155763   2.806   3.892  15.310 -1.7265  0.9479  1.8763
11424TIP3    H255764   2.682   3.949  15.246 -0.7480  2.8086  1.5707
11425TIP3   OH255765   1.631   3.750   4.450 -0.7334 -0.3424 -0.6388
11425TIP3    H155766   1.563   3.764   4.385 -1.3251  0.3584  0.1118
11425TIP3    H255767   1.589   3.699   4.519 -1.2694  2.0687  0.9622
11426TIP3   OH255768   5.359   6.710  15.817 -0.0254 -0.2342 -0.2166
11426TIP3    H155769   5.378   6.666  15.900  0.7054  3.3788  1.7300
11426TIP3    H255770   5.341   6.638  15.756 -0.7440 -3.1156  3.0278
11427TIP3   OH255771   2.652   0.588   1.656  0.6168  0.5161  0.2731
11427TIP3    H155772   2.683   0.575   1.746 -0.8277 -0.5824  0.6538
11427TIP3    H255773   2.627   0.680   1.652 -1.0776  0.1505  1.6124
11428TIP3   OH255774   3.117   0.846  12.222 -0.2721  0.0438 -0.4844
11428TIP3    H155775   3.186   0.783  12.242  0.0543  0.8998  1.3208
11428TIP3    H255776   3.060   0.845  12.300 -1.1613  0.8137 -1.0956
11429TIP3   OH255777   4.730   3.036   3.543  0.0656  0.2326  0.6787
11429TIP3    H155778   4.767   3.098   3.605  2.0607 -0.7851  0.5968
11429TIP3    H255779   4.637   3.034   3.564  0.0818  2.5371  1.2601
11430TIP3   OH255780   0.690   5.219  10.278 -0.1794  0.1302  0.1546
11430TIP3    H155781   0.717   5.306  10.309  2.4375 -0.7557  0.5946
11430TIP3    H255782   0.766   5.163  10.293 -1.3934 -2.0217 -1.1458
11431TIP3   OH255783   5.879   0.555   3.726  0.2750  0.7283 -0.0352
11431TIP3    H155784   5.925   0.491   3.781  0.2643  0.5045 -0.2876
11431TIP3    H255785   5.878   0.515   3.639 -0.9060  0.4689  0.0816
11432TIP3   OH255786   3.149   0.860   2.131 -0.6032 -0.2058  0.2256
11432TIP3    H155787   3.226   0.808   2.151 -1.1281 -0.7708  0.8279
11432TIP3    H255788   3.092   0.801   2.083 -0.2133  0.5399 -1.2045
11433TIP3   OH255789   4.552   6.004   5.002 -0.1445  0.5026 -0.2903
11433TIP3    H155790   4.609   5.941   4.956  0.2948 -0.6565  1.7366
11433TIP3    H255791   4.464   5.982   4.972 -0.1030 -1.7491  1.0305
11434TIP3   OH255792   6.246   2.251  12.927  0.3581 -0.0350  0.4386
11434TIP3    H155793   6.256   2.208  13.011 -0.0607  1.6702  1.3999
11434TIP3    H255794   6.152   2.245  12.908  0.3886 -0.0477  0.2848
11435TIP3   OH255795   6.164   4.888  13.654  0.4300  0.4431 -0.1695
11435TIP3    H155796   6.156   4.793  13.647 -1.2084  0.5999 -0.9365
11435TIP3    H255797   6.163   4.905  13.748  0.7001 -0.2767 -0.0251
11436TIP3   OH255798   3.232   3.070   2.914  0.0408  0.4949  0.8044
11436TIP3    H155799   3.282   2.989   2.926  2.2086  1.5595 -0.3797
11436TIP3    H255800   3.299   3.138   2.913 -1.8126  2.5112  3.1462
11437TIP3   OH255801   5.564   3.544  12.589  0.5963  0.6380 -0.3641
11437TIP3    H155802   5.493   3.502  12.636 -0.7091  1.1105 -1.7993
11437TIP3    H255803   5.549   3.638  12.602  1.5942  0.7293  0.1922
11438TIP3   OH255804   1.812   1.102  14.679  0.1359  0.6587 -0.8063
11438TIP3    H155805   1.740   1.059  14.725  1.1869 -0.0050  0.2600
11438TIP3    H255806   1.778   1.189  14.658 -0.8539  0.4818 -0.0141
11439TIP3   OH255807   1.334   2.560  15.172  0.1513  0.3866 -0.5474
11439TIP3    H155808   1.244   2.579  15.144 -0.0505 -0.6946 -0.6557
11439TIP3    H255809   1.378   2.529  15.092  0.0145 -1.1759 -0.0421
11440TIP3   OH255810   0.679   2.537  15.691 -0.0610 -0.3288  0.5907
11440TIP3    H155811   0.669   2.593  15.614  1.4144 -1.3057 -0.3781
11440TIP3    H255812   0.590   2.508  15.712 -0.4823 -0.1609 -0.8557
11441TIP3   OH255813   4.869   0.474   4.411  0.7534  0.1907  0.0523
11441TIP3    H155814   4.809   0.417   4.362  0.5474 -1.0905  1.6923
11441TIP3    H255815   4.899   0.539   4.347 -0.1630 -0.8754 -1.5217
11442TIP3   OH255816   3.788   3.911   3.445 -0.1166  0.1981 -0.3146
11442TIP3    H155817   3.798   3.890   3.352  0.2097  1.6641 -0.6457
11442TIP3    H255818   3.826   3.836   3.490  2.5047  0.7077 -1.4275
11443TIP3   OH255819   5.333   1.735   4.284 -0.0498  0.2219 -0.4066
11443TIP3    H155820   5.292   1.669   4.228 -1.4696  0.5059  0.2541
11443TIP3    H255821   5.396   1.687   4.337 -0.1352 -0.3804 -0.8478
11444TIP3   OH255822   4.261   6.057  12.753  0.1284 -0.3736  0.0448
11444TIP3    H155823   4.174   6.041  12.791  0.3953 -1.4086  0.2389
11444TIP3    H255824   4.290   6.139  12.794 -0.3561 -0.5194  0.7049
11445TIP3   OH255825   3.095   2.687   2.833 -0.0640 -0.0815  0.5898
11445TIP3    H155826   3.135   2.715   2.916  0.6685  1.2329 -0.1715
11445TIP3    H255827   3.001   2.699   2.847 -0.1659 -1.9619  1.9509
11446TIP3   OH255828   5.566   6.031  15.443 -0.1723  0.0763 -0.0013
11446TIP3    H155829   5.647   6.082  15.442 -0.5876  0.7798  0.7888
11446TIP3    H255830   5.574   5.972  15.368  1.6346 -0.7619  0.7834
11447TIP3   OH255831   2.231   4.499  11.385  0.5675 -0.3869 -0.3868
11447TIP3    H155832   2.261   4.447  11.460 -1.2465 -1.5801 -0.4322
11447TIP3    H255833   2.213   4.586  11.422  0.8872 -0.5993  0.2914
11448TIP3   OH255834   5.663   1.399   1.336 -0.8971 -0.0179 -0.1379
11448TIP3    H155835   5.578   1.359   1.355 -0.9985  0.7992  1.2603
11448TIP3    H255836   5.721   1.325   1.319 -0.8763 -0.9216  3.2034
11449TIP3   OH255837   2.340   2.089   1.829 -0.2810 -0.0411 -0.6775
11449TIP3    H155838   2.348   2.153   1.900 -0.6882  0.3482 -0.9752
11449TIP3    H255839   2.414   2.030   1.841  0.1300  0.5193 -0.4294
11450TIP3   OH255840   0.569   5.723  14.013 -0.2887 -0.0050 -1.0208
11450TIP3    H155841   0.516   5.658  14.060  0.9609 -1.2577 -1.2687
11450TIP3    H255842   0.505   5.779  13.969 -1.4280 -0.2594  0.2660
11451TIP3   OH255843   5.344   2.939   5.338  0.0918 -0.8640  0.1155
11451TIP3    H155844   5.359   2.850   5.307  0.1418 -0.5892 -0.6658
11451TIP3    H255845   5.286   2.978   5.273  0.6564 -0.0923  0.0599
11452TIP3   OH255846   1.846   4.037  16.491 -0.1405  0.0562  0.5486
11452TIP3    H155847   1.773   4.096  16.470  0.2274  0.2989 -0.0695
11452TIP3    H255848   1.854   3.982  16.414 -0.3632 -0.6966  1.0511
11453TIP3   OH255849   5.760   6.484  15.121 -0.4097 -0.8259 -0.2963
11453TIP3    H155850   5.842   6.532  15.106 -0.5574 -0.7141 -0.7757
11453TIP3    H255851   5.699   6.551  15.152 -0.1767 -1.0084  0.5737
11454TIP3   OH255852   3.296   4.909   4.217 -0.1299  0.0075 -0.1355
11454TIP3    H155853   3.357   4.982   4.206 -1.4859  1.0135 -1.3060
11454TIP3    H255854   3.300   4.889   4.310 -0.1169  1.9555  0.3303
11455TIP3   OH255855   2.020   4.945   2.396  0.2308 -0.1189  0.8970
11455TIP3    H155856   1.926   4.958   2.406  0.1354  0.4630 -0.5356
11455TIP3    H255857   2.033   4.850   2.406 -0.7854 -0.4713 -0.7946
11456TIP3   OH255858   0.861   0.104   3.747 -0.0031 -0.1600  0.0710
11456TIP3    H155859   0.780   0.079   3.791 -1.4733  1.9610 -1.2448
11456TIP3    H255860   0.858   0.199   3.742  2.2298 -0.0678 -0.6825
11457TIP3   OH255861   2.425   2.348   1.711 -0.0772  0.0817 -0.3742
11457TIP3    H155862   2.370   2.354   1.634  0.2795  0.2283 -0.6212
11457TIP3    H255863   2.399   2.266   1.753 -0.0316 -0.1784 -0.8429
11458TIP3   OH255864   5.166   6.578   4.457  0.2685 -0.1394  0.2897
11458TIP3    H155865   5.112   6.656   4.445  1.1164  0.0874 -2.9153
11458TIP3    H255866   5.251   6.611   4.485  0.0303 -0.1452  1.0591
11459TIP3   OH255867   2.069   2.102  13.551 -0.1390  0.3786  0.0870
11459TIP3    H155868   2.090   2.059  13.634  1.4574  2.2093  0.7147
11459TIP3    H255869   1.975   2.117  13.555 -0.3291 -0.8319  0.9006
11460TIP3   OH255870   6.813   2.412  15.330  0.0366 -0.1504  0.4718
11460TIP3    H155871   6.875   2.466  15.281 -0.0075  0.6326  1.2494
11460TIP3    H255872   6.729   2.456  15.319  0.1398  0.4184  1.7635
11461TIP3   OH255873   0.714   6.807   5.000 -0.0568  0.2440 -0.4053
11461TIP3    H155874   0.686   6.717   5.010 -0.5562  0.6343  2.6388
11461TIP3    H255875   0.808   6.801   4.981 -0.1449 -0.8991 -0.5231
11462TIP3   OH255876   1.464   0.583   4.593  0.5099 -0.3428  0.8935
11462TIP3    H155877   1.432   0.545   4.675 -2.5462  1.0985  0.5033
11462TIP3    H255878   1.421   0.532   4.524  1.6607 -0.4088  0.1978
11463TIP3   OH255879   1.296   2.916  12.679  1.5647 -0.1828  0.2825
11463TIP3    H155880   1.276   2.956  12.763  0.2456  1.9049 -0.9270
11463TIP3    H255881   1.326   2.828  12.701  3.1189  0.8892  3.0263
11464TIP3   OH255882   2.236   1.133   1.640 -0.0271 -0.2150 -0.4897
11464TIP3    H155883   2.158   1.161   1.688  0.6396 -0.8929  1.0572
11464TIP3    H255884   2.213   1.047   1.606  0.1260 -0.5331  0.1962
11465TIP3   OH255885   2.718   0.513  14.427 -0.4155  0.1434  0.0732
11465TIP3    H155886   2.793   0.569  14.405  0.4652 -1.2376 -0.5603
11465TIP3    H255887   2.714   0.516  14.523  0.4016  0.2956  0.1121
11466TIP3   OH255888   5.928   1.478   3.704 -0.1643 -0.1153 -0.2645
11466TIP3    H155889   5.977   1.547   3.659  0.9749 -0.0720  0.9733
11466TIP3    H255890   5.837   1.506   3.701  0.1873  1.0178 -0.5295
11467TIP3   OH255891   2.017   0.972   6.646 -0.7300 -0.5151  0.2563
11467TIP3    H155892   2.009   0.936   6.558 -2.9426 -0.4218  0.3481
11467TIP3    H255893   2.088   0.923   6.687  0.8899 -0.0312 -1.7867
11468TIP3   OH255894   6.056   6.048   0.430  0.4606 -0.0955 -0.2745
11468TIP3    H155895   6.074   5.957   0.408  0.0790 -0.4540  0.8240
11468TIP3    H255896   5.974   6.069   0.384  1.0977  0.0440 -1.3853
11469TIP3   OH255897   6.353   3.676   0.853  0.3677  0.1928  0.2810
11469TIP3    H155898   6.358   3.592   0.899 -0.4248 -0.3859 -0.6601
11469TIP3    H255899   6.442   3.691   0.820  0.5491 -0.1891  0.5934
11470TIP3   OH255900   1.579   0.133   0.227 -0.4255 -0.1822  0.0373
11470TIP3    H155901   1.589   0.184   0.307 -0.7921 -0.0637  0.0116
11470TIP3    H255902   1.518   0.063   0.251 -0.9924  0.1924 -0.2897
11471TIP3   OH255903   0.877   5.682   0.510 -0.6927 -0.0829  0.1929
11471TIP3    H155904   0.804   5.660   0.568 -1.4457  0.0007 -0.6980
11471TIP3    H255905   0.900   5.772   0.533  0.0398 -0.5654  1.4039
11472TIP3   OH255906   4.815   5.208  13.250  0.9691  0.3362 -0.1883
11472TIP3    H155907   4.848   5.123  13.281  0.0547 -0.5359 -1.5056
11472TIP3    H255908   4.723   5.209  13.277  0.7592  0.5417 -0.8981
11473TIP3   OH255909   1.492   4.409   3.200  0.3132 -0.0415 -0.4701
11473TIP3    H155910   1.539   4.485   3.234 -1.3915  1.2999 -0.9919
11473TIP3    H255911   1.547   4.377   3.128  1.0930  0.6440 -0.1919
11474TIP3   OH255912   0.881   1.814   1.076 -0.0377  0.7792  0.3027
11474TIP3    H155913   0.869   1.791   0.984 -1.9091  1.0222  0.4590
11474TIP3    H255914   0.812   1.767   1.122 -0.2040  2.0152  1.3679
11475TIP3   OH255915   3.671   1.192   1.825 -0.0048 -0.1026 -0.1881
11475TIP3    H155916   3.684   1.283   1.854  3.0319 -0.4161 -0.1612
11475TIP3    H255917   3.674   1.141   1.906 -1.0761 -0.2857 -0.2590
11476TIP3   OH255918   3.950   2.645   1.043 -0.3276  0.1797 -0.1113
11476TIP3    H155919   3.921   2.597   1.120 -1.1126  0.9270  0.0821
11476TIP3    H255920   3.919   2.592   0.969 -0.0014 -0.2888  0.0832
11477TIP3   OH255921   2.736   2.294   2.213  0.2899  0.4545  0.6787
11477TIP3    H155922   2.824   2.269   2.184 -0.1112 -0.5478  0.2678
11477TIP3    H255923   2.681   2.284   2.135 -0.9525 -3.0002  1.7743
11478TIP3   OH255924   6.722   0.601   2.187  0.0507  0.1317 -0.0134
11478TIP3    H155925   6.773   0.551   2.123 -0.3920 -0.0147 -0.2508
11478TIP3    H255926   6.707   0.540   2.259 -1.8341 -0.6041 -0.9744
11479TIP3   OH255927   5.056   3.558  15.596 -0.3501 -0.3064  0.6699
11479TIP3    H155928   5.031   3.562  15.503  1.9263 -1.8802 -0.0853
11479TIP3    H255929   5.055   3.650  15.624 -3.1150  0.0649 -0.2432
11480TIP3   OH255930   5.916   0.106   2.591 -0.6782  0.0477  0.0379
11480TIP3    H155931   5.857   0.104   2.666 -0.9771  1.9998 -0.0722
11480TIP3    H255932   5.960   0.191   2.598  1.0334 -0.7490 -0.7059
11481TIP3   OH255933   6.663   5.526   4.286 -0.0148  0.6243  0.4280
11481TIP3    H155934   6.715   5.572   4.220  0.1524  0.7278  0.6289
11481TIP3    H255935   6.583   5.500   4.240  1.1593 -1.5863 -0.5584
11482TIP3   OH255936   2.645   0.095   1.790  0.0989  0.4816 -0.4483
11482TIP3    H155937   2.695   0.013   1.787  0.3799  0.6669 -2.4015
11482TIP3    H255938   2.704   0.158   1.831 -0.6909 -0.5828  2.5724
11483TIP3   OH255939   6.351   3.511  14.675 -0.3732  0.3947 -0.2901
11483TIP3    H155940   6.272   3.478  14.718 -0.3714  0.3081 -0.3515
11483TIP3    H255941   6.394   3.432  14.642  0.3552  0.3204  0.7827
11484TIP3   OH255942   6.603   2.061   0.546 -0.0016 -0.0933 -0.8595
11484TIP3    H155943   6.580   2.000   0.616 -2.5546 -1.1883 -2.4928
11484TIP3    H255944   6.543   2.039   0.475  0.3786  2.9788 -2.2926
11485TIP3   OH255945   5.567   3.377   0.603 -0.1371 -0.4506  0.0451
11485TIP3    H155946   5.593   3.285   0.592 -2.1755 -0.8310 -2.3103
11485TIP3    H255947   5.522   3.400   0.522  1.8537  3.2417 -0.2629
11486TIP3   OH255948   0.108   5.521  14.595  0.6845 -0.1557  0.0648
11486TIP3    H155949   0.102   5.510  14.689 -0.7268 -0.2803 -0.0191
11486TIP3    H255950   0.051   5.595  14.575  0.0181 -0.8856 -0.8132
11487TIP3   OH255951   1.431   5.471   1.435 -0.1640  0.6026  0.9584
11487TIP3    H155952   1.339   5.462   1.462 -0.4986 -0.2827 -0.4161
11487TIP3    H255953   1.470   5.386   1.452 -1.1039 -1.0724 -3.7650
11488TIP3   OH255954   4.915   5.644  10.314 -0.6961 -0.0248 -0.1685
11488TIP3    H155955   4.937   5.692  10.394  0.3798  0.5893 -0.7988
11488TIP3    H255956   4.839   5.692  10.278  0.9076  1.8754 -1.2633
11489TIP3   OH255957   1.829   0.645  16.234  0.1189 -0.0054  0.0676
11489TIP3    H155958   1.922   0.658  16.217 -0.0887  0.5017 -0.7070
11489TIP3    H255959   1.819   0.550  16.241  0.6208 -0.0890 -0.3042
11490TIP3   OH255960   6.618   2.708   3.209 -0.0797  0.4232  0.5640
11490TIP3    H155961   6.651   2.795   3.231 -1.2158  0.8811  0.5366
11490TIP3    H255962   6.581   2.674   3.291 -2.6198  1.3597 -0.1045
11491TIP3   OH255963   5.294   6.244   4.197  0.2182 -0.7994  0.6872
11491TIP3    H155964   5.329   6.189   4.267 -1.7049 -2.6624  0.2853
11491TIP3    H255965   5.220   6.290   4.237  1.6187  1.4045  0.9352
11492TIP3   OH255966   3.179   3.226  15.132  0.0082 -0.3103  0.0074
11492TIP3    H155967   3.191   3.177  15.051 -0.3790  0.5801 -0.6073
11492TIP3    H255968   3.253   3.200  15.187  1.1546  0.2341 -1.2178
11493TIP3   OH255969   5.393   2.910   2.776  0.1723 -0.1520  0.4848
11493TIP3    H155970   5.306   2.871   2.778  0.2179 -0.2472  0.6296
11493TIP3    H255971   5.436   2.869   2.701  0.5603 -1.1225  1.2074
11494TIP3   OH255972   5.401   4.057  16.182 -0.1970  0.0638 -0.5873
11494TIP3    H155973   5.327   4.048  16.122  0.2259 -2.2058 -0.8680
11494TIP3    H255974   5.444   3.972  16.179  0.2922  0.1228  2.3783
11495TIP3   OH255975   4.004   2.720   3.917 -0.1504 -0.3519 -0.1735
11495TIP3    H155976   4.099   2.724   3.925 -0.0671  0.5445 -1.2661
11495TIP3    H255977   3.972   2.789   3.975 -0.1647 -0.8985  0.4778
11496TIP3   OH255978   5.793   5.654   1.843 -0.0707  0.6000 -0.8408
11496TIP3    H155979   5.810   5.617   1.757 -0.5429  0.3815 -0.8411
11496TIP3    H255980   5.856   5.725   1.851  1.4840 -0.7791 -0.4492
11497TIP3   OH255981   3.523   4.206   1.234  0.2263 -0.4471  0.3178
11497TIP3    H155982   3.533   4.116   1.203  2.1210 -0.4309  0.7754
11497TIP3    H255983   3.612   4.240   1.237 -0.4180  1.2981  0.6304
11498TIP3   OH255984   3.612   2.529   1.147 -0.5596  0.1036 -0.1526
11498TIP3    H155985   3.573   2.444   1.166 -0.1723 -0.5073 -1.9165
11498TIP3    H255986   3.703   2.521   1.175 -0.6473  0.1291  0.1485
11499TIP3   OH255987   1.900   0.723  12.158  0.1179 -0.6481 -0.2574
11499TIP3    H155988   1.934   0.800  12.111  1.5853 -0.9908  0.1943
11499TIP3    H255989   1.945   0.649  12.119  0.2134 -1.0901  0.6605
11500TIP3   OH255990   4.838   5.696   2.686 -0.5769  0.6243 -0.3458
11500TIP3    H155991   4.851   5.718   2.594 -3.4743  0.4459 -0.9163
11500TIP3    H255992   4.838   5.780   2.731 -0.0792  0.7964 -0.6663
11501TIP3   OH255993   1.131   1.405   1.969  0.5018 -0.5014  0.5855
11501TIP3    H155994   1.101   1.453   1.891  2.3923 -1.5665 -0.9025
11501TIP3    H255995   1.065   1.337   1.982 -0.7928  0.7979  1.0751
11502TIP3   OH255996   4.189   2.210  14.746  0.3104 -0.3884 -0.1865
11502TIP3    H155997   4.259   2.161  14.788  0.4977 -0.5391 -0.6694
11502TIP3    H255998   4.231   2.253  14.671  0.0946  0.2961  0.0771
11503TIP3   OH255999   2.703   1.657  16.788  0.4859  0.6020 -0.2634
11503TIP3    H156000   2.725   1.575  16.831  0.5494  1.5911  1.6787
11503TIP3    H256001   2.682   1.632  16.698  1.0968 -1.4431  0.1145
11504TIP3   OH256002   5.190   4.634   0.940 -0.2835 -0.1027 -0.4850
11504TIP3    H156003   5.176   4.636   1.035 -0.8203  0.9644 -0.5718
11504TIP3    H256004   5.241   4.555   0.925 -2.1164 -1.5323  0.4330
11505TIP3   OH256005   6.348   0.678   5.771 -0.3820 -0.0089  0.7144
11505TIP3    H156006   6.260   0.652   5.745 -0.7469  1.6931  0.2014
11505TIP3    H256007   6.406   0.620   5.721 -1.1725 -1.3793  1.3131
11506TIP3   OH256008   0.097   4.153  16.224  0.3293  0.0655 -0.6218
11506TIP3    H156009   0.089   4.082  16.160  1.0143 -1.5270  0.9629
11506TIP3    H256010   0.026   4.213  16.201 -1.0338 -1.7095 -1.3555
11507TIP3   OH256011   4.034   0.278  10.881  0.1225  0.1945 -0.3443
11507TIP3    H156012   3.963   0.237  10.832  0.6698 -0.9832 -0.1712
11507TIP3    H256013   4.093   0.206  10.904  0.9478  1.0297  0.2373
11508TIP3   OH256014   5.989   2.189   5.527 -0.0774  0.4224 -0.1881
11508TIP3    H156015   6.043   2.250   5.578  2.3521 -0.5901 -1.3770
11508TIP3    H256016   5.982   2.111   5.582  2.7226 -0.7523 -1.2737
11509TIP3   OH256017   6.239   1.524  13.338  0.4171 -0.1420  0.3210
11509TIP3    H156018   6.313   1.464  13.344  1.2044  0.7952  0.1151
11509TIP3    H256019   6.248   1.582  13.413 -1.0699 -1.0537  1.2642
11510TIP3   OH256020   6.293   3.098  12.301  0.4952 -0.3625  0.1324
11510TIP3    H156021   6.371   3.154  12.306  1.1917 -1.2028 -0.8594
11510TIP3    H256022   6.320   3.015  12.340 -0.3012 -0.2541  0.9210
11511TIP3   OH256023   2.337   2.676  13.463  0.1923  0.4786 -0.0459
11511TIP3    H156024   2.358   2.712  13.377 -0.0846  1.3846  0.2596
11511TIP3    H256025   2.401   2.606  13.476 -1.7290 -1.8776 -2.3366
11512TIP3   OH256026   0.505   4.027  12.602  0.5252  0.0831 -0.4560
11512TIP3    H156027   0.540   4.080  12.530  1.2247 -0.0791 -0.2389
11512TIP3    H256028   0.418   4.000  12.571 -0.2341  2.0753 -0.2103
11513TIP3   OH256029   3.817   6.281   6.567 -0.0211 -0.1955 -0.0419
11513TIP3    H156030   3.806   6.196   6.524 -2.5179 -0.6004  1.2208
11513TIP3    H256031   3.784   6.344   6.503 -0.1646 -0.3979 -0.1718
11514TIP3   OH256032   0.439   4.444   1.338 -0.2932  0.1904  0.3413
11514TIP3    H156033   0.480   4.478   1.259  0.7856  0.6418  1.0659
11514TIP3    H256034   0.372   4.508   1.360 -0.8165 -0.0994 -0.3676
11515TIP3   OH256035   0.316   4.060  11.789  0.9334 -0.0600 -0.2793
11515TIP3    H156036   0.319   3.999  11.863  0.4581  0.2276 -0.0189
11515TIP3    H256037   0.268   4.136  11.822  2.5518  0.9986 -0.1988
11516TIP3   OH256038   6.805   0.179  13.659 -0.1230  0.4087 -0.5828
11516TIP3    H156039   6.846   0.213  13.579 -0.7266  1.0699 -0.6202
11516TIP3    H256040   6.873   0.185  13.725  0.3494 -0.0354 -1.0212
11517TIP3   OH256041   4.563   4.816   1.991  0.5669 -0.6558  0.1591
11517TIP3    H156042   4.587   4.799   1.900 -0.0817 -0.2651 -0.0856
11517TIP3    H256043   4.475   4.780   2.000  0.1133  0.4469  0.2760
11518TIP3   OH256044   2.919   0.020  13.345 -0.7819 -0.4889 -0.4705
11518TIP3    H156045   2.891  -0.072  13.344  0.1812 -0.7954 -0.1452
11518TIP3    H256046   2.962   0.031  13.430 -0.4143  0.1219 -0.7308
11519TIP3   OH256047   3.505   3.366   3.217  0.3076  0.4705 -0.0426
11519TIP3    H156048   3.535   3.296   3.276 -0.2576 -0.1926 -0.5253
11519TIP3    H256049   3.448   3.420   3.272 -0.2395 -0.1625  0.0213
11520TIP3   OH256050   0.670   2.457  14.531  0.1563  0.2116 -0.6091
11520TIP3    H156051   0.627   2.534  14.568  1.4441  1.2013 -1.0940
11520TIP3    H256052   0.674   2.395  14.604 -0.0307  0.9834  0.0777
11521TIP3   OH256053   3.931   2.613  15.757 -0.2495 -0.2081 -0.1789
11521TIP3    H156054   3.896   2.567  15.833 -1.4831 -0.4442 -0.8621
11521TIP3    H256055   3.868   2.683  15.740 -0.7103 -0.9549 -1.7576
11522TIP3   OH256056   5.704   0.786  15.053  0.4576 -0.0152  0.4420
11522TIP3    H156057   5.764   0.743  15.114 -0.0286 -0.6430  0.4930
11522TIP3    H256058   5.701   0.877  15.083  2.9169  0.5319 -0.7845
11523TIP3   OH256059   4.195   2.866  11.251  0.6485 -0.0030  0.0334
11523TIP3    H156060   4.180   2.820  11.168 -0.9861  0.4758  0.0378
11523TIP3    H256061   4.153   2.811  11.317 -0.8192  1.1548  0.1136
11524TIP3   OH256062   0.643   0.806  16.048 -0.2455 -0.3194  0.8270
11524TIP3    H156063   0.693   0.832  16.126 -1.4396  2.7894  0.7037
11524TIP3    H256064   0.552   0.806  16.077 -0.7470  1.2745 -0.5852
11525TIP3   OH256065   3.895   2.686  11.271 -0.0149  0.2436 -0.4193
11525TIP3    H156066   3.962   2.712  11.333  0.9447 -2.1633 -0.3295
11525TIP3    H256067   3.817   2.671  11.324  0.5866 -1.0393  0.1452
11526TIP3   OH256068   6.672   5.240   2.279 -0.0737 -0.6478 -0.5864
11526TIP3    H156069   6.654   5.218   2.370 -0.1275 -0.1375 -0.4751
11526TIP3    H256070   6.710   5.327   2.282  2.1969 -1.5590 -0.8327
11527TIP3   OH256071   3.617   1.185  15.683 -0.1547  0.1123 -0.0713
11527TIP3    H156072   3.712   1.195  15.674 -0.3850  1.3736 -1.6257
11527TIP3    H256073   3.601   1.180  15.777  1.1257  3.8802  0.4913
11528TIP3   OH256074   4.988   3.652   2.487  0.2905 -0.2677 -0.0234
11528TIP3    H156075   4.974   3.578   2.546 -0.5135 -1.8325 -2.0397
11528TIP3    H256076   5.065   3.628   2.436 -0.3912 -0.0794 -1.1804
11529TIP3   OH256077   4.366   3.297  14.879  0.3197 -0.4623 -0.5225
11529TIP3    H156078   4.394   3.248  14.802 -0.2459  1.4336 -2.0134
11529TIP3    H256079   4.411   3.255  14.952  1.5724 -1.7681 -1.9786
11530TIP3   OH256080   5.331   4.832   3.409  0.2345  0.1649  0.6407
11530TIP3    H156081   5.323   4.761   3.473 -0.0302 -0.3884 -0.0019
11530TIP3    H256082   5.384   4.898   3.454  0.3032 -0.3432  1.3237
11531TIP3   OH256083   5.746   6.046   1.429 -0.3031  0.5807 -0.6566
11531TIP3    H156084   5.714   5.961   1.459  0.0805  0.0156 -1.8086
11531TIP3    H256085   5.711   6.108   1.493  0.6574 -0.5867  1.1135
11532TIP3   OH256086   5.466   4.721   0.288  0.0142 -0.2389  0.4496
11532TIP3    H156087   5.446   4.731   0.195  0.9080  1.2770  0.3853
11532TIP3    H256088   5.530   4.790   0.306 -0.6473 -0.0655  2.3338
11533TIP3   OH256089   5.258   6.593   1.854  0.5134  0.5014  0.6568
11533TIP3    H156090   5.267   6.501   1.878  0.2517 -0.5697 -2.8764
11533TIP3    H256091   5.345   6.618   1.822 -0.2100  0.3890 -1.5616
11534TIP3   OH256092   3.418   1.041   3.968  0.1827 -0.3247  0.0862
11534TIP3    H156093   3.352   1.105   3.940  0.4793  0.1909  0.5406
11534TIP3    H256094   3.501   1.088   3.959  0.3761 -0.5508  0.7081
11535TIP3   OH256095   6.412   4.580   3.522  0.0922  0.4220 -0.0663
11535TIP3    H156096   6.341   4.520   3.541  1.6971 -1.8207 -0.7644
11535TIP3    H256097   6.436   4.617   3.607  0.7190 -1.9031  0.8322
11536TIP3   OH256098   4.081   2.975  14.143  0.1741  0.9023  0.6379
11536TIP3    H156099   3.993   2.955  14.175 -0.7488 -0.3233 -2.3745
11536TIP3    H256100   4.083   3.071  14.137 -0.2507  1.0688  2.3758
11537TIP3   OH256101   1.189   5.352  14.875  0.0844 -0.1617  0.6790
11537TIP3    H156102   1.210   5.398  14.956 -0.0589  1.5695 -0.2192
11537TIP3    H256103   1.263   5.372  14.817 -0.2628 -0.5996  0.0763
11538TIP3   OH256104   3.316   2.247   2.058 -0.0339  0.2537 -0.3495
11538TIP3    H156105   3.319   2.339   2.084  1.1370 -0.1026  0.8938
11538TIP3    H256106   3.265   2.246   1.977 -1.9542  1.7132  0.7770
11539TIP3   OH256107   1.102   4.169  12.871  0.2696  0.4315 -0.3539
11539TIP3    H156108   1.163   4.140  12.939  1.5105 -0.9780 -1.9864
11539TIP3    H256109   1.018   4.131  12.896  0.3759  1.0667  1.0752
11540TIP3   OH256110   3.262   5.235  11.350 -0.0949 -0.1780  0.1273
11540TIP3    H156111   3.289   5.168  11.287  0.7909  1.1197 -0.9463
11540TIP3    H256112   3.225   5.305  11.296  3.0036  2.1147  0.6890
11541TIP3   OH256113   2.396   0.867   2.747  0.4652  0.2784 -0.4134
11541TIP3    H156114   2.491   0.868   2.734  0.5039  1.3159 -0.1251
11541TIP3    H256115   2.372   0.775   2.737  1.4454  0.0549 -0.8746
11542TIP3   OH256116   6.516   1.877  16.648  0.4765  0.4522 -0.5747
11542TIP3    H156117   6.484   1.912  16.564  1.4980  0.9569 -0.7735
11542TIP3    H256118   6.478   1.936  16.714  1.4182  1.3959 -0.8449
11543TIP3   OH256119   3.429   1.985  10.849 -0.0544  0.3112  0.4748
11543TIP3    H156120   3.333   1.987  10.840 -0.2123 -2.7588  0.6565
11543TIP3    H256121   3.444   1.970  10.942  0.4175 -2.2381  0.0678
11544TIP3   OH256122   3.922   4.704  12.091  0.5541 -0.4741 -0.1488
11544TIP3    H156123   3.962   4.641  12.151  1.1155 -1.5480 -1.5947
11544TIP3    H256124   3.844   4.735  12.138  2.0615  0.3130  1.9773
11545TIP3   OH256125   3.652   2.049  13.614 -0.2618  0.4823 -0.2554
11545TIP3    H156126   3.737   2.004  13.616  0.4594  1.8027  1.4830
11545TIP3    H256127   3.651   2.095  13.530  1.2533  1.2906  0.1255
11546TIP3   OH256128   5.189   0.145   3.007  0.3187 -0.0549 -0.0519
11546TIP3    H156129   5.269   0.097   3.025  1.8062  2.4202  0.3780
11546TIP3    H256130   5.169   0.191   3.088 -0.3392  0.9911 -0.7764
11547TIP3   OH256131   1.954   0.852  11.929 -0.7156 -0.4310  0.2375
11547TIP3    H156132   1.861   0.868  11.914 -1.5892 -1.7964  3.4178
11547TIP3    H256133   1.976   0.780  11.869 -1.6702 -0.0519 -0.5944
11548TIP3   OH256134   2.635   1.203   5.829 -0.0838 -0.0457 -1.0092
11548TIP3    H156135   2.635   1.108   5.817 -0.7493 -0.0898 -0.6608
11548TIP3    H256136   2.552   1.233   5.792  0.2768  0.4489 -1.4434
11549TIP3   OH256137   4.524   2.251   4.240 -0.2818  0.4212 -0.1717
11549TIP3    H156138   4.541   2.280   4.330  0.5816 -0.4093 -0.0483
11549TIP3    H256139   4.572   2.313   4.186  1.8984 -0.8960  0.1073
11550TIP3   OH256140   0.505   3.092  14.385 -0.3098 -0.1448  0.0749
11550TIP3    H156141   0.533   3.049  14.466 -1.2718 -0.0079  0.4915
11550TIP3    H256142   0.566   3.164  14.373  0.3321 -0.6533  0.2440
11551TIP3   OH256143   3.511   2.866  13.277 -0.4961  0.3344  0.4407
11551TIP3    H156144   3.429   2.818  13.291 -1.1219  0.5603 -1.9131
11551TIP3    H256145   3.508   2.890  13.184  2.4348  0.0186  0.1930
11552TIP3   OH256146   3.434   1.360  11.785 -0.0565 -0.5432 -0.4025
11552TIP3    H156147   3.339   1.353  11.798  0.0425 -0.6298  0.3417
11552TIP3    H256148   3.451   1.454  11.785  0.0872 -0.5162  1.4754
11553TIP3   OH256149   0.756   5.770  12.906  0.3002  0.5553  0.2974
11553TIP3    H156150   0.681   5.828  12.917  0.2706  1.1185 -2.1398
11553TIP3    H256151   0.831   5.823  12.935  0.1486  1.4936 -0.9130
11554TIP3   OH256152   0.713   5.872  16.901 -0.8543  0.6384 -0.3880
11554TIP3    H156153   0.723   5.966  16.892 -1.7431  0.8082  0.2024
11554TIP3    H256154   0.640   5.850  16.843  0.6350 -0.0236 -2.0773
11555TIP3   OH256155   1.429   4.027   1.292  0.2386  0.4359 -0.4914
11555TIP3    H156156   1.358   4.053   1.350 -0.0003  0.8308 -0.9468
11555TIP3    H256157   1.391   3.959   1.236  0.2329  0.6002 -0.6912
11556TIP3   OH256158   0.907   6.608   2.721  0.3631 -0.1092  0.5123
11556TIP3    H156159   0.839   6.619   2.788 -0.7286 -0.7678 -0.4551
11556TIP3    H256160   0.981   6.659   2.754 -0.2376 -0.1859  2.0806
11557TIP3   OH256161   2.340   1.639  13.758  0.6170 -0.6147  0.7818
11557TIP3    H156162   2.426   1.615  13.790  1.2484 -0.3491 -0.6333
11557TIP3    H256163   2.315   1.716  13.810  2.7687  1.4616 -1.0343
11558TIP3   OH256164   0.376   4.899  16.852 -0.2161  0.0698  0.2131
11558TIP3    H156165   0.302   4.839  16.858 -0.1089  0.0334  1.4306
11558TIP3    H256166   0.337   4.983  16.827 -0.3296 -0.5305 -1.8202
11559TIP3   OH256167   0.973   0.460   1.054  0.1105  0.4393 -0.8346
11559TIP3    H156168   1.049   0.467   0.997  2.7166 -4.0198  1.5333
11559TIP3    H256169   0.985   0.530   1.119  1.6009  0.4620 -1.1055
11560TIP3   OH256170   6.687   2.788   1.528  0.2106  0.1621  0.2377
11560TIP3    H156171   6.615   2.788   1.591 -0.1331 -0.2487 -0.1478
11560TIP3    H256172   6.740   2.712   1.553  0.2741  0.2093  0.2479
11561TIP3   OH256173   0.857   2.421   1.851  0.5275 -0.0638  0.6725
11561TIP3    H156174   0.764   2.442   1.844  0.3066 -0.5927  1.7995
11561TIP3    H256175   0.882   2.391   1.763 -0.4240 -0.1714  0.4302
11562TIP3   OH256176   3.895   2.360  13.774  0.2395 -0.0707  0.0456
11562TIP3    H156177   3.935   2.381  13.858  2.0209 -0.9562 -0.5357
11562TIP3    H256178   3.810   2.322  13.797 -0.7163  2.5884  1.2805
11563TIP3   OH256179   0.465   2.628  12.720 -0.0777 -0.0899 -0.6682
11563TIP3    H156180   0.453   2.673  12.637 -0.8392  0.4527 -0.2800
11563TIP3    H256181   0.388   2.571  12.728 -0.3158  0.3040 -0.0630
11564TIP3   OH256182   2.980   3.357   2.863  0.2380  0.2597 -0.2872
11564TIP3    H156183   2.970   3.448   2.893  0.9569  0.0739  0.5363
11564TIP3    H256184   3.061   3.357   2.813  0.1048  0.1212 -0.5039
11565TIP3   OH256185   5.064   0.955  16.845 -0.4364  0.3742 -0.5424
11565TIP3    H156186   5.064   0.908  16.928 -0.5240  0.1994 -0.6414
11565TIP3    H256187   5.006   0.903  16.789  3.4165 -2.4510 -2.3917
11566TIP3   OH256188   2.174   2.299   3.941  0.3589 -0.5946  0.1799
11566TIP3    H156189   2.124   2.231   3.986 -1.1601 -1.0814 -2.1163
11566TIP3    H256190   2.262   2.262   3.932  0.0514 -1.4522  0.6233
11567TIP3   OH256191   1.503   0.159  11.269 -0.1123 -0.3591  0.0855
11567TIP3    H156192   1.494   0.180  11.176 -1.6780  0.7797  0.4383
11567TIP3    H256193   1.594   0.176  11.290 -0.3668  2.2974 -0.6161
11568TIP3   OH256194   4.958   5.113  11.249  0.4309  0.2252 -0.4801
11568TIP3    H156195   5.009   5.132  11.171 -0.5691  4.1124 -0.3917
11568TIP3    H256196   5.015   5.136  11.322 -0.0638  0.7767 -0.2545
11569TIP3   OH256197   4.870   3.367  12.937  0.0655  0.9430  0.0247
11569TIP3    H156198   4.955   3.326  12.924  0.2987  1.1977  0.7625
11569TIP3    H256199   4.808   3.294  12.931 -0.0408  1.1320 -3.8964
11570TIP3   OH256200   4.263   2.899   4.937  0.0359 -0.3757  0.1190
11570TIP3    H156201   4.249   2.812   4.974 -1.8106 -0.1619  0.0104
11570TIP3    H256202   4.217   2.898   4.854  2.1767 -0.0917 -1.1364
11571TIP3   OH256203   6.387   3.767   5.810 -0.1517  0.2834 -0.4529
11571TIP3    H156204   6.417   3.789   5.722 -0.4566 -0.2154 -0.6828
11571TIP3    H256205   6.464   3.781   5.865 -0.4978  2.5656 -0.4745
11572TIP3   OH256206   4.480   2.333  15.445 -0.1681  0.2592  0.1316
11572TIP3    H156207   4.512   2.420  15.425 -0.5883  0.0925 -1.3615
11572TIP3    H256208   4.389   2.332  15.414  0.0829 -0.9544 -0.6467
11573TIP3   OH256209   5.008   2.577  15.134 -0.6907 -0.3534 -0.1546
11573TIP3    H156210   4.924   2.609  15.101 -0.9347 -0.3604  0.4345
11573TIP3    H256211   4.990   2.557  15.226  0.1822  0.5065  0.2170
11574TIP3   OH256212   5.642   1.355  17.151 -0.0047 -0.3437 -0.0128
11574TIP3    H156213   5.716   1.303  17.183 -0.3842 -0.0820  1.3264
11574TIP3    H256214   5.571   1.335  17.211 -1.0106 -0.4922 -1.2132
11575TIP3   OH256215   2.191   2.430   5.911  0.9381  0.0545  0.1258
11575TIP3    H156216   2.277   2.417   5.951  0.9303  1.5674  0.7056
11575TIP3    H256217   2.130   2.427   5.985  0.6497  0.3962 -0.0967
11576TIP3   OH256218   5.170   5.339  12.002  0.3426 -0.3092  0.5247
11576TIP3    H156219   5.088   5.387  11.987  0.0046 -1.3037 -0.9927
11576TIP3    H256220   5.151   5.284  12.079 -0.0000  0.3278  0.9087
11577TIP3   OH256221   1.083   1.540   2.493 -0.2493 -0.3823  0.4618
11577TIP3    H156222   1.163   1.582   2.525 -2.8723  2.0013  4.9015
11577TIP3    H256223   1.070   1.576   2.405  3.2634 -0.6771 -0.3251
11578TIP3   OH256224   6.347   2.803   3.922  0.8233  0.1904  0.1796
11578TIP3    H156225   6.419   2.818   3.984  1.1633 -0.2152 -0.1093
11578TIP3    H256226   6.391   2.782   3.839  0.3853  1.2937 -0.3589
11579TIP3   OH256227   4.789   4.063  17.103  0.0241 -0.0418 -0.6706
11579TIP3    H156228   4.783   4.021  17.017 -2.7650 -0.4331 -0.3525
11579TIP3    H256229   4.803   3.990  17.164  2.0380  0.2395 -0.7149
11580TIP3   OH256230   2.131   6.502  11.069 -0.3211 -0.2874  0.5203
11580TIP3    H156231   2.056   6.507  11.128  1.8798 -3.4281  4.0091
11580TIP3    H256232   2.107   6.435  11.004 -1.5972  0.9966 -0.3987
11581TIP3   OH256233   3.101   1.870  12.060 -0.6587 -0.5673 -0.4862
11581TIP3    H156234   3.149   1.944  12.098 -1.4078  0.4727 -1.5171
11581TIP3    H256235   3.048   1.908  11.990 -1.1279 -2.0724 -0.9970
11582TIP3   OH256236   6.628   2.843   2.784  0.2668  0.1298 -0.1299
11582TIP3    H156237   6.704   2.798   2.748 -0.6070 -1.0968 -0.5153
11582TIP3    H256238   6.595   2.896   2.712  0.1123 -0.2032 -0.3067
11583TIP3   OH256239   1.629   6.390   1.958  0.0961  0.0639  0.1853
11583TIP3    H156240   1.593   6.433   1.880 -0.0183 -0.0947  0.1505
11583TIP3    H256241   1.574   6.421   2.030  1.0139  1.2696  0.4200
11584TIP3   OH256242   6.707   2.609  17.238 -0.4647 -0.1405 -0.1121
11584TIP3    H156243   6.742   2.687  17.280  0.8555  0.8230 -2.7780
11584TIP3    H256244   6.667   2.641  17.157 -3.4992 -1.8055  0.5759
11585TIP3   OH256245   3.378   1.399  13.177 -0.6521 -0.4554  0.3158
11585TIP3    H156246   3.357   1.456  13.103 -0.2006 -0.0428  0.4985
11585TIP3    H256247   3.321   1.429  13.248 -1.1000 -0.8647  0.1381
11586TIP3   OH256248   2.227   4.411  10.889  0.7906  0.6085  0.0212
11586TIP3    H156249   2.146   4.445  10.850  1.3635  0.9474 -0.9008
11586TIP3    H256250   2.197   4.355  10.960 -0.2209  1.9930  0.7529
11587TIP3   OH256251   1.994   2.887  15.963 -0.1834  0.6265  0.1498
11587TIP3    H156252   2.057   2.919  15.899 -0.5363  1.1320  0.0427
11587TIP3    H256253   1.938   2.826  15.915  1.3101 -1.2251  0.6694
11588TIP3   OH256254   5.892   4.696  15.349  0.5098  0.4352  0.4488
11588TIP3    H156255   5.945   4.764  15.391 -0.4908  1.2698  0.3940
11588TIP3    H256256   5.873   4.634  15.419  0.5700  0.7514  0.7511
11589TIP3   OH256257   5.171   3.364   2.877 -0.1283  0.1114  0.4457
11589TIP3    H156258   5.210   3.375   2.790  0.5032 -1.1300  0.5436
11589TIP3    H256259   5.168   3.452   2.914  0.9927  0.4603 -0.2458
11590TIP3   OH256260   1.182   4.709   2.670 -0.0116 -0.2873  0.1417
11590TIP3    H156261   1.186   4.725   2.764  0.7690 -0.2120  0.0998
11590TIP3    H256262   1.201   4.615   2.661 -0.5478 -0.3936  0.0900
11591TIP3   OH256263   4.562   2.969  15.332  0.1168 -0.1579 -0.2638
11591TIP3    H156264   4.552   2.936  15.421  0.5411 -1.3581 -0.6439
11591TIP3    H256265   4.500   2.917  15.280 -1.0202  1.3488 -0.5067
11592TIP3   OH256266   2.670   4.794   3.857  0.3817  0.4015  0.1626
11592TIP3    H156267   2.732   4.781   3.929  0.7325  0.4410 -0.1280
11592TIP3    H256268   2.691   4.724   3.795  1.3034  1.4432 -0.7444
11593TIP3   OH256269   4.587   5.160   0.487 -0.3167  0.0770 -0.0846
11593TIP3    H156270   4.668   5.113   0.506  0.1570  0.7204 -0.4960
11593TIP3    H256271   4.519   5.092   0.490  0.4218 -0.7345 -1.2046
11594TIP3   OH256272   2.523   2.641  10.442  0.5490  0.1049  0.6392
11594TIP3    H156273   2.579   2.711  10.477  0.4837  1.6336 -2.0380
11594TIP3    H256274   2.454   2.687  10.396  0.0509 -1.7577 -0.5755
11595TIP3   OH256275   2.375   1.962  11.198 -0.0712 -0.4713 -0.0891
11595TIP3    H156276   2.443   2.028  11.182 -0.7310  0.0674 -0.7476
11595TIP3    H256277   2.297   1.997  11.153 -1.0064 -0.6919  1.3006
11596TIP3   OH256278   6.421   3.781  14.730 -0.4884  0.1180 -0.9009
11596TIP3    H156279   6.398   3.688  14.727 -1.2901  0.2810 -0.2507
11596TIP3    H256280   6.447   3.802  14.641  0.0668 -0.8200 -0.9755
11597TIP3   OH256281   3.059   0.905   2.415  0.3021  0.1322 -0.4198
11597TIP3    H156282   3.126   0.885   2.350 -0.6947 -1.3340 -1.0333
11597TIP3    H256283   3.064   0.833   2.478  1.0709  1.3897  1.0438
11598TIP3   OH256284   5.581   1.574   6.169 -0.4948  0.6405  0.1425
11598TIP3    H156285   5.507   1.528   6.209 -0.2598  0.9885  1.0194
11598TIP3    H256286   5.653   1.561   6.231  0.8675 -1.6566 -1.7776
11599TIP3   OH256287   6.277   1.675  13.590  0.3954  0.1605  0.3480
11599TIP3    H156288   6.334   1.628  13.651  2.3639  1.5245 -0.3354
11599TIP3    H256289   6.222   1.731  13.646  1.2618  0.4297  0.9496
11600TIP3   OH256290   3.677   0.730   3.360 -0.3985 -0.0751 -0.0526
11600TIP3    H156291   3.582   0.743   3.371 -0.4351 -0.2257 -0.1886
11600TIP3    H256292   3.692   0.741   3.266 -0.0633  1.3253  0.1406
11601TIP3   OH256293   1.273   4.051  14.260  0.3831 -0.1281 -0.5782
11601TIP3    H156294   1.231   4.136  14.250 -0.1122 -0.5253 -2.3006
11601TIP3    H256295   1.204   3.994  14.293  0.8672  0.2363  1.1311
11602TIP3   OH256296   1.633   1.173  15.223  0.3895 -0.0528  1.0339
11602TIP3    H156297   1.550   1.201  15.262  0.3356  0.1903  0.7421
11602TIP3    H256298   1.617   1.082  15.198  0.1929  0.0081  0.9331
11603TIP3   OH256299   3.418   4.172   4.698 -0.2380 -0.0777  0.2193
11603TIP3    H156300   3.348   4.237   4.689 -0.1498 -0.0613 -0.4362
11603TIP3    H256301   3.485   4.217   4.750  1.1660  1.5610 -2.7150
11604TIP3   OH256302   3.860   5.170  14.503  0.0561  0.3664  0.5383
11604TIP3    H156303   3.915   5.223  14.561 -1.2079 -0.7184  2.8733
11604TIP3    H256304   3.917   5.098  14.477  0.6403  0.8484  0.4518
11605TIP3   OH256305   5.539   4.696  12.472  0.1814  0.5958 -0.1083
11605TIP3    H156306   5.465   4.670  12.417  0.8519  0.3730 -0.9299
11605TIP3    H256307   5.600   4.738  12.411 -0.0013  2.3599  0.8381
11606TIP3   OH256308   1.219   5.418   5.442 -0.0027 -0.0321  0.1599
11606TIP3    H156309   1.171   5.498   5.463  2.2332  1.3817  0.1540
11606TIP3    H256310   1.186   5.392   5.356 -0.9044  0.7283  0.2632
11607TIP3   OH256311   4.539   3.996   0.066 -0.3400  0.0413 -0.5250
11607TIP3    H156312   4.493   3.941   0.003 -1.4352  1.6623 -1.2037
11607TIP3    H256313   4.508   4.084   0.048  0.4634  0.7470  1.3194
11608TIP3   OH256314   6.529   0.002  16.364  0.0541 -0.6351  0.3875
11608TIP3    H156315   6.546   0.096  16.374 -1.4510 -0.3265  0.1606
11608TIP3    H256316   6.434  -0.005  16.359  0.0973 -2.2636  1.2619
11609TIP3   OH256317   2.777   5.522   1.252 -0.1206  0.5450  0.5030
11609TIP3    H156318   2.790   5.456   1.320  0.8429  1.2189  0.9885
11609TIP3    H256319   2.688   5.555   1.267  0.4781  1.5149  2.2026
11610TIP3   OH256320   6.698   4.764   2.651  0.1311  0.1629 -0.1117
11610TIP3    H156321   6.717   4.837   2.710  0.8756 -0.6971  0.7567
11610TIP3    H256322   6.734   4.687   2.696 -0.7539 -0.7619 -0.9340
11611TIP3   OH256323   0.118   3.491  16.801  0.2242  0.7381 -0.4532
11611TIP3    H156324   0.121   3.418  16.863  0.8099  1.2441  0.1356
11611TIP3    H256325   0.065   3.558  16.845  0.1512  0.8778 -0.7510
11612TIP3   OH256326   4.552   0.885   4.225 -0.3501 -0.4638  0.1909
11612TIP3    H156327   4.482   0.823   4.204 -0.9815 -1.5587  4.5272
11612TIP3    H256328   4.631   0.844   4.190 -1.3492 -1.2078 -1.3146
11613TIP3   OH256329   5.896   2.394   1.180  0.8833 -1.2264 -0.1983
11613TIP3    H156330   5.918   2.302   1.192  0.5762 -1.3453 -0.5155
11613TIP3    H256331   5.932   2.438   1.257  3.0955 -1.2557 -1.1255
11614TIP3   OH256332   5.576   5.398  14.858  0.0998  0.0194 -0.4017
11614TIP3    H156333   5.481   5.393  14.859  0.0712 -0.0566 -1.7584
11614TIP3    H256334   5.604   5.313  14.823  0.6751  0.0103  0.0635
11615TIP3   OH256335   2.159   5.718  11.968  0.7393  0.1550  0.0866
11615TIP3    H156336   2.104   5.702  12.044  1.3971 -0.9983  0.3354
11615TIP3    H256337   2.249   5.705  12.000  0.9584 -2.5378 -1.3441
11616TIP3   OH256338   3.397   1.061  15.503 -0.0840  0.0703 -0.9297
11616TIP3    H156339   3.452   1.086  15.429  2.6983  0.3681  1.0630
11616TIP3    H256340   3.428   1.115  15.576 -3.6151  0.8085  0.2577
11617TIP3   OH256341   1.661   6.525   4.436  0.3028  0.2603 -0.3490
11617TIP3    H156342   1.710   6.447   4.463 -1.0113 -0.6104 -0.4242
11617TIP3    H256343   1.624   6.502   4.351  0.9928  1.4722 -1.0043
11618TIP3   OH256344   5.428   1.451   5.054 -0.2167 -0.1392 -0.1984
11618TIP3    H156345   5.506   1.505   5.065  0.0922 -0.3733 -1.1663
11618TIP3    H256346   5.364   1.489   5.114 -0.0794  1.4084 -1.0001
11619TIP3   OH256347   0.362   0.825  15.178  0.4910 -0.1957  0.2937
11619TIP3    H156348   0.335   0.917  15.182  1.6530  0.1298  1.4269
11619TIP3    H256349   0.293   0.778  15.226  0.0725  0.1219  0.0126
11620TIP3   OH256350   4.332   2.109  13.653  0.2857 -0.1265 -0.3102
11620TIP3    H156351   4.266   2.049  13.618  0.5299 -0.6909  0.1712
11620TIP3    H256352   4.379   2.057  13.718 -0.4371  0.9963  1.1799
11621TIP3   OH256353   3.769   3.515  14.157  0.2706  0.8204  0.2488
11621TIP3    H156354   3.823   3.504  14.079  0.3764  4.0899 -0.2632
11621TIP3    H256355   3.826   3.489  14.230  0.4953 -1.3080 -0.6186
11622TIP3   OH256356   1.722   6.163   3.821 -0.4524  0.3799 -0.2112
11622TIP3    H156357   1.668   6.160   3.742 -1.4056  0.2530  0.4215
11622TIP3    H256358   1.795   6.104   3.804 -0.8748  0.0323 -0.8303
11623TIP3   OH256359   5.865   5.195  15.387 -0.4618  0.3614  0.4495
11623TIP3    H156360   5.789   5.160  15.433 -1.3171  1.7665  0.1600
11623TIP3    H256361   5.835   5.278  15.351 -0.2126 -1.1079 -3.6327
11624TIP3   OH256362   3.216   3.891   1.079 -0.4416 -0.2579 -0.0098
11624TIP3    H156363   3.266   3.857   1.004  0.2842 -1.3413  0.9366
11624TIP3    H256364   3.125   3.884   1.052 -0.1570  0.1961 -1.1341
11625TIP3   OH256365   2.603   3.697   0.523 -0.1323  0.7472  0.0458
11625TIP3    H156366   2.584   3.752   0.447  2.1096 -1.0317 -1.9292
11625TIP3    H256367   2.559   3.614   0.504  0.8022  0.1415  0.4499
11626TIP3   OH256368   3.790   5.443  13.652  0.4023 -0.0775  0.3109
11626TIP3    H156369   3.795   5.478  13.563 -1.7110  0.7268  0.4460
11626TIP3    H256370   3.761   5.353  13.640  0.5787 -0.1146  0.1626
11627TIP3   OH256371   3.933   6.668   5.682  0.0305  0.1875 -0.8179
11627TIP3    H156372   3.878   6.718   5.743 -2.5666 -2.8695 -0.3519
11627TIP3    H256373   4.016   6.656   5.729 -0.5514  1.0785  0.4975
11628TIP3   OH256374   3.052   4.104  16.046  0.8044  0.0774 -0.4759
11628TIP3    H156375   3.056   4.103  15.951  3.0659 -2.4344 -0.4910
11628TIP3    H256376   3.141   4.128  16.074  1.1105 -2.2365  0.8647
11629TIP3   OH256377   6.415   5.429  10.060 -0.2771  1.0510 -0.5902
11629TIP3    H156378   6.367   5.500  10.103 -0.2865  1.8971 -1.9426
11629TIP3    H256379   6.351   5.359  10.052  0.1694  0.1887  2.2404
11630TIP3   OH256380   4.894   5.239  14.822  0.2355 -0.1172  0.5776
11630TIP3    H156381   4.815   5.209  14.866 -1.5272  0.7119 -1.8118
11630TIP3    H256382   4.895   5.192  14.739  3.2806 -1.4292  1.2311
11631TIP3   OH256383   5.185   6.346  12.985 -0.1089 -0.2521  0.2535
11631TIP3    H156384   5.199   6.263  12.939  0.8288  0.4948 -0.8661
11631TIP3    H256385   5.273   6.375  13.008  0.2473  2.9616 -4.0323
11632TIP3   OH256386   2.956   4.387  11.847  0.0428  0.6587 -0.4813
11632TIP3    H156387   2.884   4.415  11.791  1.3864 -0.0144 -2.6380
11632TIP3    H256388   2.996   4.469  11.877 -2.4537  1.0999  2.0690
11633TIP3   OH256389   2.184   6.534  15.051  0.4497 -0.5864  0.2859
11633TIP3    H156390   2.270   6.531  15.094  0.4940  0.8852  0.3434
11633TIP3    H256391   2.201   6.576  14.967 -0.0380 -1.3343 -0.1970
11634TIP3   OH256392   5.491   0.529  14.619  0.6461 -0.6963 -0.1365
11634TIP3    H156393   5.580   0.550  14.647  0.0051 -0.0300  1.5310
11634TIP3    H256394   5.440   0.527  14.700 -0.9561 -0.5996 -1.1002
11635TIP3   OH256395   5.239   2.454   2.846  0.4467  0.0143 -0.0648
11635TIP3    H156396   5.227   2.374   2.794  1.1253 -1.0880  1.4205
11635TIP3    H256397   5.183   2.443   2.922  1.0165  0.6758  0.4696
11636TIP3   OH256398   1.993   6.512  17.123 -0.3012  0.0270  0.5370
11636TIP3    H156399   2.083   6.484  17.134 -0.6599 -1.0200  0.9376
11636TIP3    H256400   1.993   6.561  17.041 -0.0328 -3.1134 -1.5194
11637TIP3   OH256401   1.322   0.290  14.408  0.4632 -0.5669 -0.5437
11637TIP3    H156402   1.351   0.335  14.328  0.0829  0.0561 -0.3384
11637TIP3    H256403   1.237   0.253  14.385 -0.1943  0.6101 -0.0892
11638TIP3   OH256404   2.216   4.527   1.173  0.1126 -0.2385 -0.0005
11638TIP3    H156405   2.228   4.476   1.093 -0.8361  0.7957 -0.8486
11638TIP3    H256406   2.134   4.575   1.158  0.2387  0.4321  1.3413
11639TIP3   OH256407   0.070   5.099   4.869 -0.4975  0.3085 -0.5570
11639TIP3    H156408   0.159   5.096   4.835 -0.3955  0.9149 -0.3577
11639TIP3    H256409   0.078   5.142   4.954 -0.8837 -0.3173 -0.1987
11640TIP3   OH256410   6.736   6.692   1.264 -0.4554 -0.2971 -0.4860
11640TIP3    H156411   6.710   6.751   1.192  3.3794  1.3604 -0.7144
11640TIP3    H256412   6.804   6.637   1.226  2.3853  1.2545  1.9545
11641TIP3   OH256413   4.171   4.420   0.602  0.4509  0.0339  0.1936
11641TIP3    H156414   4.123   4.501   0.583  1.7984  1.0061  0.8491
11641TIP3    H256415   4.200   4.429   0.692  0.0369 -1.5111  0.5202
11642TIP3   OH256416   6.315   0.527  15.972 -0.0947  0.1174 -0.1347
11642TIP3    H156417   6.278   0.600  16.022 -0.4798 -0.1889  0.0348
11642TIP3    H256418   6.316   0.454  16.034  0.8969  0.1409 -0.1090
11643TIP3   OH256419   2.895   3.621   1.584  0.2206 -0.7582 -0.1559
11643TIP3    H156420   2.892   3.582   1.497  2.0226 -0.5117 -0.3775
11643TIP3    H256421   2.924   3.711   1.569  1.7182 -1.0458  0.7296
11644TIP3   OH256422   0.187   5.733   2.565 -0.5292  0.0770 -0.4074
11644TIP3    H156423   0.267   5.690   2.592 -1.3330 -1.8542 -0.9485
11644TIP3    H256424   0.213   5.823   2.546  1.1646 -0.0714  0.9933
11645TIP3   OH256425   6.236   3.731  13.989  0.8542  0.4292  0.1390
11645TIP3    H156426   6.164   3.717  14.051  0.2619  0.8309 -0.4407
11645TIP3    H256427   6.289   3.652  13.996 -1.8427 -1.8432 -2.3426
11646TIP3   OH256428   6.249   6.669   4.103  0.5929  0.2855 -0.0630
11646TIP3    H156429   6.175   6.626   4.060 -0.1877  0.5165  1.0208
11646TIP3    H256430   6.326   6.619   4.072 -0.0738 -0.4394 -0.6064
11647TIP3   OH256431   3.387   3.324   2.969 -0.3546  0.4044 -0.0771
11647TIP3    H156432   3.424   3.334   3.056  0.8147  2.4748 -0.7506
11647TIP3    H256433   3.430   3.391   2.916 -2.2622  0.3257 -1.8600
11648TIP3   OH256434   3.289   1.048  15.167 -0.0874  0.6698 -0.0809
11648TIP3    H156435   3.295   0.959  15.135 -0.7027 -0.4783  2.7137
11648TIP3    H256436   3.352   1.097  15.113  0.4420 -1.4461 -1.5272
11649TIP3   OH256437   4.271   5.764   4.159 -0.2073  0.2406  0.6179
11649TIP3    H156438   4.281   5.803   4.246  0.1347 -0.0905  0.7283
11649TIP3    H256439   4.205   5.696   4.170 -0.3225  0.3442  0.5704
11650TIP3   OH256440   3.793   4.760   2.433  0.3409 -0.6192 -0.0276
11650TIP3    H156441   3.755   4.771   2.520  0.1372 -0.7826 -0.0967
11650TIP3    H256442   3.775   4.843   2.389 -1.3979 -1.2843 -0.6264
11651TIP3   OH256443   1.456   0.689  16.763 -0.4376  0.5358  0.0649
11651TIP3    H156444   1.476   0.781  16.777 -2.0744  0.6516  2.0129
11651TIP3    H256445   1.371   0.676  16.804 -0.5420 -1.7208 -0.7149
11652TIP3   OH256446   2.820   0.112  17.244 -0.1719 -0.2920  0.7840
11652TIP3    H156447   2.774   0.083  17.322 -2.0958  2.1238  0.6830
11652TIP3    H256448   2.751   0.123  17.178  1.2930 -1.5593 -1.0950
11653TIP3   OH256449   0.989   1.138   6.672 -0.3981  0.1535 -0.0639
11653TIP3    H156450   0.998   1.045   6.649 -0.4346  0.1746 -0.1631
11653TIP3    H256451   0.897   1.149   6.696 -0.4985  0.2662 -0.5045
11654TIP3   OH256452   4.701   1.783  15.191 -0.1815  0.2093 -0.0186
11654TIP3    H156453   4.754   1.808  15.267 -0.2912  0.5869 -0.0644
11654TIP3    H256454   4.707   1.858  15.133  0.2605 -0.2525 -0.5803
11655TIP3   OH256455   6.746   0.105   1.922 -0.0748 -0.2454 -0.3230
11655TIP3    H156456   6.809   0.034   1.924 -0.3905 -0.5408 -0.8610
11655TIP3    H256457   6.707   0.101   1.835  0.2935  0.9317 -0.5591
11656TIP3   OH256458   2.697   0.606  15.349 -0.2252 -0.5058  0.1543
11656TIP3    H156459   2.627   0.659  15.310 -0.6808 -1.1648  0.0707
11656TIP3    H256460   2.746   0.668  15.403 -1.4962 -0.2438  1.0360
11657TIP3   OH256461   1.192   1.873  11.757  0.2410 -0.0397 -0.5203
11657TIP3    H156462   1.106   1.870  11.715 -0.2675  1.5702  0.3042
11657TIP3    H256463   1.206   1.784  11.790 -2.4109  0.2624  1.7677
11658TIP3   OH256464   2.325   0.657  14.027  0.4960 -0.5708  0.8760
11658TIP3    H156465   2.309   0.572  13.986 -0.2400 -0.0416  0.0228
11658TIP3    H256466   2.247   0.709  14.006  1.2983  0.5919  0.6529
11659TIP3   OH256467   1.212   3.368  14.771  0.0973 -0.2764  0.0658
11659TIP3    H156468   1.163   3.372  14.689  1.4068  1.3078 -0.6877
11659TIP3    H256469   1.183   3.287  14.812 -0.4416 -1.2176 -2.0501
11660TIP3   OH256470   1.488   5.820  15.657  0.0648  0.1063 -0.0537
11660TIP3    H156471   1.431   5.897  15.655  0.3499  0.3345  0.4533
11660TIP3    H256472   1.428   5.746  15.655 -0.1987  0.3237 -1.1903
11661TIP3   OH256473   4.292   4.150  11.774  0.3701 -0.2612  0.1379
11661TIP3    H156474   4.350   4.225  11.763 -0.0503 -0.0019 -0.3384
11661TIP3    H256475   4.259   4.157  11.863 -0.9281  1.0423 -0.4053
11662TIP3   OH256476   5.604   6.053   4.539  0.1052 -0.5094 -0.2295
11662TIP3    H156477   5.579   6.066   4.631  3.1095  3.9151  0.2989
11662TIP3    H256478   5.684   6.000   4.544 -1.2265 -2.6695 -0.6710
11663TIP3   OH256479   4.352   5.343  13.630  0.8454  0.0884  0.3580
11663TIP3    H156480   4.428   5.345  13.573 -0.5556  2.0057 -1.6103
11663TIP3    H256481   4.343   5.433  13.663 -1.3557  0.3380 -0.6971
11664TIP3   OH256482   4.278   3.629  15.663 -0.7412  0.4056 -0.0159
11664TIP3    H156483   4.328   3.676  15.596 -1.1612 -0.0127 -0.6294
11664TIP3    H256484   4.187   3.650  15.645 -0.9568 -0.8168 -0.4500
11665TIP3   OH256485   1.341   5.133   1.832  0.2235 -0.6369  0.3860
11665TIP3    H156486   1.297   5.139   1.747  1.4635 -1.0863 -0.3129
11665TIP3    H256487   1.407   5.202   1.830  0.1861 -0.5733  1.0433
11666TIP3   OH256488   1.277   2.709   4.378  0.1058 -0.2318 -0.4674
11666TIP3    H156489   1.315   2.795   4.358 -1.0587  0.2291 -0.8431
11666TIP3    H256490   1.275   2.705   4.473  3.4556 -1.3949 -0.3410
11667TIP3   OH256491   4.003   5.239   0.958  0.2066 -0.1345 -0.1477
11667TIP3    H156492   4.052   5.158   0.972 -0.5262 -0.4584  0.6427
11667TIP3    H256493   4.037   5.299   1.025 -0.8716 -0.5525  0.7928
11668TIP3   OH256494   3.148   4.178   3.344 -0.2595 -0.5159 -0.1157
11668TIP3    H156495   3.200   4.243   3.392 -0.2167  0.0746 -0.9567
11668TIP3    H256496   3.163   4.096   3.392 -0.0466  0.0230  0.7491
11669TIP3   OH256497   2.108   1.577   5.061  0.9431  0.0998 -0.0387
11669TIP3    H156498   2.054   1.500   5.080  0.5421 -0.1874 -2.1227
11669TIP3    H256499   2.190   1.541   5.026  0.8624  0.5905 -0.7565
11670TIP3   OH256500   0.736   6.512  15.133 -0.7492 -0.1340 -0.1801
11670TIP3    H156501   0.757   6.478  15.046  1.0300  0.8277 -0.1629
11670TIP3    H256502   0.797   6.584  15.146 -0.8976 -0.3331  1.9326
11671TIP3   OH256503   4.295   1.034  15.903  0.2309  0.0092 -0.2756
11671TIP3    H156504   4.334   1.109  15.859  0.7821  0.1201  0.3781
11671TIP3    H256505   4.251   0.985  15.834  0.4312  0.5804 -0.8129
11672TIP3   OH256506   6.780   1.418  15.044 -0.4660  0.4078 -0.3180
11672TIP3    H156507   6.848   1.479  15.015  0.5199 -0.2694  0.5021
11672TIP3    H256508   6.747   1.457  15.126  1.4893 -1.0307  1.2528
11673TIP3   OH256509   5.285   4.392  10.413 -0.7082  0.3201  0.0533
11673TIP3    H156510   5.292   4.459  10.345 -1.3662 -0.3652 -0.7096
11673TIP3    H256511   5.211   4.421  10.467 -2.3769 -0.8233 -1.5108
11674TIP3   OH256512   6.119   4.164   0.862 -0.0208 -0.3578  0.0459
11674TIP3    H156513   6.117   4.167   0.767 -1.2507  0.5813  0.0794
11674TIP3    H256514   6.173   4.088   0.883  2.4379  0.8741 -1.3781
11675TIP3   OH256515   0.394   2.879  11.742 -0.1651 -0.1247 -0.8258
11675TIP3    H156516   0.340   2.952  11.709  1.5096  0.9649 -1.2620
11675TIP3    H256517   0.479   2.891  11.699  1.1028 -0.5553  1.4135
11676TIP3   OH256518   4.788   4.736  14.076  0.4864 -0.1860  0.0102
11676TIP3    H156519   4.804   4.830  14.074 -1.1435  0.1862  1.9461
11676TIP3    H256520   4.862   4.700  14.126  0.2807  0.2664  0.6385
11677TIP3   OH256521   4.188   1.328  14.716  0.0359 -0.1955  0.6014
11677TIP3    H156522   4.174   1.378  14.636  0.8742 -0.5154  0.2389
11677TIP3    H256523   4.132   1.251  14.707 -1.0438  0.5240  1.0345
11678TIP3   OH256524   5.103   6.024  16.714  0.0867  0.1254 -0.4491
11678TIP3    H156525   5.089   5.974  16.634 -1.9983  0.4287 -0.3309
11678TIP3    H256526   5.020   6.018  16.761  1.0621  0.4856  1.4088
11679TIP3   OH256527   0.618   3.580  11.293  0.3574  0.6127  0.1188
11679TIP3    H156528   0.638   3.531  11.373  0.6202  1.0147  0.3011
11679TIP3    H256529   0.536   3.626  11.313 -0.9653 -1.2525 -0.7259
11680TIP3   OH256530   6.319   5.943  11.801 -0.6793  0.4276 -0.3945
11680TIP3    H156531   6.370   5.864  11.783 -0.5898  0.8573 -2.2491
11680TIP3    H256532   6.329   5.996  11.721 -0.6162  2.3780  0.8433
11681TIP3   OH256533   3.611   0.818  16.955 -0.0742 -0.2729  0.0340
11681TIP3    H156534   3.579   0.775  17.035  0.5265  0.2069  0.5406
11681TIP3    H256535   3.608   0.749  16.888  1.5086 -1.3362  0.9811
11682TIP3   OH256536   4.478   3.478   2.490  0.1895  0.3911 -0.7164
11682TIP3    H156537   4.544   3.408   2.493  0.3667  0.5681 -0.3315
11682TIP3    H256538   4.506   3.539   2.558 -1.6914 -0.7029  1.1511
11683TIP3   OH256539   4.253   0.431  13.911 -0.1088 -0.0215 -0.5291
11683TIP3    H156540   4.277   0.341  13.888  0.7265 -0.0873  0.5453
11683TIP3    H256541   4.228   0.427  14.003 -0.3653  0.7956 -0.5551
11684TIP3   OH256542   6.812   2.802   6.148 -0.2960 -0.1373  0.0761
11684TIP3    H156543   6.728   2.837   6.179 -0.1236  0.5315 -0.1971
11684TIP3    H256544   6.832   2.731   6.208  0.0344  1.1173  1.4844
11685TIP3   OH256545   5.712   5.577   0.082  0.3155 -0.4828 -0.0539
11685TIP3    H156546   5.671   5.660   0.057  1.7976  0.4250  0.4623
11685TIP3    H256547   5.646   5.534   0.137 -0.2543  0.5980  0.1393
11686TIP3   OH256548   2.792   2.660   1.086 -0.0297  0.1486 -0.4145
11686TIP3    H156549   2.836   2.744   1.074  0.3269 -0.0487 -0.5172
11686TIP3    H256550   2.859   2.595   1.063  0.2500 -0.2281  1.3022
11687TIP3   OH256551   3.824   5.587   0.093  0.1447  0.1030  0.4836
11687TIP3    H156552   3.783   5.503   0.072 -1.8181  0.9690  0.6275
11687TIP3    H256553   3.850   5.579   0.185 -0.2960 -0.2412  0.5802
11688TIP3   OH256554   0.835   4.977  11.427 -0.8121 -0.1856  0.1951
11688TIP3    H156555   0.808   5.027  11.504  0.2630 -0.0340  0.4921
11688TIP3    H256556   0.884   5.041  11.373  0.1325 -0.7657  0.3367
11689TIP3   OH256557   0.557   4.110  10.756  0.2975  0.3568 -0.3555
11689TIP3    H156558   0.536   4.065  10.674  0.9756 -0.7663  0.0755
11689TIP3    H256559   0.507   4.191  10.752 -1.5594 -0.7669 -0.8004
11690TIP3   OH256560   6.170   1.940   0.039 -0.2710  0.5947 -0.5084
11690TIP3    H156561   6.139   1.908  -0.045 -2.2667 -1.8036  1.0298
11690TIP3    H256562   6.119   2.019   0.056 -0.1267  0.8711 -1.3434
11691TIP3   OH256563   6.095   3.669   2.729 -0.1212  0.2547 -0.0361
11691TIP3    H156564   6.014   3.705   2.765  0.4322  1.2140  0.2615
11691TIP3    H256565   6.107   3.586   2.776  0.3972  1.3006  1.8107
11692TIP3   OH256566   4.333   6.086   4.713  0.1880 -0.1634  0.0958
11692TIP3    H156567   4.294   6.029   4.779  1.4812  1.1656  2.1299
11692TIP3    H256568   4.259   6.118   4.661 -0.7721 -1.8686  0.3582
11693TIP3   OH256569   2.587   4.834   3.511  0.1736 -0.1320  0.2154
11693TIP3    H156570   2.596   4.860   3.420 -1.3885 -1.8653 -0.5084
11693TIP3    H256571   2.492   4.823   3.523  0.5004 -2.4307  1.2574
11694TIP3   OH256572   0.845   0.113   5.842 -0.2697  0.0234  0.3494
11694TIP3    H156573   0.904   0.039   5.859  0.1226  0.3326  0.3468
11694TIP3    H256574   0.774   0.076   5.791 -0.0772 -0.3567  0.3534
11695TIP3   OH256575   4.703   5.623  14.125 -0.1018  0.4591 -0.1005
11695TIP3    H156576   4.794   5.639  14.101  0.0280 -0.4488 -0.2435
11695TIP3    H256577   4.684   5.688  14.192  0.3664  1.2511 -0.7189
11696TIP3   OH256578   1.686   1.973   4.175 -0.6439  0.0416  0.0265
11696TIP3    H156579   1.753   1.934   4.231 -1.3490 -1.3686 -0.0480
11696TIP3    H256580   1.713   2.064   4.164  0.7442 -0.2561  0.7486
11697TIP3   OH256581   2.165   3.690   0.649 -0.5314  0.5149 -0.5899
11697TIP3    H156582   2.119   3.627   0.593  0.2164 -0.4261 -0.1843
11697TIP3    H256583   2.185   3.641   0.729 -0.2597  1.3908 -0.1107
11698TIP3   OH256584   4.787   3.312   2.715  0.4585 -0.5001  0.1819
11698TIP3    H156585   4.779   3.283   2.624  1.6045  1.1955 -0.5068
11698TIP3    H256586   4.857   3.257   2.750  0.7228 -0.4603 -0.2709
11699TIP3   OH256587   4.680   2.872  13.249 -0.2976 -0.6108 -0.0180
11699TIP3    H156588   4.744   2.819  13.200  2.0172  1.0029  1.0942
11699TIP3    H256589   4.660   2.945  13.190 -0.0402 -0.3954  0.1595
11700TIP3   OH256590   5.446   2.045  11.280  0.0773  0.5291  0.7125
11700TIP3    H156591   5.533   2.010  11.258 -0.7827 -0.4745 -1.3669
11700TIP3    H256592   5.404   1.975  11.331  0.0592  0.5036  0.6623
11701TIP3   OH256593   1.237   6.336   5.051 -0.1754 -0.2687  0.7346
11701TIP3    H156594   1.295   6.401   5.091 -0.9712 -0.2174  1.8472
11701TIP3    H256595   1.187   6.300   5.124 -0.5744 -1.3067 -0.0220
11702TIP3   OH256596   4.275   0.897   3.861  0.5262  0.0682  0.2986
11702TIP3    H156597   4.272   0.976   3.807 -0.9627 -0.2075 -0.0795
11702TIP3    H256598   4.286   0.929   3.951 -0.0794  0.7184  0.1518
11703TIP3   OH256599   1.111   2.915  14.297 -0.1441  0.2717 -0.8677
11703TIP3    H156600   1.150   2.998  14.270  1.1032 -0.6678 -2.1106
11703TIP3    H256601   1.139   2.904  14.388  0.8068  0.5899 -1.1091
11704TIP3   OH256602   1.602   1.825   3.962  0.1964 -0.2256  0.0024
11704TIP3    H156603   1.591   1.872   4.045  0.8757 -0.5816  0.3028
11704TIP3    H256604   1.586   1.891   3.895 -1.3102 -0.1479  0.3970
11705TIP3   OH256605   0.435   0.358   1.824 -0.9143  0.0239 -0.2538
11705TIP3    H156606   0.512   0.415   1.823  0.4524 -1.7302 -0.8633
11705TIP3    H256607   0.470   0.270   1.810 -3.3469 -0.5224 -4.4293
11706TIP3   OH256608   2.597   3.061   4.482 -0.2712 -0.1392  0.1123
11706TIP3    H156609   2.589   3.155   4.463 -0.3753  0.1311  1.4141
11706TIP3    H256610   2.640   3.057   4.568  1.2807 -1.3185 -0.6668
11707TIP3   OH256611   3.874   1.817  14.473 -0.0609 -0.1719  0.1236
11707TIP3    H156612   3.782   1.807  14.497  0.6315 -1.9531  2.4367
11707TIP3    H256613   3.907   1.886  14.530  0.4056 -0.8165  0.6659
11708TIP3   OH256614   2.599   4.790   2.538 -0.3399 -0.0731 -0.7502
11708TIP3    H156615   2.511   4.813   2.567 -0.5432 -0.8874 -0.7176
11708TIP3    H256616   2.642   4.752   2.615  0.1234  0.5202 -0.7016
11709TIP3   OH256617   2.422   0.672  15.125 -0.1584  0.1361 -0.0136
11709TIP3    H156618   2.347   0.665  15.185 -0.0695  0.0066  0.0814
11709TIP3    H256619   2.483   0.731  15.170 -0.2640  0.3526 -0.1544
11710TIP3   OH256620   5.554   5.564   3.774  0.1414  0.5646 -0.3483
11710TIP3    H156621   5.632   5.565   3.718 -0.1976  0.1173 -0.8368
11710TIP3    H256622   5.488   5.613   3.725  0.3817  1.7271  0.4706
11711TIP3   OH256623   3.388   3.207  15.386  0.0339 -0.3714  0.4372
11711TIP3    H156624   3.480   3.185  15.370  0.7563  1.1785  2.0862
11711TIP3    H256625   3.377   3.294  15.349 -0.7094 -0.4397  0.4735
11712TIP3   OH256626   4.224   3.714   3.196 -0.1845  0.2704  0.4389
11712TIP3    H156627   4.282   3.639   3.213 -0.3468  0.2483  0.9173
11712TIP3    H256628   4.185   3.733   3.281  1.1847  2.0082  0.7400
11713TIP3   OH256629   2.341   2.494  13.086  0.1446 -0.2105 -0.2759
11713TIP3    H156630   2.338   2.406  13.125  0.6681 -0.6132 -1.1102
11713TIP3    H256631   2.301   2.550  13.152  2.5890 -0.5637  1.6744
11714TIP3   OH256632   3.729   2.854  15.231 -0.2772  0.1325  0.0681
11714TIP3    H156633   3.747   2.760  15.230 -0.3567  0.0157  2.4506
11714TIP3    H256634   3.815   2.895  15.243 -0.3746  0.2732  0.2972
11715TIP3   OH256635   5.774   3.369   5.839  0.3336 -0.3935 -0.6728
11715TIP3    H156636   5.745   3.420   5.915  1.1534 -0.0270 -0.5982
11715TIP3    H256637   5.713   3.296   5.835 -2.1521  1.6153 -1.9902
11716TIP3   OH256638   2.213   1.549   3.973  0.0705  0.2170 -0.2093
11716TIP3    H156639   2.120   1.561   3.995  0.4786  1.9744  0.7805
11716TIP3    H256640   2.214   1.476   3.911 -1.7097 -1.4394  1.5921
11717TIP3   OH256641   1.696   3.567   5.407  0.6105 -0.1432 -0.2769
11717TIP3    H156642   1.657   3.491   5.364 -1.2027  0.8232 -0.4489
11717TIP3    H256643   1.676   3.640   5.348  1.3842  0.6272  0.3885
11718TIP3   OH256644   4.453   5.027  12.580 -0.4405  0.2544  1.0804
11718TIP3    H156645   4.418   5.074  12.656 -0.4493 -1.0751  1.9278
11718TIP3    H256646   4.472   4.939  12.613  0.3063 -0.1124 -0.2696
11719TIP3   OH256647   2.437   5.456   0.636 -0.2333 -0.0687 -0.6093
11719TIP3    H156648   2.438   5.552   0.644  1.0099 -0.1255  0.2474
11719TIP3    H256649   2.526   5.430   0.658  0.3100 -1.2322 -3.6634
11720TIP3   OH256650   3.392   3.852  15.610 -0.0587 -0.3448  0.4689
11720TIP3    H156651   3.334   3.776  15.605 -0.8321 -0.0436  3.3353
11720TIP3    H256652   3.453   3.831  15.681  0.5751  1.1584  0.4063
11721TIP3   OH256653   5.299   6.612   2.755 -0.0558 -0.0928  0.4830
11721TIP3    H156654   5.319   6.704   2.740 -0.5645  0.3145  2.1039
11721TIP3    H256655   5.385   6.571   2.768  0.2404 -0.0652 -1.2057
11722TIP3   OH256656   3.661   1.697  10.635 -0.2702  0.1664  0.0846
11722TIP3    H156657   3.712   1.644  10.697  2.0953  2.0941 -0.0698
11722TIP3    H256658   3.664   1.785  10.672 -1.7435  0.7218 -1.0689
11723TIP3   OH256659   2.730   1.313   0.816  0.2652 -0.2100 -0.3064
11723TIP3    H156660   2.801   1.362   0.859  0.8901 -1.7877  0.5563
11723TIP3    H256661   2.724   1.352   0.729 -0.3413  2.4122  0.8187
11724TIP3   OH256662   1.650   0.631  11.433 -0.3745 -0.0378 -0.3878
11724TIP3    H156663   1.637   0.694  11.362  3.4818  0.5061 -0.8641
11724TIP3    H256664   1.689   0.682  11.504 -0.6547 -1.2594  0.6914
11725TIP3   OH256665   0.113   3.122   3.224  0.4294 -0.3143  0.6683
11725TIP3    H156666   0.183   3.078   3.177  0.7457  1.9952 -1.2138
11725TIP3    H256667   0.130   3.215   3.211 -0.9596  0.4126  3.2775
11726TIP3   OH256668   0.578   3.835   1.910  0.3465  0.1327 -0.2542
11726TIP3    H156669   0.533   3.771   1.854  1.3810 -2.0547  1.2709
11726TIP3    H256670   0.509   3.867   1.968 -0.1924  0.4597 -1.0522
11727TIP3   OH256671   5.764   6.640  16.623  0.7990 -0.0929  0.0443
11727TIP3    H156672   5.728   6.684  16.700  2.4001  0.3706  0.5672
11727TIP3    H256673   5.739   6.548  16.634  1.1094 -0.0550  1.1857
11728TIP3   OH256674   4.083   2.907   1.565 -0.3124 -0.3974 -0.2327
11728TIP3    H156675   4.158   2.851   1.550 -0.6267 -1.1284  0.8102
11728TIP3    H256676   4.016   2.874   1.506  0.2579  0.4411 -1.3754
11729TIP3   OH256677   5.242   5.641   5.273  0.1191  0.3966 -0.1175
11729TIP3    H156678   5.258   5.562   5.221  0.5305  0.0079  0.5886
11729TIP3    H256679   5.182   5.693   5.219  0.1905 -0.1946 -0.7846
11730TIP3   OH256680   4.513   1.870  11.594  0.0313  0.1999 -0.4301
11730TIP3    H156681   4.545   1.801  11.652 -0.8870  0.1457  0.0374
11730TIP3    H256682   4.586   1.888  11.535  0.8895  0.0291  0.5392
11731TIP3   OH256683   1.073   5.266  11.326  0.4177  0.2237  0.0761
11731TIP3    H156684   1.061   5.351  11.285 -0.7181  0.2608  0.4452
11731TIP3    H256685   1.158   5.272  11.370  0.9744  0.6754 -1.0429
11732TIP3   OH256686   6.129   6.049   4.548  0.5264  0.3995  0.2417
11732TIP3    H156687   6.176   5.969   4.571 -0.4412 -0.4870 -0.7306
11732TIP3    H256688   6.045   6.042   4.595  0.0520  0.3735 -0.5963
11733TIP3   OH256689   3.903   6.432  16.253  0.1738  0.3289  0.2347
11733TIP3    H156690   3.884   6.339  16.249  1.4365  0.0734 -0.1908
11733TIP3    H256691   3.998   6.438  16.251  0.1029  1.6783 -0.9279
11734TIP3   OH256692   1.124   1.305  15.794 -0.2097 -0.0505  0.1546
11734TIP3    H156693   1.146   1.277  15.705  0.4800 -1.5531  0.7579
11734TIP3    H256694   1.091   1.225  15.836  0.9605  0.2262  1.6997
11735TIP3   OH256695   1.863   4.189   2.904  0.1407  0.0060  0.2030
11735TIP3    H156696   1.775   4.193   2.943 -1.3981 -1.1572 -2.8579
11735TIP3    H256697   1.869   4.267   2.849  0.4228 -0.6501 -0.7164
11736TIP3   OH256698   5.301   1.390   1.758 -0.5651  0.8789 -0.0935
11736TIP3    H156699   5.301   1.295   1.766 -1.2075  0.6753 -2.0333
11736TIP3    H256700   5.392   1.415   1.768 -0.4303  0.1036  0.7278
11737TIP3   OH256701   3.722   2.992  14.934  0.3678 -0.4102  0.1262
11737TIP3    H156702   3.652   3.055  14.950 -0.2686 -1.2460  0.6914
11737TIP3    H256703   3.678   2.908  14.923  1.1796 -0.7336 -0.8973
11738TIP3   OH256704   5.994   1.695   4.973  0.2945 -0.0015 -0.1098
11738TIP3    H156705   6.090   1.702   4.971  0.3160 -0.3638 -0.4635
11738TIP3    H256706   5.969   1.689   4.881 -0.1698  1.2790 -0.0880
11739TIP3   OH256707   2.849   6.008  15.562  0.1659  0.2775  0.4929
11739TIP3    H156708   2.784   6.065  15.520  0.7543  1.4110  1.0612
11739TIP3    H256709   2.819   5.919  15.544 -0.9612  0.7691 -0.1469
11740TIP3   OH256710   3.625   5.473   3.473 -0.5211 -0.5894 -0.4783
11740TIP3    H156711   3.696   5.497   3.414  0.7873 -2.0983  0.4167
11740TIP3    H256712   3.629   5.378   3.479 -3.1936 -0.8350 -1.0551
11741TIP3   OH256713   6.017   0.669  11.652  0.0625 -0.7723  0.2907
11741TIP3    H156714   5.949   0.624  11.603  0.7792  0.3070 -1.8048
11741TIP3    H256715   6.036   0.611  11.726 -0.4818 -2.8745 -1.1499
11742TIP3   OH256716   6.825   0.030   5.035 -0.5433 -0.2563 -0.1825
11742TIP3    H156717   6.828  -0.025   4.957 -0.4582 -1.5770  0.7304
11742TIP3    H256718   6.838  -0.030   5.108  2.3219  1.3072  0.7396
11743TIP3   OH256719   3.344   1.207   4.229 -0.3184 -0.1053 -0.4235
11743TIP3    H156720   3.420   1.161   4.194  0.9282  0.1651  1.7601
11743TIP3    H256721   3.347   1.192   4.323 -2.3341  0.8930 -0.1295
11744TIP3   OH256722   2.971   2.565  16.906  0.2222  0.0456  0.2879
11744TIP3    H156723   3.050   2.514  16.888  0.2953  0.1969  0.1771
11744TIP3    H256724   2.995   2.655  16.884  0.0919  0.1267  0.4781
11745TIP3   OH256725   4.053   4.746   2.317 -0.0511  0.0058 -0.2857
11745TIP3    H156726   4.036   4.800   2.240  1.2602  1.0238  0.1044
11745TIP3    H256727   3.966   4.714   2.343 -0.5704 -0.0381 -1.9216
11746TIP3   OH256728   2.987   4.675  10.941  0.0325  0.1540  0.0905
11746TIP3    H156729   3.005   4.584  10.920  1.3728  0.1501  1.1285
11746TIP3    H256730   3.060   4.724  10.903 -0.7063  0.8206 -0.5162
11747TIP3   OH256731   4.203   5.912  13.402 -0.2776 -0.9285  0.8080
11747TIP3    H156732   4.260   5.982  13.433 -0.1363  0.0198 -1.3851
11747TIP3    H256733   4.229   5.835  13.453  2.2205 -0.2587  0.6792
11748TIP3   OH256734   0.537   1.941   3.396  0.1613  0.1227  0.5769
11748TIP3    H156735   0.618   1.895   3.374  0.0978  0.6773 -0.9160
11748TIP3    H256736   0.548   2.028   3.359 -0.1979  0.9635  2.3614
11749TIP3   OH256737   1.575   6.431   1.210 -0.4317  0.2050 -0.0562
11749TIP3    H156738   1.617   6.517   1.217 -0.0919 -0.0741  2.0931
11749TIP3    H256739   1.482   6.450   1.211 -0.3651  0.5404  1.1220
11750TIP3   OH256740   3.886   5.458  12.955 -0.6062  0.1965  0.4450
11750TIP3    H156741   3.824   5.457  12.882 -3.0244  0.1165  2.3441
11750TIP3    H256742   3.927   5.372  12.953 -2.1248 -0.5595  0.3097
11751TIP3   OH256743   5.214   6.415  13.585 -0.4221 -0.4058 -0.4643
11751TIP3    H156744   5.230   6.328  13.622  0.1724 -0.0891  0.0498
11751TIP3    H256745   5.206   6.400  13.491 -2.9564 -1.3834 -0.1768
11752TIP3   OH256746   5.166   4.305  14.913 -0.0088  0.3401  0.1082
11752TIP3    H156747   5.250   4.263  14.891 -0.1573 -0.8387  1.5943
11752TIP3    H256748   5.131   4.251  14.984 -2.5816  0.1231 -1.2365
11753TIP3   OH256749   0.548   0.570  15.279  0.2251  0.0106  0.2872
11753TIP3    H156750   0.627   0.578  15.226 -1.4851  1.2050 -2.2236
11753TIP3    H256751   0.544   0.651  15.329  0.2543  0.2408 -0.0825
11754TIP3   OH256752   4.922   2.942  12.284 -0.1445 -0.8125  0.3846
11754TIP3    H156753   4.878   2.857  12.286  0.2654 -1.0783 -1.0052
11754TIP3    H256754   4.940   2.958  12.192 -0.8192  1.1202  0.5498
11755TIP3   OH256755   0.072   2.404  16.985  0.2574  0.4547  0.3771
11755TIP3    H156756   0.111   2.325  16.948  1.3136  1.1368 -0.0181
11755TIP3    H256757   0.019   2.373  17.058 -0.1261 -0.7062 -0.3712
11756TIP3   OH256758   0.601   4.896   1.228 -0.2170  0.0907  0.0812
11756TIP3    H156759   0.538   4.901   1.300 -0.4777 -0.7382 -0.0835
11756TIP3    H256760   0.671   4.957   1.253 -0.4443  0.0267  0.8937
11757TIP3   OH256761   0.115   1.310  14.688 -0.0003 -0.2340  0.0861
11757TIP3    H156762   0.093   1.372  14.757  0.3897  0.2343 -0.2092
11757TIP3    H256763   0.048   1.242  14.694 -0.1313 -0.0462  0.7386
11758TIP3   OH256764   0.965   1.168   1.189  0.0681 -0.1863 -0.4674
11758TIP3    H156765   0.901   1.239   1.181  0.3736  0.0842 -0.5525
11758TIP3    H256766   1.004   1.180   1.275  0.3856 -0.0246 -0.6330
11759TIP3   OH256767   3.987   4.253  14.741 -0.5479 -0.0287 -0.2198
11759TIP3    H156768   3.971   4.342  14.773  0.6603 -0.2259  1.0426
11759TIP3    H256769   4.015   4.264  14.650 -1.5564  0.7748 -0.4449
11760TIP3   OH256770   5.104   0.631   3.672  0.2486 -0.1516 -0.6713
11760TIP3    H156771   5.136   0.621   3.582 -1.3890 -0.0568 -1.2966
11760TIP3    H256772   5.043   0.558   3.684 -0.6959  0.6970 -0.1850
11761TIP3   OH256773   3.239   0.539   1.997 -0.1574  0.2764 -0.1127
11761TIP3    H156774   3.264   0.448   1.980 -1.3868  0.1350 -1.3937
11761TIP3    H256775   3.321   0.588   1.991  0.4245 -0.6675 -0.0244
11762TIP3   OH256776   3.272   1.068   0.921 -0.2787 -0.3836 -0.2208
11762TIP3    H156777   3.292   1.058   1.014 -0.9574 -1.3634 -0.1627
11762TIP3    H256778   3.180   1.095   0.919  0.3052  1.7619 -0.5553
11763TIP3   OH256779   0.579   0.420   5.350 -0.4961 -0.2102  0.1486
11763TIP3    H156780   0.547   0.491   5.295  0.2555  0.3623  0.4200
11763TIP3    H256781   0.522   0.420   5.426 -0.4735  0.1286  0.1635
11764TIP3   OH256782   3.541   4.870  11.276 -0.5642 -0.4424  0.3544
11764TIP3    H156783   3.512   4.802  11.336 -1.0912  0.1033  0.7287
11764TIP3    H256784   3.490   4.947  11.300 -0.4527 -0.0896 -0.4953
11765TIP3   OH256785   6.001   5.771  16.717  0.0011 -0.0688 -0.2930
11765TIP3    H156786   6.017   5.781  16.811  0.5379  0.6279 -0.4556
11765TIP3    H256787   5.999   5.676  16.704  0.2488 -0.1750  0.3707
11766TIP3   OH256788   4.708   6.583   0.533  0.1594 -0.4992  0.4589
11766TIP3    H156789   4.642   6.630   0.584  0.4300 -0.4782  0.7902
11766TIP3    H256790   4.688   6.606   0.442  1.9208  2.4914  0.7155
11767TIP3   OH256791   5.633   6.578  15.877  0.4290  0.3111 -0.4163
11767TIP3    H156792   5.672   6.505  15.925 -0.2674 -0.0134 -0.3348
11767TIP3    H256793   5.542   6.552  15.863 -0.2812  1.8235  0.9798
11768TIP3   OH256794   2.873   2.821   0.756  0.5735  0.2720 -0.3057
11768TIP3    H156795   2.828   2.896   0.718  0.9853  0.2387 -0.8705
11768TIP3    H256796   2.914   2.777   0.682  0.8190 -0.1818  0.0912
11769TIP3   OH256797   3.913   4.268   2.006  0.1542  0.3154 -0.2850
11769TIP3    H156798   3.889   4.302   1.920 -1.9629  0.1588  0.1771
11769TIP3    H256799   3.855   4.192   2.018 -1.3993  1.7597  2.2185
11770TIP3   OH256800   4.982   2.083  11.936 -0.1792 -0.2694  0.0930
11770TIP3    H156801   4.919   2.147  11.970 -0.1879 -0.5013  0.5199
11770TIP3    H256802   4.928   2.020  11.888 -0.0777  0.5536 -1.1512
11771TIP3   OH256803   0.371   4.276   4.929  0.3066  0.1899 -1.0146
11771TIP3    H156804   0.451   4.232   4.959 -0.0150  0.3222  0.0825
11771TIP3    H256805   0.401   4.363   4.904  0.2559  0.9357  1.2709
11772TIP3   OH256806   1.130   5.956   2.292 -0.0938  0.2193 -0.3417
11772TIP3    H156807   1.070   5.881   2.295  0.2495 -0.0963  3.0992
11772TIP3    H256808   1.085   6.024   2.341  2.3341 -0.1503  2.7141
11773TIP3   OH256809   2.314   1.007   0.354 -0.5748 -0.2433  0.2195
11773TIP3    H156810   2.242   0.976   0.409 -0.4119  0.7822  1.0510
11773TIP3    H256811   2.351   1.081   0.402  0.0603  0.2182 -0.9246
11774TIP3   OH256812   4.904   5.780  13.736  0.2550  0.4077 -0.1396
11774TIP3    H156813   4.871   5.694  13.761 -1.8052  0.8500 -1.1427
11774TIP3    H256814   4.971   5.762  13.670 -1.8731 -0.4254 -2.2020
11775TIP3   OH256815   1.243   2.251   2.775  0.3116 -0.1301 -0.2460
11775TIP3    H156816   1.183   2.181   2.752 -0.1089  0.7134 -1.8233
11775TIP3    H256817   1.330   2.215   2.757  0.1311 -0.4477 -0.4842
11776TIP3   OH256818   0.928   5.627   4.694 -0.3534  0.0337 -0.0772
11776TIP3    H156819   0.878   5.707   4.679  0.0841  0.1980 -0.6912
11776TIP3    H256820   1.018   5.651   4.674 -0.5509 -1.3673 -3.3438
11777TIP3   OH256821   2.366   6.550   2.738  0.2799  0.3957 -0.3026
11777TIP3    H156822   2.303   6.622   2.740 -0.2229 -0.0477  0.4568
11777TIP3    H256823   2.414   6.562   2.657 -0.5329  0.9702 -0.7126
11778TIP3   OH256824   4.208   1.008   2.175  0.3701  0.3590 -0.0903
11778TIP3    H156825   4.253   1.091   2.158 -1.4965  1.2926 -0.8369
11778TIP3    H256826   4.182   1.014   2.267 -0.6336  1.1053 -0.3980
11779TIP3   OH256827   4.981   0.033   0.823 -0.7962  0.5900 -0.5347
11779TIP3    H156828   5.000  -0.054   0.789  0.3306 -0.4841  2.4602
11779TIP3    H256829   5.053   0.088   0.791 -0.2521 -0.1504 -0.6032
11780TIP3   OH256830   2.048   2.016   5.589 -0.5493 -0.3298 -0.7300
11780TIP3    H156831   2.017   1.946   5.646  0.0173 -0.7316 -0.9057
11780TIP3    H256832   1.968   2.052   5.550 -0.9798  0.2287  0.6235
11781TIP3   OH256833   6.366   2.281   3.696  0.0224  0.3353 -0.2825
11781TIP3    H156834   6.280   2.239   3.704  0.8493 -1.1926  1.2588
11781TIP3    H256835   6.367   2.349   3.762 -0.0646  0.4562 -0.4066
11782TIP3   OH256836   3.515   6.618   1.570  0.2447  0.0582  0.4236
11782TIP3    H156837   3.476   6.637   1.655  1.3490  0.3346  0.8818
11782TIP3    H256838   3.490   6.527   1.552 -3.3045  1.1011 -0.8138
11783TIP3   OH256839   0.027   5.399   2.023  0.5691  0.0896 -0.5196
11783TIP3    H156840  -0.054   5.445   2.040  1.3017  0.4736  2.6098
11783TIP3    H256841   0.086   5.465   1.986  0.1967  0.4338 -0.4925
11784TIP3   OH256842   0.655   6.151   3.945 -0.7561  0.7485 -0.4607
11784TIP3    H156843   0.734   6.178   3.993 -1.0399 -0.5561  0.8139
11784TIP3    H256844   0.586   6.209   3.979 -0.9371 -0.1107  0.6858
11785TIP3   OH256845   5.071   2.006  16.024 -0.2018  0.3895  0.2052
11785TIP3    H156846   4.992   1.961  15.994 -0.1705 -0.7173  1.6833
11785TIP3    H256847   5.079   1.982  16.117  0.0606  3.1247  0.9725
11786TIP3   OH256848   2.172   1.515   0.933 -0.1395  0.6002 -0.8562
11786TIP3    H156849   2.135   1.427   0.943  0.6437  0.3523 -0.0715
11786TIP3    H256850   2.095   1.572   0.933 -0.6499 -0.0649 -1.1978
11787TIP3   OH256851   3.778   3.093  13.426  0.1773 -0.2068  0.1391
11787TIP3    H156852   3.776   3.001  13.455 -2.5349  0.3566  2.0766
11787TIP3    H256853   3.851   3.131  13.475  1.6214 -1.3711 -1.0169
11788TIP3   OH256854   5.529   1.302   3.098 -0.4135 -0.7081 -0.1799
11788TIP3    H156855   5.532   1.213   3.063 -0.3547 -1.6582  2.0540
11788TIP3    H256856   5.491   1.291   3.185 -0.0981  1.4369  0.2642
11789TIP3   OH256857   2.756   2.815   3.419 -0.3489  0.1348  0.0077
11789TIP3    H156858   2.673   2.863   3.411 -0.7383 -0.3593  0.9272
11789TIP3    H256859   2.789   2.810   3.329 -1.2940  0.3780 -0.3667
11790TIP3   OH256860   2.295   0.405  13.371 -0.0547 -0.0123 -0.2889
11790TIP3    H156861   2.211   0.450  13.372 -0.8282 -1.1163 -3.3633
11790TIP3    H256862   2.323   0.409  13.279  2.0929 -1.7297  0.2060
11791TIP3   OH256863   6.588   5.318   6.181  0.7404 -0.3315 -0.0131
11791TIP3    H156864   6.603   5.266   6.102  1.2985 -0.5742  0.2504
11791TIP3    H256865   6.666   5.304   6.235  0.9676  0.8769  0.0061
11792TIP3   OH256866   3.896   3.303   5.030  0.2804 -0.3164  0.1823
11792TIP3    H156867   3.839   3.373   5.000  0.1057 -1.1453 -1.5958
11792TIP3    H256868   3.971   3.306   4.971  2.4203  1.0624  2.7734
11793TIP3   OH256869   5.125   2.171   0.086 -0.2028  0.5723  0.5509
11793TIP3    H156870   5.102   2.098   0.028  1.2993 -1.4083  2.3194
11793TIP3    H256871   5.062   2.166   0.157  0.1696  0.7282  0.8951
11794TIP3   OH256872   6.758   1.428  15.513 -0.1421 -0.8148 -0.8436
11794TIP3    H156873   6.734   1.391  15.598 -3.2297  1.3202 -0.6107
11794TIP3    H256874   6.790   1.515  15.532 -2.1794  0.2307 -1.8387
11795TIP3   OH256875   3.190   3.410   4.021 -0.1820 -0.2703  0.0121
11795TIP3    H156876   3.248   3.450   3.957 -1.5565  0.0857 -1.0393
11795TIP3    H256877   3.160   3.483   4.075  1.7353 -0.6796  1.7854
11796TIP3   OH256878   4.285   3.032  11.817  1.0279 -0.1199 -0.2739
11796TIP3    H156879   4.254   3.080  11.894  1.0518 -0.1762 -0.2295
11796TIP3    H256880   4.288   2.941  11.845 -1.8369 -0.6062 -1.2396
11797TIP3   OH256881   4.237   6.637  16.040  0.0566 -0.0784  0.0344
11797TIP3    H156882   4.267   6.557  15.997 -0.1097 -0.1588  0.0679
11797TIP3    H256883   4.143   6.642  16.019  0.3562  0.8916 -1.2389
11798TIP3   OH256884   3.018   0.405  16.543 -0.1512  0.3385  0.2275
11798TIP3    H156885   3.091   0.350  16.573 -0.8187 -0.9473 -0.4280
11798TIP3    H256886   3.015   0.476  16.607  1.7526  0.5068  0.1899
11799TIP3   OH256887   3.690   5.982  13.411  0.0756  0.4767  0.2290
11799TIP3    H156888   3.663   5.914  13.473  2.3082 -0.4214  0.3162
11799TIP3    H256889   3.613   6.039  13.402 -1.3285 -1.1406  1.3918
11800TIP3   OH256890   4.269   3.373   2.149  0.1497 -0.2631  0.5372
11800TIP3    H156891   4.299   3.282   2.148  1.1682  0.0673 -0.0160
11800TIP3    H256892   4.184   3.370   2.105  0.0563 -0.9844  0.7510
11801TIP3   OH256893   2.478   1.090  10.573 -0.3803  0.2093  0.3578
11801TIP3    H156894   2.498   1.005  10.613 -0.3285  0.2866  0.4964
11801TIP3    H256895   2.483   1.074  10.479 -1.6762 -0.2673  0.3495
11802TIP3   OH256896   3.930   2.539  12.034 -0.1574 -0.0596  0.2211
11802TIP3    H156897   3.962   2.589  11.958  0.8163  0.6283  1.0475
11802TIP3    H256898   3.997   2.472  12.048 -0.7895 -0.7589 -0.0642
11803TIP3   OH256899   5.457   1.927  11.635 -0.2877  0.8903 -0.1025
11803TIP3    H156900   5.548   1.908  11.610 -0.6019  0.7682 -1.2034
11803TIP3    H256901   5.458   2.019  11.659 -0.0045  1.0639 -0.7629
11804TIP3   OH256902   2.117   5.516   5.455 -0.5485 -0.5846  0.1414
11804TIP3    H156903   2.035   5.500   5.503  0.2693  0.0130  1.8334
11804TIP3    H256904   2.124   5.612   5.452 -0.5593 -0.6187 -1.1740
11805TIP3   OH256905   5.490   4.714  16.700 -0.2605  0.0038  0.0237
11805TIP3    H156906   5.461   4.796  16.740  2.1179  0.3349  1.2915
11805TIP3    H256907   5.507   4.656  16.774 -0.2475 -1.0456 -0.7757
11806TIP3   OH256908   0.308   1.935   3.737  0.3698  0.2275 -0.4593
11806TIP3    H156909   0.285   1.939   3.644 -0.3137  0.8916 -0.2721
11806TIP3    H256910   0.316   2.026   3.764  0.5317  0.0403  0.1383
11807TIP3   OH256911   3.521   1.966  14.703  0.1458 -0.7526 -0.2183
11807TIP3    H156912   3.426   1.961  14.689 -0.5827  2.2163  2.5959
11807TIP3    H256913   3.536   1.910  14.780  0.0480  1.1914  1.2868
11808TIP3   OH256914   5.355   0.510  10.576 -0.0173  0.0046 -0.0530
11808TIP3    H156915   5.433   0.457  10.593 -0.0995 -0.3482 -0.7735
11808TIP3    H256916   5.296   0.490  10.648  0.7676  0.7007  0.8220
11809TIP3   OH256917   5.357   2.341  10.543 -0.0675  0.3489 -0.3014
11809TIP3    H156918   5.283   2.315  10.487 -1.3586  0.9337  1.0657
11809TIP3    H256919   5.347   2.436  10.553  0.2753  0.2849  0.7362
11810TIP3   OH256920   0.596   6.118  15.655 -0.3307 -0.2266  0.2671
11810TIP3    H156921   0.657   6.064  15.604 -0.8635 -2.0923  1.4976
11810TIP3    H256922   0.511   6.105  15.613 -0.2441  0.8064 -0.2627
11811TIP3   OH256923   2.649   1.177  13.087  0.0495  0.4762 -0.1141
11811TIP3    H156924   2.608   1.097  13.055  1.5688  0.1020 -1.2640
11811TIP3    H256925   2.579   1.242  13.089 -0.4431  0.1743 -3.0828
11812TIP3   OH256926   2.941   1.170   0.181 -0.3169 -0.6786 -0.6792
11812TIP3    H156927   2.953   1.106   0.111  0.5972  0.6994 -1.8339
11812TIP3    H256928   3.004   1.144   0.248  0.7978 -0.4101 -1.5886
11813TIP3   OH256929   0.801   0.829   4.980  0.6942  0.1987  0.7920
11813TIP3    H156930   0.849   0.912   4.992  1.5217 -0.1844  0.2578
11813TIP3    H256931   0.730   0.833   5.043  1.2436  0.9389  1.3892
11814TIP3   OH256932   1.433   2.729   0.078 -0.1743  0.2544  0.1762
11814TIP3    H156933   1.347   2.701   0.107 -0.1276 -0.8340 -0.6812
11814TIP3    H256934   1.490   2.654   0.097  0.4091  0.6338 -0.0671
11815TIP3   OH256935   5.112   3.827   1.023  0.9887  0.1158  0.1242
11815TIP3    H156936   5.202   3.800   1.004  0.9841  0.0488  0.1999
11815TIP3    H256937   5.121   3.905   1.078  0.9990 -0.3396  0.7737
11816TIP3   OH256938   3.559   6.068   5.023 -0.5280 -0.4651 -0.0266
11816TIP3    H156939   3.551   6.153   4.979 -1.5147 -0.3229  0.4180
11816TIP3    H256940   3.561   6.005   4.951  0.7600 -0.0578 -0.3939
11817TIP3   OH256941   4.358   1.060   6.120 -0.3214  0.9074  0.2900
11817TIP3    H156942   4.409   1.135   6.151 -0.7929  2.1111 -1.6290
11817TIP3    H256943   4.422   1.001   6.080 -0.3168  3.3979 -4.0950
11818TIP3   OH256944   4.082   3.586   4.580  0.0577 -0.1896  0.0788
11818TIP3    H156945   4.011   3.595   4.516 -0.4389 -0.9121  0.5264
11818TIP3    H256946   4.124   3.503   4.558 -1.1899 -1.3067  1.7428
11819TIP3   OH256947   1.713   2.285  13.774 -0.4167  0.1700  0.0037
11819TIP3    H156948   1.694   2.212  13.833 -0.4937 -1.7787 -2.2391
11819TIP3    H256949   1.745   2.243  13.694  1.3405  2.7427 -0.7744
11820TIP3   OH256950   1.760   0.267   4.285  0.4442 -0.4284 -0.3015
11820TIP3    H156951   1.679   0.232   4.247  1.3732  1.0760 -4.0988
11820TIP3    H256952   1.742   0.360   4.297  0.5704 -0.6588  2.2280
11821TIP3   OH256953   6.257   0.006  13.062 -0.2705 -0.0810 -0.2651
11821TIP3    H156954   6.228  -0.071  13.111  0.4309 -0.5783 -0.6269
11821TIP3    H256955   6.208   0.002  12.980  1.1352 -1.2155 -1.1064
11822TIP3   OH256956   4.129   3.672  12.844 -0.5587  0.2732 -0.5232
11822TIP3    H156957   4.189   3.618  12.793  0.2070  0.8238 -0.2273
11822TIP3    H256958   4.183   3.744  12.878 -1.2067  0.3401  0.4243
11823TIP3   OH256959   3.591   1.880  16.392  0.3191  0.3177  0.2413
11823TIP3    H156960   3.572   1.941  16.463  0.6658  0.1092  0.5167
11823TIP3    H256961   3.674   1.839  16.417 -0.6233 -1.3420  0.8139
11824TIP3   OH256962   4.153   3.720  15.290  0.1217 -0.0929  0.0764
11824TIP3    H156963   4.070   3.765  15.306  0.1474 -0.2553  0.7154
11824TIP3    H256964   4.213   3.758  15.354  0.2172 -0.8282  0.4358
11825TIP3   OH256965   3.078   3.052  11.933 -0.7121 -0.0084  0.3697
11825TIP3    H156966   3.109   2.994  12.003  1.7638 -0.0317 -0.6265
11825TIP3    H256967   3.009   3.002  11.890 -1.5909 -0.4023  2.1185
11826TIP3   OH256968   0.213   4.823  14.281 -0.4229 -0.6117 -0.4577
11826TIP3    H156969   0.125   4.828  14.245 -0.2132 -1.7821 -1.1806
11826TIP3    H256970   0.225   4.906  14.328 -1.0918  0.5261 -2.1934
11827TIP3   OH256971   0.443   1.130  12.824  0.1738 -0.4235 -0.1638
11827TIP3    H156972   0.453   1.055  12.883 -0.2789 -0.9882 -0.7937
11827TIP3    H256973   0.496   1.108  12.748  0.9721  0.4258  0.1307
11828TIP3   OH256974   0.940   3.493   2.639 -0.7424 -0.0429 -0.0106
11828TIP3    H156975   0.951   3.583   2.607 -1.7512 -0.2281 -0.9446
11828TIP3    H256976   0.846   3.486   2.658 -0.4348 -0.4569  1.4857
11829TIP3   OH256977   3.162   3.058   0.092  0.4480 -0.0331  0.8232
11829TIP3    H156978   3.159   3.096   0.004 -1.8099  0.5716  1.0923
11829TIP3    H256979   3.113   3.120   0.146  1.6352 -0.4811  2.4955
11830TIP3   OH256980   1.558   3.792  11.362  0.0899 -0.0470 -0.0840
11830TIP3    H156981   1.641   3.840  11.366 -0.5711  1.0393  1.9060
11830TIP3    H256982   1.536   3.776  11.453 -0.8150 -2.2957 -0.6467
11831TIP3   OH256983   4.965   2.619  10.765 -0.1535 -0.1427 -0.1716
11831TIP3    H156984   4.936   2.543  10.816  0.6038 -0.3397 -0.0217
11831TIP3    H256985   5.036   2.657  10.817  0.1954  0.0371 -0.7673
11832TIP3   OH256986   1.279   3.236   5.492 -0.4883  1.1248  0.7938
11832TIP3    H156987   1.361   3.274   5.524  0.7727 -0.6065 -0.2186
11832TIP3    H256988   1.265   3.158   5.547 -0.2966  0.2273 -0.3973
11833TIP3   OH256989   5.102   2.406   3.816 -0.0087 -0.5801  0.1502
11833TIP3    H156990   5.173   2.344   3.797 -0.0872 -0.7158  0.2920
11833TIP3    H256991   5.114   2.429   3.908  1.5338  1.5926 -0.5323
11834TIP3   OH256992   1.237   1.117  12.198  0.8669 -0.4044  0.1580
11834TIP3    H156993   1.282   1.050  12.251  0.6625 -0.0471  0.7966
11834TIP3    H256994   1.157   1.075  12.169 -0.2026  0.1256  2.1306
11835TIP3   OH256995   3.000   1.385   2.483 -0.2574 -0.1042  0.8047
11835TIP3    H156996   3.058   1.311   2.501  0.8448  0.7766  0.9393
11835TIP3    H256997   3.044   1.460   2.521 -0.2820  1.0174 -1.2481
11836TIP3   OH256998   2.286   4.830  16.021 -0.3384  0.7777  0.2970
11836TIP3    H156999   2.314   4.886  15.948 -0.5412  2.7205  1.6487
11836TIP3    H257000   2.334   4.862  16.097 -1.0077 -0.4335  1.2749
11837TIP3   OH257001   2.703   2.133  13.252 -0.4672 -0.6245 -0.1194
11837TIP3    H157002   2.717   2.154  13.344  0.3700  0.3435 -0.4535
11837TIP3    H257003   2.699   2.037  13.250  2.5268 -0.8500  0.5408
11838TIP3   OH257004   3.864   2.069   5.645  0.1735  0.7619  0.3186
11838TIP3    H157005   3.851   2.067   5.740  1.6475  1.4173  0.5690
11838TIP3    H257006   3.821   2.149   5.616 -0.7489  0.2817  0.3461
11839TIP3   OH257007   6.357   1.383   1.053  0.1391  0.1729 -0.0860
11839TIP3    H157008   6.294   1.384   1.125 -0.5014 -0.4433 -0.6282
11839TIP3    H257009   6.442   1.390   1.096 -0.3002  1.8791  0.6132
11840TIP3   OH257010   4.634   3.172  13.314  0.0087  0.4844 -0.3004
11840TIP3    H157011   4.658   3.138  13.228  1.2215  1.7542 -0.5040
11840TIP3    H257012   4.678   3.114  13.376 -2.2384 -1.4999 -0.3820
11841TIP3   OH257013   5.939   1.286   1.983 -0.1056 -0.2173 -0.4567
11841TIP3    H157014   5.872   1.243   1.929 -0.1328  0.3656 -0.8975
11841TIP3    H257015   5.913   1.266   2.073 -1.0257  0.2120 -0.6158
11842TIP3   OH257016   5.183   5.193  12.241 -0.7191  0.1267 -0.6817
11842TIP3    H157017   5.102   5.242  12.259 -0.4465  0.2465  0.2965
11842TIP3    H257018   5.212   5.164  12.327  2.3620  3.3292 -0.4264
11843TIP3   OH257019   1.521   2.673   3.944  0.0633 -0.8730  0.0132
11843TIP3    H157020   1.482   2.607   4.001 -1.3785  0.2655  0.3996
11843TIP3    H257021   1.461   2.679   3.869 -1.1124  1.5741  1.0650
11844TIP3   OH257022   5.369   0.114  13.994  0.1477 -0.3002  0.2865
11844TIP3    H157023   5.333   0.055  14.060 -1.5285  0.7098  0.3450
11844TIP3    H257024   5.366   0.201  14.035  3.2260 -0.1613  0.4705
11845TIP3   OH257025   3.395   5.422  16.440  0.3951  0.4016  0.1675
11845TIP3    H157026   3.346   5.475  16.377  0.8258  0.9619  0.2910
11845TIP3    H257027   3.438   5.355  16.386 -0.6957 -0.2692  0.0887
11846TIP3   OH257028   3.820   3.604   3.943  0.1350  0.2363 -0.0424
11846TIP3    H157029   3.757   3.625   4.012  0.8236  0.3996  0.5502
11846TIP3    H257030   3.787   3.649   3.866  0.5891  2.0123  0.7472
11847TIP3   OH257031   2.166   1.987  12.751  0.1159 -0.1646  0.1286
11847TIP3    H157032   2.194   2.077  12.765 -2.2858  0.6473  0.2362
11847TIP3    H257033   2.095   1.994  12.686  0.5293 -2.0883 -0.6057
11848TIP3   OH257034   1.516   3.964  16.178  0.1903  0.2277  0.1333
11848TIP3    H157035   1.528   4.055  16.154 -0.8999  0.7887  1.5757
11848TIP3    H257036   1.538   3.961  16.271 -1.2460 -0.6513  0.4781
11849TIP3   OH257037   6.199   6.252   3.734  0.4687 -0.2470 -0.3712
11849TIP3    H157038   6.197   6.247   3.639 -0.3228 -1.5293 -0.3039
11849TIP3    H257039   6.160   6.337   3.755  0.7369  0.0797 -1.1878
11850TIP3   OH257040   0.793   0.134  12.664  0.3867 -0.5186  0.2978
11850TIP3    H157041   0.776   0.153  12.756  0.4805  3.4892 -0.3499
11850TIP3    H257042   0.730   0.065  12.642  0.0331 -1.2449  3.1892
11851TIP3   OH257043   0.583   2.088  16.793  0.3763  1.0953 -0.4662
11851TIP3    H157044   0.506   2.118  16.744  1.0088  0.0526 -2.1844
11851TIP3    H257045   0.636   2.167  16.805 -1.3158  2.0275  1.5666
11852TIP3   OH257046   3.076   2.547   5.704  0.6676 -0.2832 -0.2335
11852TIP3    H157047   3.139   2.489   5.662 -0.8301 -1.7622 -0.5514
11852TIP3    H257048   3.092   2.535   5.798  1.8476  0.5375 -0.3076
11853TIP3   OH257049   0.441   1.771  16.962  0.0433  0.3072 -0.4947
11853TIP3    H157050   0.473   1.860  16.974 -0.3149  0.1227  2.7735
11853TIP3    H257051   0.504   1.716  17.010 -2.4395 -0.5410  2.0785
11854TIP3   OH257052   5.670   3.867   2.322 -0.0510 -0.2995 -0.4083
11854TIP3    H157053   5.757   3.872   2.362  0.0829 -0.6148 -0.6561
11854TIP3    H257054   5.680   3.804   2.250 -0.5175 -0.4501 -0.3472
11855TIP3   OH257055   5.019   6.105  15.780  1.5266 -0.0018 -0.4713
11855TIP3    H157056   4.949   6.137  15.723  3.1162  1.6269 -1.6040
11855TIP3    H257057   4.992   6.132  15.868 -0.5390 -1.7970 -0.4618
11856TIP3   OH257058   5.970   5.704  10.279  0.0593  0.5718 -0.0415
11856TIP3    H157059   5.966   5.615  10.243  0.8644  1.3046 -2.0327
11856TIP3    H257060   5.993   5.691  10.371 -0.3667 -1.2981 -0.1516
11857TIP3   OH257061   0.411   3.887  12.001  0.3477  0.1522  0.7866
11857TIP3    H157062   0.464   3.815  12.035  1.1615  0.7848  0.9042
11857TIP3    H257063   0.396   3.943  12.077  1.7821  1.3365  0.2663
11858TIP3   OH257064   6.127   4.021   0.071 -0.1871 -0.4960 -0.0158
11858TIP3    H157065   6.169   4.107   0.068 -2.7410  0.8593  0.0700
11858TIP3    H257066   6.064   4.028   0.143 -0.1507 -2.6023  0.2663
11859TIP3   OH257067   6.380   3.249  14.558 -0.1446  0.0210 -0.2931
11859TIP3    H157068   6.380   3.193  14.636  0.2003  0.5774  0.1136
11859TIP3    H257069   6.375   3.187  14.485 -1.0543 -0.4832  0.1774
11860TIP3   OH257070   3.326   6.790  14.412  0.0312  0.5342 -0.4435
11860TIP3    H157071   3.247   6.832  14.378  0.5067  1.7670 -0.0471
11860TIP3    H257072   3.353   6.845  14.485  0.5204 -0.6176  0.2757
11861TIP3   OH257073   6.462   6.132  12.388 -0.1171 -0.2575 -0.2916
11861TIP3    H157074   6.459   6.055  12.331 -0.7931 -0.6068  0.2091
11861TIP3    H257075   6.517   6.105  12.462 -1.5700 -0.7977  0.6365
11862TIP3   OH257076   0.525   5.781   4.927  0.2941 -0.3927 -0.0292
11862TIP3    H157077   0.528   5.811   5.018  1.1967  0.4612 -0.3202
11862TIP3    H257078   0.476   5.849   4.881 -3.0632 -2.3536  0.3181
11863TIP3   OH257079   3.785   1.570   5.679  0.4444  0.1043 -0.0640
11863TIP3    H157080   3.761   1.657   5.648  1.3206 -0.3785 -2.2345
11863TIP3    H257081   3.725   1.554   5.752 -0.6757  1.9369 -0.5107
11864TIP3   OH257082   0.053   6.440   2.787 -0.0864  0.1813 -0.4217
11864TIP3    H157083   0.104   6.380   2.733 -1.0158 -0.1949 -0.9006
11864TIP3    H257084   0.053   6.522   2.738  2.6284  1.1476  1.0372
11865TIP3   OH257085   3.541   1.674   4.666  0.1953  0.1186 -0.1126
11865TIP3    H157086   3.593   1.745   4.628  2.8932  0.3978  3.5263
11865TIP3    H257087   3.481   1.719   4.726 -0.8797 -0.5245 -0.6799
11866TIP3   OH257088   0.764   2.669  16.455 -0.3045 -0.2638  0.1705
11866TIP3    H157089   0.682   2.671  16.406  0.0710  0.7173 -0.4370
11866TIP3    H257090   0.751   2.731  16.526 -0.1260 -0.1822  0.1308
11867TIP3   OH257091   0.747   4.731  11.766 -0.1732 -0.2673  0.5247
11867TIP3    H157092   0.772   4.771  11.850  2.7818  1.9162 -1.1886
11867TIP3    H257093   0.815   4.666  11.749  0.3154  0.5712 -0.9238
11868TIP3   OH257094   5.032   6.636  13.580  0.4294  0.1556 -0.2006
11868TIP3    H157095   5.087   6.558  13.577 -0.3606 -0.3945 -0.8165
11868TIP3    H257096   5.016   6.651  13.673  0.2682 -0.6455 -0.0980
11869TIP3   OH257097   1.942   4.555  12.502 -0.5798  0.1744  0.1951
11869TIP3    H157098   1.868   4.547  12.442 -0.6486  2.2529 -0.0705
11869TIP3    H257099   1.908   4.605  12.576  0.3404  0.4090  0.4776
11870TIP3   OH257100   6.175   1.407   1.284  0.9702 -0.2160 -0.1855
11870TIP3    H157101   6.117   1.337   1.313 -1.6037  0.6645 -2.7350
11870TIP3    H257102   6.126   1.488   1.299  2.9892  0.9590  0.6762
11871TIP3   OH257103   4.832   5.567   5.919 -0.5640 -0.0329  0.4510
11871TIP3    H157104   4.834   5.643   5.860 -0.9142 -1.2587 -1.2256
11871TIP3    H257105   4.904   5.582   5.980 -0.4836  1.5302  0.0181
11872TIP3   OH257106   3.162   4.984  12.564 -0.4613  0.2178 -0.1100
11872TIP3    H157107   3.193   5.062  12.609  0.0196 -1.2839  2.4022
11872TIP3    H257108   3.091   5.014  12.509 -0.5332  2.3724  1.0554
11873TIP3   OH257109   0.805   4.604   0.960  0.2126  0.0033 -0.0542
11873TIP3    H157110   0.810   4.699   0.971  1.0039 -0.0498  0.0525
11873TIP3    H257111   0.777   4.571   1.046  0.9423  0.0577  0.2087
11874TIP3   OH257112   2.158   2.798   2.356  0.5165 -0.3107 -0.0642
11874TIP3    H157113   2.169   2.887   2.321  1.5716 -1.0209 -1.6469
11874TIP3    H257114   2.236   2.784   2.411  0.6688 -0.4864 -0.3258
11875TIP3   OH257115   1.683   6.350   5.482 -0.1155 -0.6058 -0.4217
11875TIP3    H157116   1.702   6.395   5.564 -0.1928  0.0089 -0.7323
11875TIP3    H257117   1.621   6.281   5.506 -0.3643 -0.2414 -0.0150
11876TIP3   OH257118   1.013   4.233  10.563 -0.2669  0.5669 -0.5257
11876TIP3    H157119   0.963   4.289  10.623 -1.6172 -0.1825 -0.9328
11876TIP3    H257120   1.092   4.285  10.544  0.4813  0.6381  2.2538
11877TIP3   OH257121   4.361   3.907  16.589  0.6192  0.5974 -0.2560
11877TIP3    H157122   4.389   3.948  16.671 -0.2028 -0.6459  0.6772
11877TIP3    H257123   4.265   3.914  16.591  0.5209 -0.5312 -0.5029
11878TIP3   OH257124   1.980   5.589   1.705  0.2444 -0.4737 -0.0500
11878TIP3    H157125   1.950   5.673   1.670 -0.7462 -0.7050  0.2120
11878TIP3    H257126   1.967   5.596   1.799  0.9180 -0.6300  0.0593
11879TIP3   OH257127   3.049   2.617  10.694 -0.3336  0.4043  0.0143
11879TIP3    H157128   3.110   2.547  10.674 -2.4430 -1.9625  1.1420
11879TIP3    H257129   3.078   2.651  10.779 -1.0526 -1.3713  1.0157
11880TIP3   OH257130   3.202   1.594   2.551  0.4208 -0.0557 -0.1816
11880TIP3    H157131   3.174   1.677   2.592 -0.6905 -0.5954  0.2020
11880TIP3    H257132   3.224   1.618   2.461  0.7755  0.7734  0.1154
11881TIP3   OH257133   0.105   0.495   2.425  0.3908 -0.0482  0.7789
11881TIP3    H157134   0.158   0.515   2.348  1.2576 -0.6022  1.2079
11881TIP3    H257135   0.107   0.399   2.431 -1.9890 -0.2242 -0.0919
11882TIP3   OH257136   6.174   3.434   2.864 -0.1418 -0.3061  0.3134
11882TIP3    H157137   6.225   3.397   2.936  0.5296 -2.0954 -1.0222
11882TIP3    H257138   6.232   3.499   2.824  0.2956 -0.8402  0.0788
11883TIP3   OH257139   4.093   4.251  12.617 -0.5898 -0.3574  0.5341
11883TIP3    H157140   4.043   4.325  12.652 -0.1686  0.1309  0.1152
11883TIP3    H257141   4.111   4.275  12.526 -0.2023 -0.8426  0.4823
11884TIP3   OH257142   2.699   5.428   0.725 -0.1150  0.0421  0.1284
11884TIP3    H157143   2.741   5.494   0.668 -0.1853 -0.4840 -0.5449
11884TIP3    H257144   2.757   5.353   0.721 -2.3059 -1.7167 -2.9679
11885TIP3   OH257145   6.339   3.539  12.670 -0.0588 -0.6122 -0.2046
11885TIP3    H157146   6.317   3.451  12.699  0.9330 -1.0704 -0.7531
11885TIP3    H257147   6.415   3.526  12.612 -0.6195  0.4728 -1.2285
11886TIP3   OH257148   5.846   3.546  11.426 -0.3468 -0.3718 -0.0493
11886TIP3    H157149   5.759   3.563  11.391 -1.2460 -0.0608  2.1731
11886TIP3    H257150   5.838   3.461  11.470  0.9321 -1.1045 -1.1476
11887TIP3   OH257151   4.912   2.463  16.627 -0.0486 -0.0656 -0.1224
11887TIP3    H157152   4.849   2.522  16.669 -0.4175 -0.2903 -0.3589
11887TIP3    H257153   4.935   2.507  16.546  0.6037  0.3296  0.2693
11888TIP3   OH257154   4.832   2.900  13.917  0.7684  0.2087  0.0004
11888TIP3    H157155   4.821   2.987  13.880 -0.6108  0.9224  1.9640
11888TIP3    H257156   4.809   2.841  13.845 -0.3092  1.5064 -0.7759
11889TIP3   OH257157   3.720   4.307   0.092  0.4309 -0.2242 -0.0145
11889TIP3    H157158   3.718   4.278   0.183  0.0695 -0.7706 -0.1990
11889TIP3    H257159   3.691   4.398   0.096  1.2693  0.0391  0.5189
11890TIP3   OH257160   1.138   2.583   4.756 -0.4996  0.6122 -0.5111
11890TIP3    H157161   1.163   2.491   4.745  2.1180  1.4030 -2.1283
11890TIP3    H257162   1.131   2.595   4.850  2.4700 -0.5257 -0.0285
11891TIP3   OH257163   6.678   3.021  15.711 -0.0371  0.4520  0.1223
11891TIP3    H157164   6.652   3.109  15.685 -0.9373  0.4764  1.0668
11891TIP3    H257165   6.604   2.988  15.762 -0.2655 -1.3356 -1.2694
11892TIP3   OH257166   3.476   3.903   4.478  0.4123  0.5660 -0.6193
11892TIP3    H157167   3.552   3.895   4.420  0.1457 -0.7646 -0.8358
11892TIP3    H257168   3.511   3.889   4.565  0.6690  1.6500 -0.5370
11893TIP3   OH257169   3.113   0.190   6.501 -0.2717 -0.2798 -0.6059
11893TIP3    H157170   3.125   0.283   6.519 -0.8895 -0.6100  1.8410
11893TIP3    H257171   3.018   0.177   6.507 -0.0216 -1.5121  1.9605
11894TIP3   OH257172   4.284   3.096   2.245  0.3669 -0.6374  0.4482
11894TIP3    H157173   4.224   3.028   2.212  0.1475 -1.0745  1.6954
11894TIP3    H257174   4.305   3.068   2.334  1.1297  0.3872  0.6044
11895TIP3   OH257175   2.583   4.545   4.835  0.0183  0.2520 -0.1977
11895TIP3    H157176   2.604   4.550   4.929  1.3530 -2.7391 -0.2202
11895TIP3    H257177   2.513   4.609   4.823 -0.7733  0.1779  3.0242
11896TIP3   OH257178   4.892   4.841  13.348  0.4428 -0.2756 -0.4752
11896TIP3    H157179   4.865   4.861  13.437 -0.9667 -1.1692 -0.6599
11896TIP3    H257180   4.952   4.767  13.356  1.5539  0.6356 -0.1780
11897TIP3   OH257181   5.291   2.560   1.321  0.4207 -0.2901 -0.0230
11897TIP3    H157182   5.246   2.489   1.367 -0.8685  0.7703  0.3830
11897TIP3    H257183   5.376   2.566   1.365 -0.1292 -0.4270  1.0959
11898TIP3   OH257184   0.124   5.052   0.198  0.5671  0.3068  0.4896
11898TIP3    H157185   0.190   5.031   0.264  1.0067  0.1925  0.0197
11898TIP3    H257186   0.115   4.972   0.146 -0.6062  0.0253  1.1012
11899TIP3   OH257187   4.048   0.980  10.796  0.2921 -0.2450  0.3268
11899TIP3    H157188   4.012   0.965  10.708 -0.4566 -1.9809  0.8855
11899TIP3    H257189   3.983   1.037  10.838  0.0686 -0.3572  0.1382
11900TIP3   OH257190   1.345   3.448   0.752  0.3218  0.0119  0.1210
11900TIP3    H157191   1.269   3.396   0.779  1.3927 -1.5675  0.1480
11900TIP3    H257192   1.306   3.528   0.715 -1.3041  0.2727  2.1792
11901TIP3   OH257193   2.773   0.594  11.820  0.1140 -0.8277 -0.4481
11901TIP3    H157194   2.701   0.652  11.844  1.0156  0.0742  0.1817
11901TIP3    H257195   2.764   0.519  11.878 -0.2892 -0.6980 -0.3401
11902TIP3   OH257196   5.116   0.326   4.357 -0.0917 -0.1932 -0.0500
11902TIP3    H157197   5.051   0.343   4.425 -2.4024 -2.3287 -1.5527
11902TIP3    H257198   5.090   0.382   4.284  0.0150 -0.7326 -0.5120
11903TIP3   OH257199   3.128   4.615   3.291 -0.0882 -0.2249 -0.2056
11903TIP3    H157200   3.090   4.628   3.378  0.3075 -0.4313  0.0046
11903TIP3    H257201   3.088   4.535   3.258 -0.5657  0.0917 -0.3986
11904TIP3   OH257202   5.196   2.301  17.054 -0.3259  0.0370 -0.7740
11904TIP3    H157203   5.278   2.319  17.007 -0.7765  0.8175 -1.2777
11904TIP3    H257204   5.225   2.277  17.143  0.4819 -0.4925 -1.1610
11905TIP3   OH257205   1.039   6.382  17.221 -0.3348  0.4734  0.1516
11905TIP3    H157206   1.016   6.449  17.157  0.3680  0.5751 -0.0022
11905TIP3    H257207   0.957   6.336  17.239 -0.3492 -0.2817 -1.6384
11906TIP3   OH257208   2.191   3.307   0.597  0.1456 -0.0529 -0.3479
11906TIP3    H157209   2.287   3.300   0.600  0.2537  1.1683 -0.1235
11906TIP3    H257210   2.165   3.252   0.524  0.9041 -1.3631  0.3240
11907TIP3   OH257211   6.029   1.318  12.163 -0.0411 -0.3163 -0.4332
11907TIP3    H157212   6.007   1.409  12.184 -0.7560  0.0084 -2.4117
11907TIP3    H257213   6.016   1.271  12.246 -1.9919  0.9781  0.0769
11908TIP3   OH257214   6.239   4.817   3.284  0.5984 -0.0510 -0.0998
11908TIP3    H157215   6.183   4.849   3.354  0.6873 -0.0242 -0.0402
11908TIP3    H257216   6.306   4.884   3.274  2.2650 -1.3337  1.7300
11909TIP3   OH257217   5.861   3.056  16.245  0.7010 -0.0917 -0.3942
11909TIP3    H157218   5.774   3.015  16.240  0.0463  1.2205 -0.2002
11909TIP3    H257219   5.874   3.073  16.338 -0.1022  2.2498 -0.6505
11910TIP3   OH257220   5.186   1.832  11.875  0.2949 -0.2268 -0.1287
11910TIP3    H157221   5.235   1.913  11.857  1.1374 -0.7848 -0.3989
11910TIP3    H257222   5.141   1.850  11.957  2.7379 -0.4453  1.3662
11911TIP3   OH257223   1.671   6.814  13.715  0.6031 -0.2856 -0.4018
11911TIP3    H157224   1.617   6.736  13.701 -1.7795  1.0713  0.6750
11911TIP3    H257225   1.618   6.887  13.682  0.9661  1.3225  2.2745
11912TIP3   OH257226   0.876   3.518  12.156 -0.3288 -0.3911 -0.0423
11912TIP3    H157227   0.784   3.542  12.140 -0.6242  0.7881  2.6979
11912TIP3    H257228   0.923   3.602  12.152  0.1990 -0.6306  0.8667
11913TIP3   OH257229   2.017   3.805  16.041  0.5704  0.3444 -0.5356
11913TIP3    H157230   2.075   3.735  16.070  0.1782 -0.2452 -1.1763
11913TIP3    H257231   2.074   3.881  16.031  0.9080  0.2851  0.6961
11914TIP3   OH257232   5.256   2.626   6.005  0.3470 -0.1607  0.2256
11914TIP3    H157233   5.287   2.671   5.926  1.1710  0.9397  1.1596
11914TIP3    H257234   5.283   2.535   5.993 -0.9069 -0.3705 -1.4599
11915TIP3   OH257235   1.132   6.723  12.088 -0.2061 -0.7778 -0.5068
11915TIP3    H157236   1.078   6.798  12.061 -0.4067  0.0782  1.9991
11915TIP3    H257237   1.068   6.658  12.119  0.0135 -1.6952 -1.8968
11916TIP3   OH257238   4.413   4.647  12.281 -0.0684  0.2810  1.1711
11916TIP3    H157239   4.435   4.637  12.189 -0.4325 -0.3334  1.1474
11916TIP3    H257240   4.479   4.596  12.328 -0.4320 -0.1848  1.1903
11917TIP3   OH257241   4.017   1.028  15.234 -0.2636  0.3200  0.5102
11917TIP3    H157242   4.076   1.045  15.307  1.9674  1.8072 -1.4669
11917TIP3    H257243   4.060   1.068  15.158 -2.7102 -0.6109 -1.5467
11918TIP3   OH257244   6.695   0.296   5.269  0.3486  0.0252 -0.5938
11918TIP3    H157245   6.711   0.261   5.182  0.9312 -0.5480 -0.2610
11918TIP3    H257246   6.743   0.379   5.271  0.3054  0.0559 -0.8280
11919TIP3   OH257247   4.854   4.525  15.323 -0.2156  0.1438  0.0570
11919TIP3    H157248   4.907   4.560  15.251 -0.3630  2.7168  1.0765
11919TIP3    H257249   4.771   4.573  15.317 -0.1479  0.6133  2.0295
11920TIP3   OH257250   6.426   5.541   6.171  0.0653 -0.4754 -0.0257
11920TIP3    H157251   6.352   5.546   6.232 -1.2555 -1.1445 -1.5105
11920TIP3    H257252   6.475   5.464   6.199 -1.2974 -1.5750 -0.6201
11921TIP3   OH257253   2.597   2.351  15.650  0.1946 -0.1041 -0.4449
11921TIP3    H157254   2.575   2.409  15.577  0.1784 -0.4185 -0.6929
11921TIP3    H257255   2.556   2.268  15.628 -0.3542 -0.0225  0.2333
11922TIP3   OH257256   6.108   2.412   5.140  0.1680 -0.0152 -0.4607
11922TIP3    H157257   6.193   2.372   5.122 -0.0355  0.0448 -1.6521
11922TIP3    H257258   6.048   2.366   5.081 -0.3028  1.1629 -0.9259
11923TIP3   OH257259   2.284   1.853  13.467  0.0802 -0.2390  0.8695
11923TIP3    H157260   2.365   1.809  13.491  0.9274  1.2873  0.9531
11923TIP3    H257261   2.253   1.894  13.548 -0.4023 -0.2389  0.6912
11924TIP3   OH257262   2.955   3.268  12.884  0.1007  0.3739  0.1187
11924TIP3    H157263   2.983   3.359  12.895 -0.4089  0.4392  0.9745
11924TIP3    H257264   3.004   3.221  12.952 -1.6724  0.4654  1.5392
11925TIP3   OH257265   2.718   1.061   4.297 -0.8196 -0.4307  0.2858
11925TIP3    H157266   2.658   1.135   4.289  0.3117  0.5097  0.2827
11925TIP3    H257267   2.781   1.073   4.226  0.8469  0.0194  1.7654
11926TIP3   OH257268   6.331   2.414   1.237 -0.3081  0.9312  0.1345
11926TIP3    H157269   6.300   2.356   1.168 -0.1662 -0.1505  0.9570
11926TIP3    H257270   6.267   2.403   1.308 -0.6942  2.3536  0.0288
11927TIP3   OH257271   3.090   6.810  15.851 -0.6828 -0.4879  0.4834
11927TIP3    H157272   3.131   6.803  15.765  0.4060 -1.3205  1.0485
11927TIP3    H257273   3.140   6.751  15.907 -0.3829  1.1476  2.0595
11928TIP3   OH257274   6.001   2.592  14.417 -0.0585 -0.0585 -0.4265
11928TIP3    H157275   6.031   2.504  14.440 -1.9656 -0.2681  1.6579
11928TIP3    H257276   6.032   2.648  14.489 -1.4967  0.3579 -0.0966
11929TIP3   OH257277   6.786   5.596  13.417 -0.1809 -0.7100 -0.0983
11929TIP3    H157278   6.802   5.679  13.372 -2.8984  0.2204  0.4696
11929TIP3    H257279   6.696   5.573  13.393 -0.7254 -1.6348  2.5649
11930TIP3   OH257280   5.917   0.233   3.773 -0.0075 -0.7628 -0.1383
11930TIP3    H157281   5.965   0.205   3.695 -0.3500 -1.4606 -0.1105
11930TIP3    H257282   5.854   0.162   3.789  1.6685 -1.8733  2.1695
11931TIP3   OH257283   2.738   0.378  12.002 -0.2383  0.2919  0.5797
11931TIP3    H157284   2.797   0.405  12.072 -0.7580  1.4167  0.5966
11931TIP3    H257285   2.789   0.314  11.952  0.5268  0.2900  1.3372
11932TIP3   OH257286   4.824   1.276   3.426 -0.5085 -0.1615 -0.1451
11932TIP3    H157287   4.891   1.341   3.407  1.3261 -0.5900  3.7769
11932TIP3    H257288   4.833   1.210   3.357 -0.1078  2.0004 -2.2716
11933TIP3   OH257289   5.658   3.338  11.124 -0.1377 -0.0115  0.0012
11933TIP3    H157290   5.721   3.278  11.083  0.1830 -0.9739  1.7744
11933TIP3    H257291   5.578   3.286  11.133  0.2008 -0.2766  1.7307
11934TIP3   OH257292   4.458   2.614  12.790 -0.1232 -0.0381 -0.1041
11934TIP3    H157293   4.536   2.559  12.783  0.7752  1.3211 -1.1462
11934TIP3    H257294   4.474   2.670  12.865 -0.3175 -0.0743 -0.0339
11935TIP3   OH257295   2.902   5.100  12.697  0.7900 -0.3744 -0.0365
11935TIP3    H157296   2.811   5.075  12.711  1.0796 -1.7366 -0.4069
11935TIP3    H257297   2.914   5.096  12.602  1.4666 -1.1450  0.0701
11936TIP3   OH257298   0.894   2.810   3.535  0.8297  0.0410 -0.5402
11936TIP3    H157299   0.912   2.866   3.459 -0.3247  0.2793 -0.6540
11936TIP3    H257300   0.812   2.766   3.513  1.2698 -1.0488 -0.0750
11937TIP3   OH257301   3.534   3.121  15.812  0.1536 -0.1405 -0.5009
11937TIP3    H157302   3.555   3.206  15.773 -1.4744  1.3388  1.5940
11937TIP3    H257303   3.460   3.089  15.761 -0.1100  0.3812 -0.4556
11938TIP3   OH257304   5.239   0.963  16.062  0.0664  0.2202  0.5344
11938TIP3    H157305   5.226   0.877  16.103 -0.7749  0.5995  1.0843
11938TIP3    H257306   5.161   0.975  16.007 -0.1037  0.8791  0.9112
11939TIP3   OH257307   0.699   4.463  10.965 -0.0827  0.0231  0.0827
11939TIP3    H157308   0.639   4.526  11.004  0.2925  1.3882 -1.4023
11939TIP3    H257309   0.775   4.462  11.024 -0.9059 -0.5979  1.1743
11940TIP3   OH257310   5.424   0.201  11.314  0.2966 -0.8762  0.1960
11940TIP3    H157311   5.421   0.281  11.261 -0.2363 -1.3585 -0.5239
11940TIP3    H257312   5.482   0.143  11.265 -0.3008 -1.3727  0.0681
11941TIP3   OH257313   2.873   0.805  14.461 -0.2601 -0.1326  0.0013
11941TIP3    H157314   2.933   0.779  14.530  0.8556  0.5422 -0.6728
11941TIP3    H257315   2.791   0.824  14.506 -0.0820 -1.3996  0.9048
11942TIP3   OH257316   0.381   3.349  15.040 -0.2693 -0.5925  0.2057
11942TIP3    H157317   0.359   3.432  14.996 -1.1685 -0.6864  0.4690
11942TIP3    H257318   0.355   3.281  14.977  0.9327 -0.6784 -0.2203
11943TIP3   OH257319   1.604   0.395   2.307  0.3638  0.1635 -0.2753
11943TIP3    H157320   1.581   0.469   2.363  0.1760  0.2921 -0.5217
11943TIP3    H257321   1.547   0.403   2.231 -0.6387 -1.0238  0.3208
11944TIP3   OH257322   1.158   1.807  13.479 -0.4179 -0.3258 -0.1052
11944TIP3    H157323   1.173   1.769  13.565 -1.3136 -0.0388  0.1934
11944TIP3    H257324   1.138   1.732  13.423  0.4312 -0.5397 -0.1328
11945TIP3   OH257325   5.226   0.473  15.865  0.2834  0.3388  0.2840
11945TIP3    H157326   5.273   0.469  15.949  1.4072 -0.3178 -0.3512
11945TIP3    H257327   5.173   0.394  15.864  1.0403 -0.1824 -0.0399
11946TIP3   OH257328   5.281   3.700   5.141 -0.1649  0.6560  0.4610
11946TIP3    H157329   5.345   3.736   5.080 -0.8737  1.7150  0.3168
11946TIP3    H257330   5.290   3.753   5.220  1.4347 -1.3188  1.7281
11947TIP3   OH257331   5.051   4.994   1.132  0.3654  0.3988  0.2018
11947TIP3    H157332   5.120   4.980   1.068 -1.2265 -0.9792 -1.3228
11947TIP3    H257333   5.075   4.939   1.206  0.2193 -1.2470 -0.9216
11948TIP3   OH257334   5.500   4.832  15.383 -0.1138 -0.0052 -0.4306
11948TIP3    H157335   5.483   4.926  15.397 -0.6062 -0.1219 -0.2426
11948TIP3    H257336   5.417   4.790  15.401  0.5048 -0.6483  1.0762
11949TIP3   OH257337   2.847   1.136  12.710 -0.0482  0.0891 -0.1133
11949TIP3    H157338   2.868   1.218  12.666  0.2399 -0.5699 -1.2223
11949TIP3    H257339   2.894   1.140  12.793 -1.1633  1.6572  0.4867
11950TIP3   OH257340   1.817   1.205   2.467  0.1935  0.3017 -0.0530
11950TIP3    H157341   1.785   1.294   2.484  0.9441  0.5631  0.0654
11950TIP3    H257342   1.752   1.166   2.410 -0.2746  0.8458  0.1011
11951TIP3   OH257343   0.359   5.901  13.411  0.9121 -0.2509 -0.6353
11951TIP3    H157344   0.417   5.962  13.366 -0.4765  0.8132 -1.0155
11951TIP3    H257345   0.274   5.943  13.412  0.4351 -1.1301  1.2335
11952TIP3   OH257346   4.245   2.115   5.485 -0.2953  0.1311  0.5295
11952TIP3    H157347   4.184   2.189   5.477 -0.9364 -0.3884  0.5515
11952TIP3    H257348   4.219   2.070   5.565 -0.3502 -0.5197  0.1531
11953TIP3   OH257349   0.458   4.853  15.058 -0.3846  1.0535 -0.1204
11953TIP3    H157350   0.405   4.813  15.127  0.1804  0.6308  0.0743
11953TIP3    H257351   0.477   4.941  15.090  0.7989  0.4889  0.7733
11954TIP3   OH257352   1.283   1.575   3.131  0.3674 -0.7279  0.3212
11954TIP3    H157353   1.269   1.632   3.056  0.3404 -2.2837 -0.8954
11954TIP3    H257354   1.359   1.613   3.176 -0.3856  0.9422  0.2574
11955TIP3   OH257355   2.201   3.814   4.727 -0.5799 -0.0434  0.3659
11955TIP3    H157356   2.271   3.846   4.784  0.2826  0.7420 -1.0648
11955TIP3    H257357   2.169   3.892   4.682 -0.8669 -0.6943 -0.6079
11956TIP3   OH257358   1.640   4.924   1.597  0.5703 -0.3917  0.1139
11956TIP3    H157359   1.604   4.878   1.521  1.5895 -0.6499 -0.2271
11956TIP3    H257360   1.734   4.932   1.578  0.7766 -0.1315  1.1806
11957TIP3   OH257361   4.997   2.554  11.629 -0.4412 -0.5135  0.0700
11957TIP3    H157362   5.090   2.560  11.609 -0.5595  2.5172 -0.0479
11957TIP3    H257363   4.953   2.586  11.550 -1.3770  1.3288  1.2583
11958TIP3   OH257364   5.518   1.367   4.485  0.2830  0.6635  0.0918
11958TIP3    H157365   5.423   1.374   4.495  0.3372 -0.6391  2.0145
11958TIP3    H257366   5.530   1.305   4.414 -0.3502 -0.4260  0.9057
11959TIP3   OH257367   6.730   6.429   4.293  0.2036 -0.0870 -0.4022
11959TIP3    H157368   6.785   6.407   4.368  0.4943 -1.3839 -0.9649
11959TIP3    H257369   6.710   6.522   4.304  1.2367  0.0350  0.6321
11960TIP3   OH257370   1.847   2.961   1.602  0.5743  0.7814 -0.3106
11960TIP3    H157371   1.896   2.882   1.625 -0.2301 -0.0707 -1.4041
11960TIP3    H257372   1.782   2.971   1.671  1.3232  1.0771  0.3628
11961TIP3   OH257373   0.119   2.232  16.434  0.1629 -0.0106 -0.1744
11961TIP3    H157374   0.064   2.272  16.502 -0.7597 -0.5037 -0.6230
11961TIP3    H257375   0.146   2.305  16.378  0.2357  0.2744  0.2277
11962TIP3   OH257376   1.492   5.636  11.739  0.5894  0.5039  0.0368
11962TIP3    H157377   1.517   5.719  11.781  0.0272  0.2559  0.8909
11962TIP3    H257378   1.404   5.619  11.772 -0.5755  1.1129 -2.5105
11963TIP3   OH257379   1.274   0.647  15.683 -0.1376 -0.3250 -0.1259
11963TIP3    H157380   1.352   0.614  15.728  1.1329  0.9073 -1.3175
11963TIP3    H257381   1.278   0.608  15.596 -1.2657 -0.8012  0.0175
11964TIP3   OH257382   6.442   6.425   4.826  0.0890 -0.8355 -0.5319
11964TIP3    H157383   6.420   6.435   4.733  2.2412 -0.7687 -1.0817
11964TIP3    H257384   6.442   6.515   4.860 -1.0607 -0.8876 -0.3384
11965TIP3   OH257385   5.876   3.906   4.454  0.3636  0.2983 -0.1776
11965TIP3    H157386   5.825   3.923   4.534 -2.1518 -2.0404 -1.1402
11965TIP3    H257387   5.849   3.975   4.393  0.7960  0.9057  0.2933
11966TIP3   OH257388   0.334   2.945   1.116 -0.1068  0.2302  0.3242
11966TIP3    H157389   0.279   2.912   1.045 -0.2011  2.4756 -0.7250
11966TIP3    H257390   0.405   2.881   1.123 -2.0682 -2.0480  0.8293
11967TIP3   OH257391   3.047   3.969  16.310 -0.1774  0.3218  0.2209
11967TIP3    H157392   3.052   4.031  16.237 -0.7070  1.4376  1.0975
11967TIP3    H257393   3.097   3.893  16.281  0.8179  1.3155 -0.7470
11968TIP3   OH257394   0.570   1.589   3.441 -0.0718  0.0243 -0.4151
11968TIP3    H157395   0.646   1.638   3.409 -0.5683  1.2866  0.2973
11968TIP3    H257396   0.567   1.511   3.385  1.3735  0.2611 -0.8574
11969TIP3   OH257397   5.856   1.575   1.462 -0.0881  0.1635 -0.6961
11969TIP3    H157398   5.905   1.611   1.388  1.9592 -0.5235  0.2539
11969TIP3    H257399   5.791   1.517   1.422 -0.4632  1.4559 -2.0270
11970TIP3   OH257400   0.535   0.474  10.723 -0.0404 -0.3462  0.7619
11970TIP3    H157401   0.613   0.422  10.741 -0.5470 -1.1980  0.5654
11970TIP3    H257402   0.567   0.552  10.677  0.6117 -1.1162 -0.1243
11971TIP3   OH257403   4.423   2.606  12.529  0.4105 -0.3344  0.2378
11971TIP3    H157404   4.417   2.638  12.619 -0.3742  0.8408 -0.2057
11971TIP3    H257405   4.376   2.523  12.530 -0.5901  0.2182  0.6916
11972TIP3   OH257406   4.776   1.639   6.577  0.1821  0.8114  0.4562
11972TIP3    H157407   4.840   1.595   6.633  0.3167 -0.1032 -0.3916
11972TIP3    H257408   4.793   1.733   6.590  0.8354  0.6045  1.2036
11973TIP3   OH257409   4.376   0.289   2.968 -0.1023  0.1096  0.7899
11973TIP3    H157410   4.395   0.256   3.055  0.0516 -1.7935  0.0826
11973TIP3    H257411   4.461   0.293   2.924 -0.4232 -1.5185 -0.0815
11974TIP3   OH257412   0.672   0.636  16.558 -0.4121  0.3305 -0.1479
11974TIP3    H157413   0.765   0.644  16.538 -0.1689 -1.8883 -0.1523
11974TIP3    H257414   0.657   0.700  16.628  1.5234 -0.4594  1.0661
11975TIP3   OH257415   5.919   2.023  14.689  0.4709 -0.1991  0.0289
11975TIP3    H157416   5.877   1.938  14.699 -0.7630  0.0427 -2.3247
11975TIP3    H257417   5.939   2.051  14.778 -1.0230 -1.9961  0.9922
11976TIP3   OH257418   4.540   4.457  14.374 -0.3668  0.7735 -0.2509
11976TIP3    H157419   4.615   4.401  14.355  0.1222  1.2887  0.1243
11976TIP3    H257420   4.569   4.545  14.352 -0.9148  0.9639 -0.2390
11977TIP3   OH257421   0.166   5.925  13.093 -0.3407 -0.3649 -0.5867
11977TIP3    H157422   0.149   5.859  13.025 -0.4722 -1.0185  0.0761
11977TIP3    H257423   0.162   5.877  13.175 -1.0632  0.5836 -0.0469
11978TIP3   OH257424   6.257   4.818   1.301  0.4712 -0.1768 -0.3460
11978TIP3    H157425   6.313   4.772   1.363  0.2091  0.2506  0.2149
11978TIP3    H257426   6.172   4.773   1.307 -0.2698  1.3374  1.3941
11979TIP3   OH257427   6.584   0.528  12.321 -0.1725  0.0912  0.1866
11979TIP3    H157428   6.627   0.597  12.371 -0.6848  0.2382  0.4350
11979TIP3    H257429   6.636   0.449  12.339  0.6187  0.4688 -0.3710
11980TIP3   OH257430   6.829   0.381   0.990  0.1244  0.7150  0.3602
11980TIP3    H157431   6.740   0.350   0.971 -0.5738  1.6653  1.8959
11980TIP3    H257432   6.825   0.411   1.080  1.4549  2.7359 -0.1837
11981TIP3   OH257433   4.651   1.428   4.389 -0.3634 -0.4105  0.5453
11981TIP3    H157434   4.578   1.366   4.387 -1.0385  0.3558  1.0079
11981TIP3    H257435   4.697   1.414   4.306  0.1793 -2.3240  1.1194
11982TIP3   OH257436   6.077   2.598  15.540  0.1679 -0.3359 -0.0770
11982TIP3    H157437   6.171   2.605  15.557  0.7048  0.9790 -3.0231
11982TIP3    H257438   6.045   2.688  15.542 -0.4230 -0.4668 -1.8965
11983TIP3   OH257439   6.565   6.175  15.616  0.4990  0.5479  0.2519
11983TIP3    H157440   6.546   6.267  15.598  0.5167  0.3255 -0.9976
11983TIP3    H257441   6.575   6.135  15.529  0.8134 -0.5642  0.7813
11984TIP3   OH257442   6.739   5.846  13.237 -0.5456  0.0595 -0.2395
11984TIP3    H157443   6.748   5.879  13.148 -1.8418  0.6748 -0.1524
11984TIP3    H257444   6.686   5.767  13.228  2.0365 -1.8294 -0.3763
11985TIP3   OH257445   5.212   2.773  16.256 -0.1902  0.0391 -0.2811
11985TIP3    H157446   5.233   2.685  16.224  2.8074  0.7612 -0.6059
11985TIP3    H257447   5.121   2.786  16.229 -0.4525 -2.5927 -1.0320
11986TIP3   OH257448   0.562   3.500  15.537 -0.2877 -0.1381 -0.7087
11986TIP3    H157449   0.614   3.573  15.571 -1.9874  0.6656  0.3197
11986TIP3    H257450   0.520   3.463  15.614  0.5606 -2.2656 -1.2126
11987TIP3   OH257451   6.173   5.910  12.748  0.5692 -0.2362  0.3313
11987TIP3    H157452   6.161   5.946  12.836  0.1625  2.4563 -0.7461
11987TIP3    H257453   6.086   5.885  12.719  0.6384 -0.6838  0.5008
11988TIP3   OH257454   3.113   0.053  14.861  0.3428  0.5351  0.5318
11988TIP3    H157455   3.162   0.122  14.817 -2.0542  1.8329 -0.2887
11988TIP3    H257456   3.142   0.057  14.952  1.5409  1.3766  0.1383
11989TIP3   OH257457   3.456   4.649  13.375 -0.4951  0.5322  0.4540
11989TIP3    H157458   3.475   4.741  13.355 -0.3498 -0.2258 -3.9998
11989TIP3    H257459   3.360   4.643  13.373 -0.4880  0.3331 -1.4633
11990TIP3   OH257460   1.285   3.772  13.467  0.7181 -0.1153 -0.2835
11990TIP3    H157461   1.322   3.694  13.426  0.1406 -0.2945 -0.4784
11990TIP3    H257462   1.199   3.782  13.425  0.7646  0.5892 -0.2186
11991TIP3   OH257463   6.122   5.945  10.806  0.4508 -0.0377 -0.3964
11991TIP3    H157464   6.096   5.979  10.720 -0.0167 -0.5825 -0.4787
11991TIP3    H257465   6.081   5.859  10.811  0.6307 -0.0909  0.2987
11992TIP3   OH257466   6.799   3.136   2.845 -0.1178 -0.1135  0.1150
11992TIP3    H157467   6.723   3.122   2.901 -0.4666 -0.1539 -0.3673
11992TIP3    H257468   6.783   3.221   2.803 -0.5494 -0.7218 -1.0044
11993TIP3   OH257469   5.273   3.086  12.145  0.1531  0.2413 -0.6443
11993TIP3    H157470   5.328   3.131  12.081  1.6627 -2.3252 -1.2836
11993TIP3    H257471   5.335   3.038  12.200 -1.2847  0.2480  1.0489
11994TIP3   OH257472   1.003   2.052   1.102 -0.7759  0.3105  0.2780
11994TIP3    H157473   0.925   2.083   1.149 -0.0473 -0.5888  2.1695
11994TIP3    H257474   0.988   1.958   1.091 -0.2015  0.2267  0.1937
11995TIP3   OH257475   1.386   4.460   0.967  0.2887 -0.0009 -0.2791
11995TIP3    H157476   1.423   4.509   0.894  1.9740 -0.7632 -0.0118
11995TIP3    H257477   1.309   4.510   0.994  0.8875  1.4724 -1.1731
11996TIP3   OH257478   0.829   4.591   4.337 -0.7049 -0.1529  0.2217
11996TIP3    H157479   0.871   4.674   4.312  0.8495 -0.6553  1.0428
11996TIP3    H257480   0.863   4.527   4.274 -1.4119 -0.3031 -0.0181
11997TIP3   OH257481   4.687   5.539   0.652 -0.1118  0.4182 -0.1161
11997TIP3    H157482   4.664   5.631   0.636 -2.0579  0.0853  0.6155
11997TIP3    H257483   4.612   5.503   0.698  0.6795 -1.5352 -0.2887
11998TIP3   OH257484   1.279   5.887  11.770 -0.1558 -0.4865 -0.2662
11998TIP3    H157485   1.204   5.827  11.774 -1.8693  1.3225 -2.6578
11998TIP3    H257486   1.328   5.858  11.693  0.3452 -0.2393 -0.0434
11999TIP3   OH257487   0.796   1.905  16.916  0.0151 -0.0240  0.4200
11999TIP3    H157488   0.862   1.843  16.885 -2.2635 -3.5728  1.9872
11999TIP3    H257489   0.745   1.927  16.838 -0.0116 -1.3875  0.0193
12000TIP3   OH257490   5.597   4.251  14.264  0.6220 -0.0827  0.0918
12000TIP3    H157491   5.662   4.183  14.279 -0.2930 -0.8840  0.5484
12000TIP3    H257492   5.513   4.208  14.277 -0.0013  1.0336 -0.0374
12001TIP3   OH257493   2.644   5.065  14.406 -0.0163  0.7622 -0.3162
12001TIP3    H157494   2.685   4.996  14.354 -0.3874  1.1666 -1.1764
12001TIP3    H257495   2.553   5.038  14.414  0.3203  0.0301  1.3066
12002TIP3   OH257496   6.762   2.373  13.498  0.2110 -0.2507 -0.0590
12002TIP3    H157497   6.813   2.321  13.561 -1.5980 -1.1143  0.7769
12002TIP3    H257498   6.681   2.394  13.545 -0.6636  0.1687 -1.6907
12003TIP3   OH257499   1.968   5.238   1.727  0.0267  0.3066 -0.1517
12003TIP3    H157500   1.910   5.308   1.756  0.7754  0.9328 -0.1300
12003TIP3    H257501   2.023   5.279   1.659  0.9555 -0.0506  0.3628
12004TIP3   OH257502   1.901   3.231  16.443 -0.2107  0.0826 -0.0661
12004TIP3    H157503   1.865   3.264  16.525 -1.1547 -0.6405 -0.1627
12004TIP3    H257504   1.868   3.141  16.437  1.2003 -0.4420 -0.4313
12005TIP3   OH257505   4.202   2.214  15.070 -0.3673 -0.2792  0.2960
12005TIP3    H157506   4.284   2.164  15.078  0.9160  0.9714 -3.1409
12005TIP3    H257507   4.142   2.153  15.025 -0.2028 -0.1391 -0.1211
12006TIP3   OH257508   2.408   4.424  11.951  0.1972 -0.0609  0.9795
12006TIP3    H157509   2.499   4.406  11.927  0.5919  1.3139  1.3317
12006TIP3    H257510   2.362   4.341  11.938  1.8576 -1.2866  2.5028
12007TIP3   OH257511   0.228   3.815   4.958  0.3316  0.3712 -0.5199
12007TIP3    H157512   0.302   3.845   5.012 -0.7557  0.6780  0.8607
12007TIP3    H257513   0.242   3.858   4.873  1.8815  0.1903 -0.3936
12008TIP3   OH257514   4.729   2.768   0.590 -0.1340  0.6853  0.2081
12008TIP3    H157515   4.789   2.841   0.604  0.0165  0.7004 -0.4757
12008TIP3    H257516   4.780   2.690   0.611  0.9674  0.4951 -2.6117
12009TIP3   OH257517   4.964   0.686   5.590 -0.2912 -0.5505  0.0627
12009TIP3    H157518   5.002   0.638   5.664  0.3129  1.6886  1.2794
12009TIP3    H257519   5.038   0.710   5.536 -0.5795 -0.8549 -0.4765
12010TIP3   OH257520   2.558   0.632  16.763 -0.4018  0.1228 -0.5764
12010TIP3    H157521   2.499   0.616  16.690 -1.1342  1.3454 -0.2775
12010TIP3    H257522   2.501   0.644  16.838  0.3563 -1.5597  0.3219
12011TIP3   OH257523   0.319   6.469  13.206  1.0086 -0.2850  0.2323
12011TIP3    H157524   0.307   6.446  13.114 -0.1096 -0.9958  0.5437
12011TIP3    H257525   0.231   6.478  13.241  1.4183  0.3279  1.1594
12012TIP3   OH257526   3.143   5.592   1.099 -0.2355  0.2455  0.4842
12012TIP3    H157527   3.128   5.658   1.167  1.0312  1.2467 -0.1599
12012TIP3    H257528   3.172   5.514   1.147 -1.0063  0.3792  1.1964
12013TIP3   OH257529   6.463   2.469   4.945 -0.3175 -0.5924  0.2786
12013TIP3    H157530   6.486   2.548   4.993 -1.5966 -0.6281  0.9980
12013TIP3    H257531   6.547   2.435   4.913  0.3616  0.4485  0.8956
12014TIP3   OH257532   5.869   6.282   3.321 -0.5484  0.3811 -0.0768
12014TIP3    H157533   5.798   6.338   3.352 -0.8328 -1.1051  2.1612
12014TIP3    H257534   5.947   6.316   3.364 -0.5231 -0.1675  0.3215
12015TIP3   OH257535   3.760   3.151  14.093  0.0903  0.2841  0.7647
12015TIP3    H157536   3.701   3.204  14.147 -1.6633 -1.3915  0.5757
12015TIP3    H257537   3.807   3.096  14.156 -2.9270 -2.6600  0.7376
12016TIP3   OH257538   0.466   2.891   3.285  0.0589 -0.7838 -0.0402
12016TIP3    H157539   0.521   2.939   3.223  1.2782 -1.3241  0.5755
12016TIP3    H257540   0.439   2.813   3.238  1.8767 -1.7314  0.4037
12017TIP3   OH257541   6.213   4.931  13.919 -0.4802 -0.3032  0.0403
12017TIP3    H157542   6.196   4.881  13.999  0.1411  0.7528  0.8520
12017TIP3    H257543   6.279   4.996  13.945 -0.8163  0.5319 -1.1444
12018TIP3   OH257544   4.455   3.825  12.814  0.1688 -0.5425  0.1914
12018TIP3    H157545   4.396   3.834  12.888 -1.7693  0.6004 -1.3876
12018TIP3    H257546   4.476   3.914  12.789  0.0612 -0.8686 -1.1539
12019TIP3   OH257547   0.999   3.842   5.788 -0.0574 -0.5604 -0.1798
12019TIP3    H157548   0.966   3.805   5.870 -0.2654 -0.7181 -0.3333
12019TIP3    H257549   1.075   3.789   5.766 -0.2261 -0.7601 -0.2853
12020TIP3   OH257550   3.392   1.111   0.419 -0.4674  0.1109 -0.2562
12020TIP3    H157551   3.349   1.168   0.483 -0.0260 -0.2988  0.4180
12020TIP3    H257552   3.465   1.073   0.466 -0.5306 -0.7286 -0.8108
12021TIP3   OH257553   1.628   4.097  14.514 -0.5500  0.2341  0.0572
12021TIP3    H157554   1.629   4.068  14.423 -0.5246  0.0230  0.1224
12021TIP3    H257555   1.679   4.178  14.515  0.1848 -0.2150  0.0271
12022TIP3   OH257556   5.356   1.988   2.513  0.3771 -1.1358 -0.1638
12022TIP3    H157557   5.374   2.061   2.572 -1.0293 -0.3839 -0.6212
12022TIP3    H257558   5.292   2.022   2.451  0.9549 -2.2538 -1.4379
12023TIP3   OH257559   2.597   6.765  14.610  0.5558 -0.4519 -0.0993
12023TIP3    H157560   2.622   6.823  14.538 -0.2632  0.0113 -0.0265
12023TIP3    H257561   2.603   6.677  14.573 -1.2599 -0.1710 -1.2228
12024TIP3   OH257562   4.355   2.424  14.962  0.2533  0.5317  0.3530
12024TIP3    H157563   4.302   2.350  14.992 -0.9233  2.2174  2.7859
12024TIP3    H257564   4.432   2.424  15.018  0.3424  1.0311  0.2373
12025TIP3   OH257565   0.690   4.121   1.077 -0.3189 -0.1451  0.5164
12025TIP3    H157566   0.708   4.080   1.162 -0.5275 -0.0114  0.6234
12025TIP3    H257567   0.644   4.053   1.027  0.0739 -0.3312  0.4007
12026TIP3   OH257568   4.878   1.370   4.760 -0.2501  0.5204 -0.0662
12026TIP3    H157569   4.895   1.276   4.758 -0.9466  0.2708  2.4674
12026TIP3    H257570   4.915   1.400   4.843 -1.6594  2.1282  0.0571
12027TIP3   OH257571   0.143   4.730  15.695  0.7069 -0.0142 -0.0853
12027TIP3    H157572   0.088   4.651  15.691  1.7463 -0.7519 -0.3532
12027TIP3    H257573   0.182   4.735  15.608  1.9405 -0.1564  0.4501
12028TIP3   OH257574   2.985   4.337  10.158 -0.4272 -0.2853  0.3033
12028TIP3    H157575   3.031   4.362  10.078  0.5134  2.0835  1.4767
12028TIP3    H257576   2.925   4.409  10.175  0.6700  0.1729  2.6233
12029TIP3   OH257577   1.127   1.704  17.242  0.2189  0.4433  0.1094
12029TIP3    H157578   1.103   1.681  17.332  1.7171  0.4262  0.5250
12029TIP3    H257579   1.151   1.797  17.247 -1.0522  0.8356 -0.5808
12030TIP3   OH257580   4.217   2.272   1.638  0.2499 -0.1427 -0.0046
12030TIP3    H157581   4.174   2.310   1.715  1.1847 -0.1208  0.5130
12030TIP3    H257582   4.309   2.294   1.648  0.0798  2.3883 -2.5630
12031TIP3   OH257583   0.997   6.136  16.283  0.1945  0.0202 -0.3562
12031TIP3    H157584   0.915   6.119  16.329 -0.2809  0.5337 -0.9883
12031TIP3    H257585   1.026   6.050  16.253 -0.5843 -0.0674 -0.8963
12032TIP3   OH257586   1.439   0.991  13.076  0.3875 -0.2210 -0.4039
12032TIP3    H157587   1.454   0.969  12.984  1.4760 -2.5421  0.2520
12032TIP3    H257588   1.369   0.933  13.104  0.7234 -0.2297  0.4750
12033TIP3   OH257589   3.687   1.669   0.089  0.3152 -0.0865 -0.1619
12033TIP3    H157590   3.762   1.659   0.149 -0.5249 -1.5065  0.7130
12033TIP3    H257591   3.628   1.728   0.134  1.1892  1.6607 -1.1956
12034TIP3   OH257592   1.992   3.796   5.841  0.2239  0.1055  0.3866
12034TIP3    H157593   1.994   3.890   5.827 -1.4313  0.1951  0.5618
12034TIP3    H257594   1.983   3.786   5.935  0.0472 -0.2277  0.3344
12035TIP3   OH257595   0.977   2.575  13.492  0.4403 -0.4319  0.1106
12035TIP3    H157596   0.935   2.489  13.485 -0.2640 -0.0959  0.1557
12035TIP3    H257597   1.062   2.564  13.449 -0.5444 -0.5588 -1.9034
12036TIP3   OH257598   2.502   6.398   6.056  0.4816 -0.2297 -0.0396
12036TIP3    H157599   2.579   6.445   6.085  0.7702  0.0375 -1.1812
12036TIP3    H257600   2.433   6.424   6.117  0.8821  0.8933 -0.0368
12037TIP3   OH257601   3.867   2.843   5.267  0.4869  0.3624 -0.1159
12037TIP3    H157602   3.961   2.843   5.248  1.3049  1.4039  3.2529
12037TIP3    H257603   3.847   2.935   5.285 -0.8346 -0.0488  0.6179
12038TIP3   OH257604   0.050   6.419   6.329  0.3305 -0.5345  0.3601
12038TIP3    H157605   0.069   6.338   6.283 -0.7266 -1.4473  1.4648
12038TIP3    H257606   0.127   6.434   6.383  0.7569 -0.4931 -0.2412
12039TIP3   OH257607   6.004   3.998   4.748  0.0853 -0.1178  0.2460
12039TIP3    H157608   6.069   3.950   4.798 -0.2939 -3.0199 -1.8160
12039TIP3    H257609   5.928   4.004   4.806  0.0704 -2.2786  0.5076
12040TIP3   OH257610   4.360   0.613  13.506 -0.7078  0.2540 -0.3127
12040TIP3    H157611   4.280   0.633  13.553 -1.7708  0.0248 -1.9472
12040TIP3    H257612   4.355   0.519  13.489 -0.2241  0.2866 -0.6600
12041TIP3   OH257613   3.698   0.317   2.615  0.1910 -0.1426  0.0359
12041TIP3    H157614   3.622   0.301   2.558  0.8478  1.3395 -1.3333
12041TIP3    H257615   3.749   0.236   2.610 -1.1270 -1.0647  0.7709
12042TIP3   OH257616   6.787   2.322  17.235 -0.1034 -0.2523 -0.1192
12042TIP3    H157617   6.711   2.264  17.242 -1.3150  1.3175  0.5418
12042TIP3    H257618   6.765   2.397  17.291  2.5036 -0.3022  1.1684
12043TIP3   OH257619   4.338   3.575  12.344  0.2644 -0.4159  0.2549
12043TIP3    H157620   4.348   3.653  12.289  1.0670 -0.1473  0.7578
12043TIP3    H257621   4.255   3.588  12.389  0.4507  0.2240  0.4352
12044TIP3   OH257622   1.472   1.262  17.109 -0.0929  0.5239 -0.2077
12044TIP3    H157623   1.423   1.342  17.128  0.7198  0.8528  0.5725
12044TIP3    H257624   1.451   1.242  17.018 -3.2347 -0.4560  0.6227
12045TIP3   OH257625   5.662   3.058   1.975 -0.5971  0.3064 -0.2110
12045TIP3    H157626   5.657   2.998   2.049  0.0458  2.5981  1.8257
12045TIP3    H257627   5.745   3.035   1.932  0.6722  0.9373  1.7455
12046TIP3   OH257628   3.362   3.948  13.821 -0.1544  0.4613  0.3207
12046TIP3    H157629   3.380   3.860  13.853 -3.3057 -0.0776  0.9326
12046TIP3    H257630   3.331   3.936  13.731 -0.9493  0.8978  0.5281
12047TIP3   OH257631   4.513   1.367  11.894  0.0632 -0.0116  0.2160
12047TIP3    H157632   4.547   1.362  11.804  1.4126  0.6374  0.6518
12047TIP3    H257633   4.428   1.408  11.885 -0.5234 -1.3772 -0.9079
12048TIP3   OH257634   1.921   4.659   5.249  0.1278 -0.3565 -0.5603
12048TIP3    H157635   1.882   4.574   5.269 -1.9796  0.8991  1.1389
12048TIP3    H257636   1.988   4.671   5.317 -1.5338  0.4646  1.0361
12049TIP3   OH257637   6.624   2.231  11.236 -0.3460 -0.0016 -0.2829
12049TIP3    H157638   6.642   2.221  11.142 -2.4139 -2.5262 -0.5044
12049TIP3    H257639   6.547   2.287  11.240 -0.1195  0.2982 -0.0509
12050TIP3   OH257640   2.060   5.880  13.506  0.5996 -0.1755  0.5140
12050TIP3    H157641   2.060   5.957  13.564 -0.4521  1.6525 -1.7331
12050TIP3    H257642   1.967   5.859  13.494  0.8340 -0.9784  0.0490
12051TIP3   OH257643   3.625   1.646  13.002 -0.3345  0.1378  0.4596
12051TIP3    H157644   3.554   1.706  12.981 -0.6298 -1.1139 -2.5768
12051TIP3    H257645   3.704   1.698  12.992 -0.5891  0.1627 -2.0612
12052TIP3   OH257646   1.285   5.467  12.690 -0.3925  0.1977 -0.2276
12052TIP3    H157647   1.261   5.435  12.603 -0.1204  0.3313 -0.3538
12052TIP3    H257648   1.350   5.536  12.673  0.9710 -0.9546  0.1527
12053TIP3   OH257649   6.798   3.890  14.957 -0.6463 -0.4499  0.0225
12053TIP3    H157650   6.744   3.812  14.946 -0.4634 -0.5356 -0.2651
12053TIP3    H257651   6.799   3.905  15.052 -3.1189  0.9328 -0.0896
12054TIP3   OH257652   1.651   0.785   1.203 -0.1510  0.0107  0.1730
12054TIP3    H157653   1.660   0.727   1.278 -0.7030 -1.1358 -0.6146
12054TIP3    H257654   1.625   0.869   1.241  3.3153  0.6018  1.5746
12055TIP3   OH257655   5.025   2.719  14.804  0.0325 -0.3773 -0.2449
12055TIP3    H157656   5.048   2.810  14.783  1.9479 -0.6071  0.5831
12055TIP3    H257657   5.047   2.711  14.897 -0.2909 -1.6339 -0.2670
12056TIP3   OH257658   5.303   6.175  16.204 -0.6304  0.0333 -0.4027
12056TIP3    H157659   5.328   6.258  16.245 -1.2294 -0.4516  1.0219
12056TIP3    H257660   5.214   6.190  16.171 -0.6391  0.0297 -0.3799
12057TIP3   OH257661   3.932   4.154  14.201 -0.2529 -0.0960  0.1182
12057TIP3    H157662   3.893   4.200  14.126 -0.0190 -0.2021 -0.0712
12057TIP3    H257663   3.876   4.077  14.213  0.5290 -0.8567 -0.8725
12058TIP3   OH257664   4.580   6.805   2.695  0.3275 -0.0262 -0.3112
12058TIP3    H157665   4.663   6.845   2.722 -0.1422  0.2697  0.7388
12058TIP3    H257666   4.605   6.717   2.664  1.2957  0.8385 -2.1310
12059TIP3   OH257667   3.367   3.222  12.593 -0.4337  0.4448  0.0632
12059TIP3    H157668   3.450   3.179  12.614 -0.3394 -1.1036 -3.0517
12059TIP3    H257669   3.393   3.307  12.556 -0.4604  1.4184  2.1258
12060TIP3   OH257670   2.692   2.606  14.641  0.1679 -0.2917  0.1326
12060TIP3    H157671   2.733   2.690  14.660  1.6050 -0.7717 -0.6911
12060TIP3    H257672   2.763   2.542  14.647 -0.8178 -1.4018  0.3660
12061TIP3   OH257673   3.877   6.768  16.915  0.3104 -0.0798  0.1756
12061TIP3    H157674   3.793   6.790  16.876  0.4445 -1.1119 -0.7547
12061TIP3    H257675   3.857   6.703  16.983  0.4959 -1.9064 -1.4220
12062TIP3   OH257676   3.524   0.438  11.369 -0.6436  0.2722 -0.7832
12062TIP3    H157677   3.490   0.350  11.378  0.3625 -0.0771 -0.2721
12062TIP3    H257678   3.464   0.493  11.419  1.3634 -0.8006  3.2216
12063TIP3   OH257679   2.808   3.245  12.544  0.0594 -0.2283  0.8882
12063TIP3    H157680   2.899   3.240  12.574 -0.0994 -0.3034  1.3694
12063TIP3    H257681   2.782   3.155  12.528 -0.2595 -0.2982  1.7692
12064TIP3   OH257682   3.728   5.339  14.079  0.9445  0.1255 -0.1001
12064TIP3    H157683   3.774   5.330  14.163 -1.9418 -0.5324  1.5498
12064TIP3    H257684   3.646   5.382  14.101 -1.1212 -2.4548 -2.0749
12065TIP3   OH257685   2.919   5.262  13.024  0.0048  0.3415 -0.2186
12065TIP3    H157686   2.873   5.273  12.941  1.4811  1.2636 -0.9426
12065TIP3    H257687   3.008   5.237  13.000  0.8383  1.9448  1.0151
12066TIP3   OH257688   3.606   4.477   1.564  0.5497 -0.0335  0.0920
12066TIP3    H157689   3.652   4.441   1.639  0.2001  0.0140  0.3343
12066TIP3    H257690   3.528   4.422   1.555  0.0348  0.6342  0.4397
12067TIP3   OH257691   3.442   5.917   3.267  0.4783 -0.3102  0.7356
12067TIP3    H157692   3.520   5.925   3.212  0.7834 -1.5814  0.9555
12067TIP3    H257693   3.471   5.943   3.354  0.1460  1.1186  0.4416
12068TIP3   OH257694   0.419   1.219   5.903  0.3662 -0.7641  0.0181
12068TIP3    H157695   0.372   1.136   5.889  0.7128 -1.1457  1.0287
12068TIP3    H257696   0.405   1.239   5.996  2.8613 -1.3295  0.5904
12069TIP3   OH257697   5.813   5.958   2.711 -0.0850 -0.8795  0.2131
12069TIP3    H157698   5.731   5.989   2.672  0.4959 -0.1283 -0.4550
12069TIP3    H257699   5.790   5.875   2.752 -1.3717 -0.2813  0.7662
12070TIP3   OH257700   4.405   4.580   3.474 -0.2607 -0.1203  0.3122
12070TIP3    H157701   4.329   4.521   3.475 -0.3252 -0.0411  1.2796
12070TIP3    H257702   4.480   4.522   3.487 -0.2632 -0.0706  0.5534
12071TIP3   OH257703   4.172   0.939   5.771 -0.0946 -0.1072  0.0267
12071TIP3    H157704   4.202   0.862   5.819 -0.4852  0.6936  1.6520
12071TIP3    H257705   4.133   0.995   5.839 -0.4071  1.2232 -1.2057
12072TIP3   OH257706   6.716   1.754   0.407  0.3677  0.1047 -0.2907
12072TIP3    H157707   6.641   1.746   0.466  1.1936  1.4739  1.0541
12072TIP3    H257708   6.685   1.722   0.323 -1.1454 -1.1126  0.6722
12073TIP3   OH257709   3.503   5.995   1.947  0.2449  0.1394  0.6213
12073TIP3    H157710   3.582   6.044   1.968 -0.1563 -0.0334  2.7581
12073TIP3    H257711   3.526   5.904   1.963 -0.7935  0.2136  2.8971
12074TIP3   OH257712   0.677   1.598   1.130  0.0491  0.3680 -0.3126
12074TIP3    H157713   0.600   1.609   1.074  0.2293 -0.0145 -0.6414
12074TIP3    H257714   0.640   1.581   1.217 -0.3394 -2.4338 -0.9106
12075TIP3   OH257715   6.113   0.229   4.300  0.5482 -0.2145 -0.1085
12075TIP3    H157716   6.132   0.204   4.390 -1.1383 -0.3406  0.2526
12075TIP3    H257717   6.080   0.319   4.307 -4.2030 -1.7102  0.1541
12076TIP3   OH257718   3.008   4.628  11.926  0.4464 -0.3230 -0.0491
12076TIP3    H157719   3.025   4.635  12.020 -0.8622 -2.0167  0.3577
12076TIP3    H257720   2.960   4.708  11.904 -0.0521 -0.3435  0.9238
12077TIP3   OH257721   1.612   5.746  11.508 -0.1390 -0.1826 -0.2586
12077TIP3    H157722   1.582   5.670  11.558 -0.3728 -0.3116 -0.5951
12077TIP3    H257723   1.658   5.800  11.573  0.2917 -0.7539 -0.0849
12078TIP3   OH257724   6.501   5.397   4.756 -0.7617  0.1804  1.2010
12078TIP3    H157725   6.482   5.309   4.787  0.2458 -0.9984 -1.2368
12078TIP3    H257726   6.567   5.430   4.816 -0.1977 -1.2438  1.4049
12079TIP3   OH257727   5.649   3.441  10.426 -0.2461 -0.1955 -0.4604
12079TIP3    H157728   5.611   3.528  10.443  0.0686 -0.3759  1.2891
12079TIP3    H257729   5.614   3.386  10.496  0.8777 -1.0813 -0.5827
12080TIP3   OH257730   6.785   1.041   3.493 -0.0163  0.5723  0.3040
12080TIP3    H157731   6.731   0.963   3.479  0.2436  0.2967  0.7969
12080TIP3    H257732   6.772   1.063   3.586 -1.2925  2.0303 -0.1816
12081TIP3   OH257733   2.406   6.070   3.519 -0.2985 -0.1753  0.4209
12081TIP3    H157734   2.395   6.004   3.450  0.3171  0.5240 -0.3741
12081TIP3    H257735   2.500   6.088   3.520 -0.4771  0.8345  0.4615
12082TIP3   OH257736   3.420   2.005   3.674  0.4599  0.4709  0.2620
12082TIP3    H157737   3.471   2.072   3.629  0.6783  0.1529  0.0286
12082TIP3    H257738   3.486   1.944   3.708  0.2069 -1.1341 -1.8812
12083TIP3   OH257739   6.242   0.143  14.957  0.1487 -0.0474 -0.0265
12083TIP3    H157740   6.201   0.158  14.871 -0.2588  1.4358  0.3999
12083TIP3    H257741   6.174   0.167  15.020  0.8397  0.0166  0.7040
12084TIP3   OH257742   6.770   0.725  13.495  0.3695 -0.1787  0.2966
12084TIP3    H157743   6.705   0.771  13.441 -0.2006  0.5744  1.5735
12084TIP3    H257744   6.851   0.730  13.445 -0.2707 -0.0135 -0.7502
12085TIP3   OH257745   4.873   6.609   0.806  0.5975 -0.1179  0.3626
12085TIP3    H157746   4.823   6.665   0.864  0.6205 -0.5071  0.7691
12085TIP3    H257747   4.810   6.578   0.741  0.5070  0.0918  0.3514
12086TIP3   OH257748   4.679   2.464  12.699 -0.3594 -0.3137 -0.4769
12086TIP3    H157749   4.758   2.414  12.679 -0.1999  0.0773 -0.8762
12086TIP3    H257750   4.678   2.533  12.632 -0.2591  0.5603  0.3974
12087TIP3   OH257751   2.134   6.312  15.810 -0.0386  0.2738 -0.0084
12087TIP3    H157752   2.062   6.307  15.747  0.2333  1.2478 -0.4158
12087TIP3    H257753   2.163   6.221  15.821 -0.4906  0.0188 -0.8205
12088TIP3   OH257754   1.832   5.186  12.540  0.0254  0.4365 -0.3723
12088TIP3    H157755   1.826   5.096  12.508  0.5645  0.5208 -0.7099
12088TIP3    H257756   1.800   5.181  12.631 -1.8626  0.2601 -1.0016
12089TIP3   OH257757   0.586   6.334   3.673  0.6462 -0.4753  0.2207
12089TIP3    H157758   0.647   6.282   3.727 -0.1217 -1.3531  0.2664
12089TIP3    H257759   0.623   6.422   3.674  1.6986 -0.8969  0.5882
12090TIP3   OH257760   6.621   3.274  15.621  0.3467  0.0855  0.2757
12090TIP3    H157761   6.648   3.357  15.659 -2.2142  1.5180 -0.8310
12090TIP3    H257762   6.542   3.294  15.572  0.4333 -2.7497 -1.2353
12091TIP3   OH257763   1.178   2.016  15.222  0.0740 -0.5873 -0.1871
12091TIP3    H157764   1.211   2.104  15.237  0.1888 -0.4313 -1.2802
12091TIP3    H257765   1.242   1.959  15.265  0.1204 -0.1500  0.3244
12092TIP3   OH257766   3.359   3.503   1.993 -0.5084  0.3949  0.0571
12092TIP3    H157767   3.410   3.430   1.958 -0.4028  1.0036 -1.0935
12092TIP3    H257768   3.409   3.533   2.070 -0.9051 -1.1528  0.9496
12093TIP3   OH257769   2.950   6.817   5.230  0.1279 -0.6460  1.2001
12093TIP3    H157770   3.029   6.853   5.269  0.3610 -0.7923  0.8676
12093TIP3    H257771   2.926   6.744   5.287 -0.4030  0.0892  1.9292
12094TIP3   OH257772   0.379   5.682  15.321 -0.0167  0.3137 -0.0593
12094TIP3    H157773   0.409   5.749  15.382 -0.4150  0.7688 -0.3568
12094TIP3    H257774   0.325   5.624  15.375  1.6911 -0.7485  0.5660
12095TIP3   OH257775   1.159   2.526   2.957  0.1249 -0.3235 -0.1726
12095TIP3    H157776   1.159   2.439   2.916 -1.0304  0.1683 -1.2813
12095TIP3    H257777   1.237   2.568   2.921  1.2265 -1.1794  1.0901
12096TIP3   OH257778   6.619   6.495  17.157  1.1688 -0.0156 -0.6926
12096TIP3    H157779   6.700   6.499  17.208  0.7744  1.3885 -0.1280
12096TIP3    H257780   6.620   6.408  17.117  2.5632 -0.3166 -0.0593
12097TIP3   OH257781   3.175   2.711  13.567  0.1561  0.8102  0.6354
12097TIP3    H157782   3.097   2.692  13.619 -1.6604  4.6722 -0.2881
12097TIP3    H257783   3.181   2.807  13.567  3.2426  0.7807 -1.7285
12098TIP3   OH257784   6.117   4.106   4.334 -0.1758 -0.9067 -0.3974
12098TIP3    H157785   6.133   4.042   4.264 -0.3126  0.2832 -1.5522
12098TIP3    H257786   6.198   4.156   4.340  0.3665 -1.9109  1.3322
12099TIP3   OH257787   1.487   1.120   5.256  0.0189 -0.4155 -0.1737
12099TIP3    H157788   1.553   1.052   5.245  1.1769  0.9356 -2.1299
12099TIP3    H257789   1.504   1.156   5.343  1.1805 -0.8163 -0.2223
12100TIP3   OH257790   1.453   1.870  12.550 -0.4712 -0.5688 -0.7947
12100TIP3    H157791   1.394   1.800  12.524  0.1621 -0.6253 -2.1883
12100TIP3    H257792   1.541   1.833  12.537 -0.0771  0.9035 -3.0608
12101TIP3   OH257793   4.273   3.800  15.915  0.4559  0.1015  0.1059
12101TIP3    H157794   4.264   3.716  15.960 -1.0306  0.8945  1.4209
12101TIP3    H257795   4.228   3.788  15.831 -0.5679 -0.1762  0.6713
12102TIP3   OH257796   4.959   2.114   5.393 -0.0516 -0.1781 -0.0334
12102TIP3    H157797   5.029   2.148   5.448  0.9676  0.0832 -1.4473
12102TIP3    H257798   4.993   2.119   5.303 -2.2234  0.9012 -0.8809
12103TIP3   OH257799   5.041   4.517  15.596 -0.0521 -0.9480 -0.0621
12103TIP3    H157800   5.095   4.453  15.549  1.4233 -0.9528  1.5175
12103TIP3    H257801   5.045   4.488  15.688 -1.9707 -0.3550  0.2507
12104TIP3   OH257802   0.292   4.107  15.255 -0.1136 -0.6202  0.2632
12104TIP3    H157803   0.203   4.128  15.286  0.0467 -1.3983  1.2972
12104TIP3    H257804   0.304   4.015  15.279  1.3317 -0.2557  1.0168
12105TIP3   OH257805   0.303   6.071   3.350  0.3073  0.0668 -0.3866
12105TIP3    H157806   0.335   6.030   3.270 -1.4113 -1.3416 -0.4206
12105TIP3    H257807   0.210   6.089   3.332  0.2285  0.9736  0.8200
12106TIP3   OH257808   2.934   5.187   0.721 -0.1933 -0.1215  0.2575
12106TIP3    H157809   2.924   5.103   0.676 -0.0297  1.1083 -2.2756
12106TIP3    H257810   2.939   5.165   0.814 -4.3566 -2.6304  0.1467
12107TIP3   OH257811   3.721   5.033  15.983  0.2616  0.5425  0.2421
12107TIP3    H157812   3.674   4.978  16.045 -0.8072  1.9913  0.7776
12107TIP3    H257813   3.742   4.974  15.910  0.4350 -0.8855  1.3925
12108TIP3   OH257814   2.596   1.987   5.553 -0.3286  0.4214  0.9314
12108TIP3    H157815   2.555   2.039   5.484  1.4984  1.8933  0.8935
12108TIP3    H257816   2.550   1.902   5.549  1.0623 -0.3762 -3.5297
12109TIP3   OH257817   0.423   2.418   1.695 -0.1411 -0.5417 -0.5655
12109TIP3    H157818   0.362   2.470   1.747 -0.0398  0.6979 -1.6539
12109TIP3    H257819   0.370   2.380   1.625 -0.1191 -1.5265 -0.0685
12110TIP3   OH257820   5.545   2.663  17.064 -0.0622  0.6283  0.1656
12110TIP3    H157821   5.583   2.580  17.089 -1.7081 -0.1592  0.1994
12110TIP3    H257822   5.479   2.640  16.998  1.1587  2.1766 -1.6910
12111TIP3   OH257823   0.629   6.360   2.624  0.6367  0.3974 -0.8508
12111TIP3    H157824   0.666   6.438   2.584 -0.6521  1.4344 -0.0730
12111TIP3    H257825   0.635   6.376   2.718  0.0629 -0.2920 -0.6862
12112TIP3   OH257826   2.032   3.235   0.370 -0.0943 -0.0368  0.6582
12112TIP3    H157827   1.956   3.240   0.428 -0.1215 -1.3307  0.7654
12112TIP3    H257828   2.002   3.186   0.294  0.3009  0.5237  0.1302
12113TIP3   OH257829   3.351   6.220  17.037 -0.0083  0.4911  0.4081
12113TIP3    H157830   3.331   6.134  17.000 -0.2570  0.3382  0.8867
12113TIP3    H257831   3.427   6.204  17.093  0.3376  0.7117  0.0081
12114TIP3   OH257832   0.651   4.651   3.983 -0.2800 -0.0707  0.2964
12114TIP3    H157833   0.590   4.722   4.001 -0.7876 -0.8590  1.8873
12114TIP3    H257834   0.736   4.695   3.972 -0.7524  0.8497  0.2574
12115TIP3   OH257835   3.450   6.087   4.410  0.3827 -0.0118  0.3806
12115TIP3    H157836   3.419   6.176   4.394 -0.3983 -0.2901  0.2789
12115TIP3    H257837   3.422   6.068   4.499 -1.5102 -0.9498 -0.3501
12116TIP3   OH257838   4.462   3.383   1.924  0.3572  0.4497  0.2290
12116TIP3    H157839   4.524   3.338   1.866  2.3392  2.1903  0.8683
12116TIP3    H257840   4.448   3.320   1.996  0.2144 -0.5405 -0.6367
12117TIP3   OH257841   4.414   1.281   3.417 -0.1956 -0.8764 -0.8586
12117TIP3    H157842   4.386   1.371   3.401  0.0832 -0.8215 -1.0353
12117TIP3    H257843   4.332   1.233   3.432 -0.2588  0.0276  2.6475
12118TIP3   OH257844   6.502   5.541  15.596 -0.4486  0.2176  0.1149
12118TIP3    H157845   6.591   5.527  15.630 -0.6999  0.2877  0.8229
12118TIP3    H257846   6.506   5.511  15.505 -0.0858 -1.2591  0.5818
12119TIP3   OH257847   3.927   2.026  14.987 -0.0487  0.2329 -0.2413
12119TIP3    H157848   3.873   2.080  15.046 -1.4909 -1.6436  0.2377
12119TIP3    H257849   3.878   2.025  14.905 -0.1713 -0.5271 -0.1650
12120TIP3   OH257850   3.593   1.772  14.893 -0.1414 -0.3355  0.2756
12120TIP3    H157851   3.664   1.780  14.829  0.2536 -1.0175  0.6051
12120TIP3    H257852   3.632   1.801  14.975  0.0425 -1.5423  0.6353
12121TIP3   OH257853   0.602   4.470   1.573 -0.5141 -0.1708 -0.5065
12121TIP3    H157854   0.637   4.530   1.508 -0.7020  0.6065  0.0929
12121TIP3    H257855   0.547   4.410   1.524 -0.7270  0.4605 -1.0465
12122TIP3   OH257856   1.892   1.294   5.883  0.0948  0.2013  0.6422
12122TIP3    H157857   1.872   1.387   5.885 -0.4316  0.0852  1.1349
12122TIP3    H257858   1.937   1.280   5.800  0.1892  0.8931  0.5748
12123TIP3   OH257859   3.813   5.170  15.179 -0.0856  0.0710 -0.4698
12123TIP3    H157860   3.748   5.233  15.149 -2.2508 -1.7842  0.1035
12123TIP3    H257861   3.773   5.084  15.166  1.8150 -1.1215  0.8870
12124TIP3   OH257862   3.330   6.762   3.791 -0.2623 -0.1191 -0.2168
12124TIP3    H157863   3.297   6.850   3.811  1.1949  0.7328 -1.3216
12124TIP3    H257864   3.378   6.737   3.870 -0.8705 -0.0162  0.1899
12125TIP3   OH257865   2.009   1.989   5.991 -0.0960  0.0004  0.0786
12125TIP3    H157866   1.959   1.961   6.068  0.6006  0.0183  0.5475
12125TIP3    H257867   2.099   1.999   6.023  0.2312 -0.1337 -0.7728
12126TIP3   OH257868   0.770   5.640   4.015  0.3929 -0.2005  0.2984
12126TIP3    H157869   0.695   5.697   4.003  1.0795  0.2319 -2.7217
12126TIP3    H257870   0.787   5.642   4.109 -0.7014  3.1205  0.5361
12127TIP3   OH257871   4.694   3.372  13.638  0.0500 -0.5166  0.0315
12127TIP3    H157872   4.694   3.373  13.543  1.2338 -0.5719  0.0177
12127TIP3    H257873   4.612   3.416  13.662  0.9768  2.0152 -1.0117
12128TIP3   OH257874   2.073   2.561  16.823  0.3536  0.0747 -0.0703
12128TIP3    H157875   2.087   2.647  16.782  0.6866  0.1711  0.2456
12128TIP3    H257876   1.992   2.572  16.873  0.0005 -0.0127 -0.6131
12129TIP3   OH257877   0.953   5.919   0.608  0.3993  0.0817 -0.0259
12129TIP3    H157878   1.020   5.936   0.673  0.7253  0.2567 -0.4011
12129TIP3    H257879   0.878   5.972   0.636  1.2798  1.9595 -0.9872
12130TIP3   OH257880   3.598   2.341  12.958 -0.2215  0.1458  0.1052
12130TIP3    H157881   3.514   2.318  12.919  0.0085  1.7945 -1.4635
12130TIP3    H257882   3.611   2.433  12.935  2.4585 -0.3151 -0.5256
12131TIP3   OH257883   1.114   1.518   0.990 -0.4292  0.2406  0.2405
12131TIP3    H157884   1.140   1.569   0.914 -1.2072  0.5683  0.1897
12131TIP3    H257885   1.067   1.443   0.954 -1.1858  0.6235  0.4058
12132TIP3   OH257886   4.377   1.590  14.231 -0.0488 -0.7831  0.2384
12132TIP3    H157887   4.365   1.525  14.162 -0.9181  0.0504 -0.4321
12132TIP3    H257888   4.469   1.616  14.224 -0.3734  0.0423 -1.3202
12133TIP3   OH257889   1.368   1.229  16.065 -0.2927  0.0397 -0.2434
12133TIP3    H157890   1.303   1.244  16.134  0.8329  1.0684  0.6274
12133TIP3    H257891   1.340   1.147  16.023 -1.3303 -0.2972  1.0491
12134TIP3   OH257892   1.924   0.757  15.632  0.1520  0.4990 -0.0738
12134TIP3    H157893   1.869   0.698  15.579  0.5933  0.8973 -1.0004
12134TIP3    H257894   1.868   0.780  15.706 -0.1262 -0.8656  0.1769
12135TIP3   OH257895   1.422   5.552   1.983  0.1713  0.2794  0.2657
12135TIP3    H157896   1.482   5.626   1.988  1.1206 -0.4819  0.3757
12135TIP3    H257897   1.450   5.493   2.052  0.6414 -1.0591 -1.0155
12136TIP3   OH257898   4.291   2.389  16.562  0.7532  0.1634  0.3149
12136TIP3    H157899   4.324   2.466  16.516 -0.0051 -0.2433 -0.9479
12136TIP3    H257900   4.346   2.317  16.530  1.6021  0.1911  1.6480
12137TIP3   OH257901   6.180   2.686  16.294 -0.0653 -0.2481  0.0434
12137TIP3    H157902   6.152   2.685  16.385  1.0000 -0.8245  0.3849
12137TIP3    H257903   6.099   2.689  16.243 -0.7336 -1.4690  0.9889
12138TIP3   OH257904   4.786   6.454   2.230 -0.4873 -0.9501  0.0453
12138TIP3    H157905   4.864   6.472   2.282 -0.0260 -0.2065 -0.8954
12138TIP3    H257906   4.750   6.374   2.270 -0.5704 -0.0080  1.9728
12139TIP3   OH257907   1.125   0.980  11.505 -0.1922  0.0784  0.1002
12139TIP3    H157908   1.143   1.056  11.560 -1.1485  0.8877 -0.6812
12139TIP3    H257909   1.192   0.916  11.531 -0.9027  0.2199  2.5663
12140TIP3   OH257910   6.519   5.812  17.067 -0.6201 -0.4937 -0.6254
12140TIP3    H157911   6.479   5.861  17.138 -0.6886  0.0671 -1.0495
12140TIP3    H257912   6.610   5.798  17.095 -0.5853 -0.0774 -0.5267
12141TIP3   OH257913   2.894   1.395   1.017 -0.1015  0.3115 -0.3881
12141TIP3    H157914   2.968   1.455   1.009  1.0733 -1.0400 -0.0861
12141TIP3    H257915   2.869   1.401   1.110  0.1988  0.1463 -0.2925
12142TIP3   OH257916   2.217   0.843   1.874  0.7104 -0.4893  0.0890
12142TIP3    H157917   2.247   0.808   1.791  0.3567  0.5730 -0.5066
12142TIP3    H257918   2.289   0.899   1.904  0.5746 -0.3550  0.1675
12143TIP3   OH257919   1.506   0.102   5.980 -0.1687  0.6486 -0.2041
12143TIP3    H157920   1.526   0.187   6.020  2.3128  0.5044 -0.9321
12143TIP3    H257921   1.453   0.123   5.904 -1.1041  1.3559  0.6228
12144TIP3   OH257922   6.690   1.016   4.923 -0.0094  0.4230  0.6852
12144TIP3    H157923   6.695   1.110   4.939  0.4566  0.6177 -0.4622
12144TIP3    H257924   6.628   0.983   4.987 -1.6356  1.8192 -0.1014
12145TIP3   OH257925   5.178   1.511   5.438  0.4776 -0.1656 -0.0597
12145TIP3    H157926   5.115   1.566   5.484 -0.6774 -1.2358 -0.2918
12145TIP3    H257927   5.264   1.548   5.460  0.0655 -0.8609  3.3147
12146TIP3   OH257928   2.004   1.609  12.887 -0.2495  0.2460  0.0142
12146TIP3    H157929   2.084   1.619  12.835 -0.3773 -0.3461 -0.2982
12146TIP3    H257930   1.982   1.698  12.914  0.5087  0.4177  0.0928
12147TIP3   OH257931   3.514   2.800   4.871 -0.2460 -0.1359  0.1976
12147TIP3    H157932   3.448   2.834   4.811  0.6558 -0.0467 -0.7837
12147TIP3    H257933   3.513   2.706   4.857  0.0463 -0.1034 -0.0433
12148TIP3   OH257934   1.976   4.846   3.303 -0.1556  0.4642  0.3556
12148TIP3    H157935   1.944   4.805   3.383 -0.4298  1.3510  0.7186
12148TIP3    H257936   2.071   4.852   3.315 -0.0390 -0.6238  0.0218
12149TIP3   OH257937   3.660   6.613  10.876  0.3466 -0.4645  0.1015
12149TIP3    H157938   3.625   6.528  10.903  0.7052 -0.5453  0.3110
12149TIP3    H257939   3.628   6.624  10.787  0.6462 -1.0068 -0.0765
12150TIP3   OH257940   1.425   5.713   6.019  0.4916  0.1094  0.0703
12150TIP3    H157941   1.471   5.721   5.936  1.4224 -0.1581  0.5424
12150TIP3    H257942   1.466   5.638   6.062  1.0611  1.1360  1.4007
12151TIP3   OH257943   4.646   3.897  11.735  0.1549  0.6139  0.5749
12151TIP3    H157944   4.581   3.872  11.669 -0.0224  0.5429  0.7777
12151TIP3    H257945   4.621   3.849  11.813 -0.8025  2.1657  1.2804
12152TIP3   OH257946   2.670   1.989   2.104  0.1966 -0.0127 -0.1928
12152TIP3    H157947   2.584   1.970   2.142  0.7456  1.2601  1.8754
12152TIP3    H257948   2.733   1.962   2.172  1.2453  2.1315 -0.2240
12153TIP3   OH257949   5.145   1.486  12.541 -0.8343 -0.1154 -0.2640
12153TIP3    H157950   5.068   1.445  12.501 -0.6063  1.3183 -2.2909
12153TIP3    H257951   5.176   1.421  12.604 -3.5751 -0.8086  0.5093
12154TIP3   OH257952   0.123   6.766  13.971  0.2924  0.3128  0.0089
12154TIP3    H157953   0.077   6.688  14.002  0.4920 -0.5567 -1.7422
12154TIP3    H257954   0.210   6.759  14.009  0.5416 -0.7473 -0.6911
12155TIP3   OH257955   5.118   4.732  16.553 -0.3097  0.1786 -0.1208
12155TIP3    H157956   5.081   4.790  16.619 -0.0762 -0.5995  0.7192
12155TIP3    H257957   5.055   4.734  16.481 -1.9248 -0.9299  1.1730
12156TIP3   OH257958   2.486   4.548  16.562 -0.0611  0.3422 -0.0818
12156TIP3    H157959   2.443   4.622  16.519  1.1441  1.2946  0.3035
12156TIP3    H257960   2.561   4.587  16.608  0.3756 -1.0638  0.4431
12157TIP3   OH257961   1.945   1.151   3.845  0.1793  0.4606  0.5403
12157TIP3    H157962   1.869   1.097   3.867 -1.0434  2.1940  0.8290
12157TIP3    H257963   1.936   1.169   3.752  0.2518  0.6432  0.5673
12158TIP3   OH257964   0.762   0.991  12.380 -0.0559 -0.2771 -0.0971
12158TIP3    H157965   0.825   0.946  12.436 -0.0135  0.2388  0.2708
12158TIP3    H257966   0.752   0.933  12.304  0.5094 -0.5814  0.0570
12159TIP3   OH257967   1.816   0.678   3.280 -0.1168 -0.8213  0.2466
12159TIP3    H157968   1.871   0.755   3.274  0.3121 -1.1540 -0.2029
12159TIP3    H257969   1.745   0.703   3.339  0.4555 -0.3542  0.7411
12160TIP3   OH257970   4.404   3.533  11.366  0.6273 -0.4941  0.3106
12160TIP3    H157971   4.348   3.556  11.440  0.7067 -0.6157  0.4083
12160TIP3    H257972   4.483   3.496  11.406  1.7147  1.6394  0.2755
12161TIP3   OH257973   0.553   2.079   1.442 -0.1900 -0.6239 -0.7271
12161TIP3    H157974   0.508   2.099   1.524 -1.3495  0.9621 -1.7063
12161TIP3    H257975   0.515   1.996   1.413 -1.2093 -0.1935 -0.6446
12162TIP3   OH257976   5.234   0.465  12.662  0.2743  0.5575 -0.3749
12162TIP3    H157977   5.191   0.449  12.577 -0.0498  1.5628 -0.4199
12162TIP3    H257978   5.299   0.533  12.643 -0.2768  1.2959  0.3100
12163TIP3   OH257979   2.233   6.631   3.577  0.4203 -0.2783 -0.3180
12163TIP3    H157980   2.264   6.542   3.559  0.3125 -0.3650 -0.0844
12163TIP3    H257981   2.235   6.675   3.492 -1.6928 -1.1583 -0.8859
12164TIP3   OH257982   4.380   5.227   0.304 -0.0139 -0.0048 -0.2321
12164TIP3    H157983   4.455   5.233   0.364  0.5999 -1.0794 -0.8740
12164TIP3    H257984   4.311   5.187   0.357  0.7941 -1.7774 -0.4454
12165TIP3   OH257985   2.673   2.569   1.791  0.3738  0.3222  0.1403
12165TIP3    H157986   2.607   2.574   1.722 -0.1594  1.4941  0.7042
12165TIP3    H257987   2.656   2.485   1.835 -0.5445  0.4709  0.0797
12166TIP3   OH257988   0.334   6.741   5.875  0.1490 -0.0334  0.4191
12166TIP3    H157989   0.318   6.678   5.945  1.6251 -0.6270  0.2622
12166TIP3    H257990   0.347   6.686   5.797  1.3102  0.4573  0.2529
12167TIP3   OH257991   1.227   5.801  15.913  0.2381  0.3717  0.2086
12167TIP3    H157992   1.164   5.731  15.898  1.5809 -0.8623  0.1828
12167TIP3    H257993   1.270   5.778  15.995  1.0587  0.8749 -0.0694
12168TIP3   OH257994   2.490   0.983   4.465 -0.1514 -0.1223 -0.0580
12168TIP3    H157995   2.429   1.046   4.426  0.6958  0.6305 -0.2136
12168TIP3    H257996   2.549   0.958   4.394  1.1654  0.9709  0.5785
12169TIP3   OH257997   6.021   4.778  10.177  0.4555  0.2543  0.3900
12169TIP3    H157998   5.939   4.797  10.223 -0.3969 -0.0262 -0.9743
12169TIP3    H257999   6.084   4.840  10.214 -0.1533 -0.0343  1.9980
12170TIP3   OH258000   4.804   0.685  16.157 -0.1457  0.1051  0.2045
12170TIP3    H158001   4.788   0.765  16.107  1.2304 -0.2227 -0.7991
12170TIP3    H258002   4.719   0.662  16.194 -0.7265  1.5746 -0.1623
12171TIP3   OH258003   4.832   5.132  11.697 -0.0240 -0.0944 -0.1720
12171TIP3    H158004   4.793   5.135  11.609 -0.8527 -2.2073  0.0658
12171TIP3    H258005   4.758   5.145  11.756 -0.5268 -3.7189  0.2674
12172TIP3   OH258006   5.778   0.675   4.057  0.3146  0.7774  0.4581
12172TIP3    H158007   5.709   0.733   4.026 -0.3574 -0.2377  0.0299
12172TIP3    H258008   5.858   0.728   4.051 -0.2973  1.6882  0.1832
12173TIP3   OH258009   3.434   3.756   4.254 -0.2406  0.1189  0.5195
12173TIP3    H158010   3.444   3.709   4.336  0.9359 -0.9389 -0.2029
12173TIP3    H258011   3.390   3.838   4.279 -0.5148 -0.4683  2.0815
12174TIP3   OH258012   3.077   1.123   2.077 -0.3731  0.7563  0.2485
12174TIP3    H158013   3.088   1.028   2.077 -1.0933  0.6640 -0.2348
12174TIP3    H258014   3.152   1.156   2.127 -0.5793 -0.1148  1.1567
12175TIP3   OH258015   0.587   5.741   1.021  0.6277 -0.0085 -0.3395
12175TIP3    H158016   0.537   5.787   1.090 -1.7089  0.1597 -2.0105
12175TIP3    H258017   0.666   5.711   1.065  0.1667  1.7868  1.9287
12176TIP3   OH258018   2.859   3.189   1.027 -0.1968  0.2861  0.6775
12176TIP3    H158019   2.851   3.282   1.050  0.7079  0.2444  1.1942
12176TIP3    H258020   2.867   3.189   0.931  1.4588  0.8862  0.7855
12177TIP3   OH258021   5.765   3.185   2.239 -0.0094 -0.1292 -0.2694
12177TIP3    H158022   5.694   3.181   2.176 -0.7522 -0.4132  0.5661
12177TIP3    H258023   5.729   3.145   2.318  1.1542 -0.5010  0.0938
12178TIP3   OH258024   3.573   2.093   5.788 -0.0934  0.2337 -0.4629
12178TIP3    H158025   3.641   2.154   5.760  0.0439  1.2405  1.8499
12178TIP3    H258026   3.509   2.147   5.835 -0.4462 -1.2410  0.8411
12179TIP3   OH258027   4.679   5.578  14.743  0.6775 -0.4092 -0.8562
12179TIP3    H158028   4.769   5.581  14.775  0.3480  0.3294  0.0444
12179TIP3    H258029   4.670   5.492  14.702  1.3775 -1.0375  0.2796
12180TIP3   OH258030   0.121   1.302   3.481 -0.3628  0.3539 -0.5633
12180TIP3    H158031   0.054   1.234   3.469  0.4449 -0.4834 -0.4617
12180TIP3    H258032   0.087   1.378   3.435 -0.8394 -0.4285 -1.5425
12181TIP3   OH258033   5.722   1.853   1.150 -0.7107  0.5186  0.8249
12181TIP3    H158034   5.734   1.758   1.155 -1.1032  0.3564 -0.8174
12181TIP3    H258035   5.807   1.886   1.121 -0.8205  0.5846  0.5792
12182TIP3   OH258036   2.163   2.027   3.181  0.3458  0.1848 -0.0023
12182TIP3    H158037   2.161   2.084   3.258  0.4983 -0.5315  0.5553
12182TIP3    H258038   2.169   1.938   3.218 -1.4667 -0.3124 -0.7944
12183TIP3   OH258039   2.845   0.486  10.663  0.7437  0.3338 -0.1151
12183TIP3    H158040   2.929   0.441  10.651  0.5211 -0.0510 -0.2626
12183TIP3    H258041   2.868   0.578  10.673  1.1724  0.2518 -0.3224
12184TIP3   OH258042   2.453   6.051  11.934 -0.1033  0.3290 -0.3900
12184TIP3    H158043   2.359   6.068  11.938 -0.1762 -0.1955  0.3587
12184TIP3    H258044   2.491   6.111  11.997  0.1734  1.1683 -1.3326
12185TIP3   OH258045   3.319   3.610  12.133  0.3975  0.0094  0.2478
12185TIP3    H158046   3.354   3.556  12.203  0.4179  0.4361  0.5692
12185TIP3    H258047   3.236   3.645  12.167  0.2296 -0.0635 -0.0722
12186TIP3   OH258048   1.855   5.955   1.080  0.1570 -0.0128  0.5878
12186TIP3    H158049   1.763   5.928   1.080  0.1819 -0.1304 -0.2686
12186TIP3    H258050   1.855   6.037   1.128 -0.7133  0.9589 -0.9757
12187TIP3   OH258051   1.304   5.911  12.604  0.2036  0.1255 -0.6332
12187TIP3    H158052   1.332   5.822  12.628  1.1425  0.3732 -0.7441
12187TIP3    H258053   1.266   5.947  12.685  1.4612  0.2299 -0.0612
12188TIP3   OH258054   0.816   2.088   2.318 -0.1684  0.1016  0.3148
12188TIP3    H158055   0.721   2.078   2.330  0.0154 -0.2232  1.5943
12188TIP3    H258056   0.825   2.168   2.266 -1.1897 -0.6133 -1.0461
12189TIP3   OH258057   1.944   2.159  16.545  0.3769 -0.6387  0.7242
12189TIP3    H158058   1.984   2.154  16.632 -1.2673  0.9663  1.6681
12189TIP3    H258059   1.971   2.245  16.511 -0.5536 -0.4116  0.5170
12190TIP3   OH258060   3.470   4.359  16.993  0.5174  0.0542 -0.1130
12190TIP3    H158061   3.524   4.419  16.941  0.7967  0.0135  0.1287
12190TIP3    H258062   3.533   4.299  17.034  0.2334 -0.4657 -0.4252
12191TIP3   OH258063   5.984   4.096   1.283  0.2148 -0.2423 -0.2707
12191TIP3    H158064   6.014   4.009   1.310  0.3276  0.0092  0.4332
12191TIP3    H258065   5.921   4.121   1.350  0.2085  0.2337 -0.4534
12192TIP3   OH258066   4.935   3.987   2.021 -0.8866 -0.0610 -0.4178
12192TIP3    H158067   4.902   3.949   1.939 -2.7896  0.2054  0.1652
12192TIP3    H258068   4.897   3.932   2.089  0.6510 -0.2554  0.3162
12193TIP3   OH258069   1.123   0.136   3.252  0.0842  0.2049 -0.2924
12193TIP3    H158070   1.210   0.097   3.255 -0.8549 -2.0034  2.2424
12193TIP3    H258071   1.104   0.160   3.342 -1.8011  0.9533 -0.8410
12194TIP3   OH258072   3.605   0.671  16.710  0.3980  0.1475 -0.3098
12194TIP3    H158073   3.584   0.580  16.689 -0.1048 -0.3043  1.8402
12194TIP3    H258074   3.697   0.681  16.686  0.7452 -1.2606  0.3145
12195TIP3   OH258075   6.348   5.810   6.312 -0.2139 -0.7739  0.1474
12195TIP3    H158076   6.266   5.779   6.272  0.5068 -1.7681 -0.6268
12195TIP3    H258077   6.326   5.823   6.404 -2.1230  2.3061 -0.6083
12196TIP3   OH258078   6.118   4.019   1.539 -0.0204  0.1903  0.0692
12196TIP3    H158079   6.026   3.995   1.555  0.0768  1.1936  2.6830
12196TIP3    H258080   6.157   3.940   1.502 -1.5441 -0.9066  0.6768
12197TIP3   OH258081   1.215   1.592  12.316  0.0247  0.5741 -0.5522
12197TIP3    H158082   1.269   1.514  12.303  0.7987  1.0485 -0.2533
12197TIP3    H258083   1.161   1.571  12.392  0.6663  0.5487 -0.0912
12198TIP3   OH258084   6.823   0.857  17.062  0.3317  0.0570 -0.3788
12198TIP3    H158085   6.856   0.804  16.989 -3.6718 -0.7760 -1.8427
12198TIP3    H258086   6.863   0.943  17.049  2.7603 -1.1188 -1.1817
12199TIP3   OH258087   5.198   1.316  15.862 -0.0242 -0.0082 -0.3370
12199TIP3    H158088   5.262   1.270  15.807  0.7677  1.7245 -0.9343
12199TIP3    H258089   5.139   1.358  15.800  0.0075  0.7771  0.1537
12200TIP3   OH258090   3.590   0.917  14.337 -0.7007 -0.1962  0.3911
12200TIP3    H158091   3.647   0.841  14.326 -0.7676  0.1363 -3.3965
12200TIP3    H258092   3.546   0.902  14.421  1.7180 -2.6082  1.3687
12201TIP3   OH258093   4.500   4.839   4.355  0.1123  0.0774  0.4968
12201TIP3    H158094   4.489   4.753   4.313 -2.5868 -0.1754  1.5079
12201TIP3    H258095   4.432   4.893   4.316 -0.3700  0.7628  2.2314
12202TIP3   OH258096   1.747   4.899   2.709  0.0971 -0.4688  0.2359
12202TIP3    H158097   1.815   4.916   2.775  0.0780 -0.0082  0.1385
12202TIP3    H258098   1.769   4.813   2.674 -0.7910 -1.4521  1.9546
12203TIP3   OH258099   3.422   0.407   3.513 -0.0587 -0.2527 -0.1059
12203TIP3    H158100   3.390   0.375   3.597 -1.6920  0.8563 -0.2551
12203TIP3    H258101   3.419   0.502   3.521  0.4733 -0.1402 -1.1548
12204TIP3   OH258102   2.426   0.550  14.869 -0.8247 -0.3747 -0.0533
12204TIP3    H158103   2.331   0.548  14.883 -0.7399 -1.1362  0.5337
12204TIP3    H258104   2.461   0.576  14.954 -0.5158  0.0676 -0.3178
12205TIP3   OH258105   5.251   6.165  13.675  0.2107  0.6723 -0.0245
12205TIP3    H158106   5.240   6.085  13.624  1.2859  1.2144 -1.1645
12205TIP3    H258107   5.290   6.136  13.758  0.0421 -0.0358 -0.1868
12206TIP3   OH258108   6.204   4.431  14.220  0.3040  0.0346 -0.2185
12206TIP3    H158109   6.129   4.392  14.175  0.6121 -0.0946 -0.6290
12206TIP3    H258110   6.279   4.380  14.189  0.5024 -0.1832  0.5909
12207TIP3   OH258111   4.752   4.096   0.383 -0.0970 -0.7048  0.3153
12207TIP3    H158112   4.672   4.140   0.353  1.0354 -0.1917 -2.2104
12207TIP3    H258113   4.822   4.138   0.333  1.5963 -2.1126  1.4156
12208TIP3   OH258114   0.021   1.353  12.075  0.1560 -0.5427  0.5044
12208TIP3    H158115   0.032   1.314  12.162 -0.8718 -1.6858  0.1585
12208TIP3    H258116  -0.001   1.445  12.092  1.1208 -0.4626  1.3958
12209TIP3   OH258117   5.120   0.577  14.776 -0.0310 -0.2561 -0.3534
12209TIP3    H158118   5.026   0.568  14.759  0.1975 -2.0533 -0.8739
12209TIP3    H258119   5.140   0.668  14.753 -1.6805  0.2269  0.0198
12210TIP3   OH258120   3.520   4.910   1.522  0.4070 -0.0604 -0.7671
12210TIP3    H158121   3.523   5.002   1.546 -0.3598 -0.3631  0.5587
12210TIP3    H258122   3.464   4.908   1.443 -0.8277  0.4581  0.0623
12211TIP3   OH258123   4.168   0.787  17.265 -0.7130 -0.1181  0.0908
12211TIP3    H158124   4.254   0.795  17.305  1.1195 -0.8283 -3.3785
12211TIP3    H258125   4.156   0.693  17.251  0.9417  0.1623 -4.9880
12212TIP3   OH258126   6.735   5.274   5.044 -0.1279  0.2072 -0.4223
12212TIP3    H158127   6.762   5.289   5.134 -0.3157  0.5249 -0.4168
12212TIP3    H258128   6.667   5.207   5.050 -1.4704  1.5329 -0.1264
12213TIP3   OH258129   5.830   6.551  10.322 -0.2306 -0.2347  0.6240
12213TIP3    H158130   5.753   6.572  10.375 -1.4948 -0.1630 -1.1640
12213TIP3    H258131   5.807   6.471  10.276  1.3959 -1.0785  1.2176
12214TIP3   OH258132   2.739   2.666  17.123 -0.2173 -0.0346  0.3200
12214TIP3    H158133   2.769   2.646  17.212 -0.2021  1.0390  0.5753
12214TIP3    H258134   2.819   2.679  17.073 -0.2287  0.0663  0.3269
12215TIP3   OH258135   0.075   5.706  13.644 -0.0433  0.2787  0.7975
12215TIP3    H158136   0.089   5.651  13.567 -1.3175 -2.8486  2.5740
12215TIP3    H258137  -0.016   5.733  13.639 -0.1273  0.0787  1.1528
12216TIP3   OH258138   0.961   4.188   5.000 -0.0586  0.2343 -0.1612
12216TIP3    H158139   0.928   4.278   4.998  0.2774  0.3607 -0.0040
12216TIP3    H258140   1.043   4.193   5.050  0.0518 -0.1296 -0.3029
12217TIP3   OH258141   6.662   3.323  16.937  0.8017 -0.5611  0.0013
12217TIP3    H158142   6.688   3.231  16.929 -0.7221 -1.0271  0.0911
12217TIP3    H258143   6.571   3.320  16.967  1.4432  0.9911  2.4487
12218TIP3   OH258144   2.476   2.246  10.912 -0.4353  0.4537 -0.2543
12218TIP3    H158145   2.537   2.199  10.969 -0.7612  0.6710  0.2829
12218TIP3    H258146   2.396   2.194  10.916 -0.3814  0.3346 -0.7179
12219TIP3   OH258147   1.800   1.709   4.971 -0.2007 -0.1623 -0.2057
12219TIP3    H158148   1.778   1.797   5.000 -0.3305 -0.4703  0.6622
12219TIP3    H258149   1.886   1.692   5.010  0.3417 -0.0039 -1.2950
12220TIP3   OH258150   0.433   5.303  12.641  0.9372  0.5067 -0.6439
12220TIP3    H158151   0.360   5.245  12.665  1.2229  0.4494  0.1198
12220TIP3    H258152   0.507   5.243  12.626  1.3691  0.6857  0.6494
12221TIP3   OH258153   1.097   1.532  12.556  0.2005 -0.0358 -0.5328
12221TIP3    H158154   1.014   1.544  12.602 -0.3224  2.5190 -1.9978
12221TIP3    H258155   1.163   1.531  12.625 -0.7066  2.0783  0.4265
12222TIP3   OH258156   6.702   0.252  14.903  0.0746 -0.2392  0.2819
12222TIP3    H158157   6.765   0.225  14.836 -0.4114 -0.6171 -0.0300
12222TIP3    H258158   6.714   0.347  14.909  0.0680 -0.1884 -0.3980
12223TIP3   OH258159   2.202   1.710  12.713  0.2261 -0.5958  0.0476
12223TIP3    H158160   2.271   1.740  12.652 -1.3800  0.0744 -1.5218
12223TIP3    H258161   2.163   1.791  12.746 -0.0719 -0.9758  0.6247
12224TIP3   OH258162   0.322   3.937   4.678 -0.4355  0.6797  0.4244
12224TIP3    H158163   0.360   3.901   4.597  3.2448  0.4369  2.0444
12224TIP3    H258164   0.322   4.032   4.663 -1.0119  0.5761 -0.3018
12225TIP3   OH258165   0.699   0.199  13.035 -0.3096 -0.0910  0.7406
12225TIP3    H158166   0.608   0.180  13.011 -0.7476  1.0369  1.4427
12225TIP3    H258167   0.745   0.116  13.023 -0.5940  0.1273 -3.2774
12226TIP3   OH258168   6.805   1.136  15.936  1.0206  0.2954  0.0762
12226TIP3    H158169   6.728   1.110  15.985 -0.3293  2.3852 -0.7829
12226TIP3    H258170   6.832   1.219  15.975  1.1327  0.9766 -1.3611
12227TIP3   OH258171   5.425   2.078   4.996 -0.2810 -0.3163 -0.0934
12227TIP3    H158172   5.370   2.098   5.072 -0.8228 -0.8026 -0.3473
12227TIP3    H258173   5.514   2.102   5.023 -0.6906  1.0422  0.1245
12228TIP3   OH258174   2.502   6.476  14.505 -0.5034  0.3331  0.0965
12228TIP3    H158175   2.590   6.450  14.531 -0.3935 -0.2135 -0.7747
12228TIP3    H258176   2.444   6.418  14.554 -0.3837  0.6604  0.6338
12229TIP3   OH258177   0.960   2.696   2.130  0.4501 -0.0705 -0.1447
12229TIP3    H158178   1.013   2.734   2.200  0.0733  0.4562 -0.1323
12229TIP3    H258179   1.023   2.657   2.070  1.0649  2.3078 -1.1913
12230TIP3   OH258180   4.256   5.094  12.041  0.4061 -0.2136  0.1225
12230TIP3    H158181   4.219   5.176  12.008 -0.3443  0.2299  1.9409
12230TIP3    H258182   4.346   5.117  12.064  0.5180 -0.1751 -0.3515
12231TIP3   OH258183   6.225   5.206  13.633  0.2521  0.2804  0.8757
12231TIP3    H158184   6.146   5.175  13.676 -0.5870  1.1549 -0.0058
12231TIP3    H258185   6.292   5.141  13.655 -0.3678  0.2227  2.7213
12232TIP3   OH258186   2.707   4.282   2.186 -0.2550 -0.2981 -0.5397
12232TIP3    H158187   2.714   4.356   2.246  1.8905  0.4513 -1.6031
12232TIP3    H258188   2.651   4.313   2.115  2.0667  1.0880 -1.8989
12233TIP3   OH258189   1.525   3.040   2.597  0.3414 -0.2136 -0.0181
12233TIP3    H158190   1.516   3.132   2.621 -0.0817  0.0372 -1.0500
12233TIP3    H258191   1.601   3.009   2.646 -0.2199  0.3537  1.2544
12234TIP3   OH258192   3.582   6.677   1.306  0.0073  0.0026  0.5561
12234TIP3    H158193   3.531   6.651   1.383 -0.6979  3.1889  1.3488
12234TIP3    H258194   3.653   6.731   1.342  1.5915 -1.0498 -0.8488
12235TIP3   OH258195   4.042   5.300   0.006  0.2406  0.1292  0.1663
12235TIP3    H158196   4.068   5.208   0.011 -0.6705 -0.0649  2.0359
12235TIP3    H258197   4.120   5.349   0.030  0.2218 -0.2356  0.9844
12236TIP3   OH258198   3.641   5.764  11.579  0.5546  0.5399  0.0143
12236TIP3    H158199   3.646   5.725  11.666 -0.4329  1.2044  0.3804
12236TIP3    H258200   3.580   5.707  11.531  2.0138 -0.5258 -0.6425
12237TIP3   OH258201   2.344   6.146   6.139 -0.8609  0.6504 -0.0940
12237TIP3    H158202   2.389   6.227   6.161  0.2702  0.1752 -0.6048
12237TIP3    H258203   2.413   6.085   6.113 -1.6855 -0.4868  0.2700
12238TIP3   OH258204   2.238   0.290  11.868 -0.5008 -0.4425 -0.0092
12238TIP3    H158205   2.326   0.326  11.860 -0.4622 -0.4729  0.2603
12238TIP3    H258206   2.183   0.346  11.813 -0.3915 -0.1525  0.1751
12239TIP3   OH258207   2.098   3.441  16.598  0.0934  0.3864 -0.2128
12239TIP3    H158208   2.174   3.406  16.552  1.0082  0.5049  1.1452
12239TIP3    H258209   2.105   3.405  16.687 -0.5517  1.6349  0.3756
12240TIP3   OH258210   5.414   2.062  15.205 -0.0620  0.0802 -0.3401
12240TIP3    H158211   5.452   2.040  15.120  2.6527  0.3665  0.6756
12240TIP3    H258212   5.436   2.155  15.217 -0.6224  0.1099  0.5702
12241TIP3   OH258213   4.505   1.200  16.088 -0.2744 -0.0753  0.3938
12241TIP3    H158214   4.525   1.155  16.006  2.1912 -1.9168  1.8511
12241TIP3    H258215   4.589   1.235  16.118 -1.6534  3.5146  0.6109
12242TIP3   OH258216   6.049   0.771   4.319  0.2323  0.7861  0.2789
12242TIP3    H158217   6.058   0.803   4.409  0.9667 -0.4816  0.6762
12242TIP3    H258218   6.085   0.682   4.321  0.0820  0.6653 -1.2273
12243TIP3   OH258219   5.120   1.730  16.422 -0.0080  0.5763 -0.3233
12243TIP3    H158220   5.204   1.691  16.446  0.6723  1.8962 -0.4934
12243TIP3    H258221   5.056   1.684  16.476  0.9361  0.2495  0.5442
12244TIP3   OH258222   3.272   3.483  17.095  0.6864  0.4478 -0.6487
12244TIP3    H158223   3.282   3.444  17.182  2.0253  0.6458 -0.6957
12244TIP3    H258224   3.237   3.571  17.112 -0.4195 -0.0269 -0.4153
12245TIP3   OH258225   0.751   3.477   0.825 -0.0477  0.6116 -0.0862
12245TIP3    H158226   0.733   3.571   0.827 -0.2041  0.6018 -0.7048
12245TIP3    H258227   0.841   3.471   0.792 -0.2388  0.5291 -0.6053
12246TIP3   OH258228   4.020   2.411  11.491  0.0564 -0.2233  0.1331
12246TIP3    H158229   3.941   2.357  11.494 -0.3982  0.3399 -1.0733
12246TIP3    H258230   4.026   2.441  11.400  1.1050  0.5657  0.4343
12247TIP3   OH258231   2.529   2.627   6.480  0.0082  0.3850  0.0303
12247TIP3    H158232   2.487   2.573   6.414  0.5413  0.8541 -0.7067
12247TIP3    H258233   2.540   2.712   6.438 -0.1435  0.8593  0.9156
12248TIP3   OH258234   5.094   3.452   1.492  0.1514  0.2899 -0.1788
12248TIP3    H158235   5.127   3.386   1.432 -0.3049  0.4156 -0.5761
12248TIP3    H258236   5.173   3.492   1.530  0.5038  1.3108 -1.8967
12249TIP3   OH258237   6.182   1.385   3.613 -0.2723 -0.7217 -0.4949
12249TIP3    H158238   6.110   1.429   3.659  1.5128  2.4088 -0.4473
12249TIP3    H258239   6.139   1.339   3.540 -2.3229  0.9690 -0.4506
12250TIP3   OH258240   0.093   6.059  11.680  0.2132 -0.0823  0.0583
12250TIP3    H158241   0.122   6.149  11.669 -0.6393  0.0464 -1.2819
12250TIP3    H258242   0.067   6.054  11.772 -0.4476  1.2625 -0.0296
12251TIP3   OH258243   3.891   2.870   3.160 -0.0206 -0.2285  0.2167
12251TIP3    H158244   3.824   2.805   3.181  0.7368 -0.8867  0.6529
12251TIP3    H258245   3.969   2.839   3.204  0.5494  0.5940 -0.1865
12252TIP3   OH258246   5.012   2.975   5.748  0.7916 -0.2002 -0.2835
12252TIP3    H158247   5.047   2.919   5.816 -0.5624  0.8565  1.3664
12252TIP3    H258248   5.029   2.929   5.666  0.1118 -2.7929  0.9563
12253TIP3   OH258249   4.896   5.955  14.899 -0.4890  0.2155  0.0512
12253TIP3    H158250   4.910   5.885  14.836 -1.7641  0.1311 -0.1699
12253TIP3    H258251   4.927   5.918  14.982  2.1895  0.7051 -0.6432
12254TIP3   OH258252   0.471   2.687  16.031  0.0820 -0.2465 -0.4152
12254TIP3    H158253   0.496   2.747  15.961 -0.0386  0.7771  0.4108
12254TIP3    H258254   0.543   2.623  16.033  1.4117  1.1969  0.2379
12255TIP3   OH258255   2.495   1.054   4.908 -0.1251  0.1329 -0.2150
12255TIP3    H158256   2.432   0.985   4.886 -0.3877  0.3972 -0.3033
12255TIP3    H258257   2.532   1.081   4.823  0.9714 -0.8235 -0.0645
12256TIP3   OH258258   2.535   0.308   3.007  0.0446 -0.6173 -0.1413
12256TIP3    H158259   2.566   0.376   3.066  0.4682 -0.7424 -0.2160
12256TIP3    H258260   2.589   0.318   2.928 -0.6394 -0.3318 -0.5850
12257TIP3   OH258261   6.568   4.321  12.607 -0.1030 -0.4784 -0.4284
12257TIP3    H158262   6.474   4.341  12.614 -0.1209 -1.1203  1.4504
12257TIP3    H258263   6.571   4.232  12.572 -0.2629 -1.0746  1.0067
12258TIP3   OH258264   5.560   3.050  11.766 -0.3087 -0.7425  0.3750
12258TIP3    H158265   5.626   3.101  11.719 -0.1439 -0.1036  1.2812
12258TIP3    H258266   5.601   2.964  11.779  0.3145 -0.3853  0.8390
12259TIP3   OH258267   0.062   5.414   3.840 -0.2689  0.2218 -0.5131
12259TIP3    H158268   0.113   5.333   3.852 -0.9750  0.1012  2.3379
12259TIP3    H258269   0.124   5.484   3.856 -0.1807  0.1958 -0.7303
12260TIP3   OH258270   5.623   6.519  10.515  0.7848 -0.0175  0.1340
12260TIP3    H158271   5.614   6.427  10.540  0.2871 -0.3026 -1.0233
12260TIP3    H258272   5.536   6.544  10.485  1.6780 -0.2305 -2.9326
12261TIP3   OH258273   0.462   6.324   4.328 -0.2100  0.2244  0.5865
12261TIP3    H158274   0.534   6.380   4.357  1.6325 -0.7772 -1.6824
12261TIP3    H258275   0.385   6.380   4.332  1.0916  2.0987  0.8850
12262TIP3   OH258276   2.053   4.657  12.923  0.0197  0.1233 -0.1340
12262TIP3    H158277   2.088   4.581  12.970  0.4991  0.1148 -0.4976
12262TIP3    H258278   2.131   4.706  12.897 -0.2412  0.0501 -1.0573
12263TIP3   OH258279   4.969   1.389  16.426  0.6145  0.0989  0.0199
12263TIP3    H158280   4.955   1.412  16.334 -0.3833 -0.2463  0.0662
12263TIP3    H258281   5.011   1.303  16.423 -2.9812 -1.8552 -0.1843
12264TIP3   OH258282   1.111   3.254  13.411  0.0694  0.1580 -0.0923
12264TIP3    H158283   1.134   3.296  13.329  0.7652  1.2638  0.6416
12264TIP3    H258284   1.089   3.326  13.470  0.4892 -0.5444  0.9570
12265TIP3   OH258285   4.498   5.697  15.447  0.6850 -1.0188 -0.0870
12265TIP3    H158286   4.519   5.786  15.419 -2.3468 -0.2689 -0.3280
12265TIP3    H258287   4.423   5.708  15.505 -0.2067 -3.4584 -0.6783
12266TIP3   OH258288   2.481   4.790   2.084 -0.1614 -0.5609  0.0213
12266TIP3    H158289   2.531   4.840   2.149 -1.9284 -1.1387  1.9317
12266TIP3    H258290   2.455   4.711   2.130  0.5973 -2.2241 -2.2301
12267TIP3   OH258291   4.969   0.767   2.812 -0.3095  0.2951 -0.2877
12267TIP3    H158292   5.017   0.789   2.732 -0.3741 -2.3151 -1.1694
12267TIP3    H258293   4.918   0.689   2.788  0.3769 -1.1508  2.5310
12268TIP3   OH258294   2.608   4.958   3.259 -0.0794  0.2265 -0.5455
12268TIP3    H158295   2.522   4.984   3.226 -0.7458  2.6633  2.6793
12268TIP3    H258296   2.670   5.004   3.203 -0.9297  0.2317 -1.5110
12269TIP3   OH258297   0.218   5.592   0.335  0.8075 -0.3981 -0.5420
12269TIP3    H158298   0.136   5.637   0.358  0.7143 -0.4668 -0.7397
12269TIP3    H258299   0.283   5.662   0.332  0.9173 -0.4436  0.3719
12270TIP3   OH258300   6.691   2.924   4.489  0.0332 -0.0548  0.0457
12270TIP3    H158301   6.602   2.957   4.496  0.0995  0.0142  0.5805
12270TIP3    H258302   6.732   2.947   4.572  0.7081  0.3825 -0.3976
12271TIP3   OH258303   5.004   2.121   2.179  0.0875  0.1641  0.4168
12271TIP3    H158304   5.071   2.182   2.211  0.8395  0.9108 -2.2836
12271TIP3    H258305   5.023   2.039   2.224  1.2388  1.0131  1.5827
12272TIP3   OH258306   0.455   5.374   4.118 -0.0367 -0.0932  0.0939
12272TIP3    H158307   0.370   5.362   4.161 -0.0479  0.0103  0.1010
12272TIP3    H258308   0.505   5.430   4.178 -1.5423  3.8155 -1.8899
12273TIP3   OH258309   6.209   0.967   5.755 -0.4629 -0.0784 -0.1422
12273TIP3    H158310   6.249   0.882   5.740 -0.0508  0.0312  0.3037
12273TIP3    H258311   6.198   0.972   5.850 -1.2689  0.0142 -0.2356
12274TIP3   OH258312   2.538   3.756   5.028  0.0453 -0.3635  0.1632
12274TIP3    H158313   2.612   3.704   4.998 -0.2755 -0.1742 -1.0262
12274TIP3    H258314   2.547   3.758   5.123  3.7766  2.7963  0.0093
12275TIP3   OH258315   1.734   6.456  17.213 -0.0893 -0.2295 -0.6927
12275TIP3    H158316   1.693   6.496  17.137  0.2548  0.3248 -0.5890
12275TIP3    H258317   1.828   6.459  17.195 -0.0621 -1.3506 -0.8599
12276TIP3   OH258318   6.807   1.437   3.276  1.0939  0.1648 -0.3482
12276TIP3    H158319   6.747   1.510   3.267  0.2805 -0.3608  0.5594
12276TIP3    H258320   6.756   1.360   3.249  1.2901 -0.3052  0.5506
12277TIP3   OH258321   2.524   1.072  16.833  0.1511 -0.3564 -0.1861
12277TIP3    H158322   2.467   1.100  16.904  1.3785 -0.5860  0.9226
12277TIP3    H258323   2.481   1.104  16.753 -0.8034  0.6578  0.7070
12278TIP3   OH258324   4.088   1.846  12.803 -0.7971 -0.7598 -0.2221
12278TIP3    H158325   4.089   1.765  12.752 -0.3962 -1.6188  1.1073
12278TIP3    H258326   4.058   1.913  12.741  0.3358 -1.6235 -1.7636
12279TIP3   OH258327   6.114   0.290   5.750 -0.1698  0.6034  0.7854
12279TIP3    H158328   6.032   0.278   5.799 -0.4273  0.8857  0.4233
12279TIP3    H258329   6.183   0.278   5.816 -0.4046 -1.9418  0.6985
12280TIP3   OH258330   0.597   5.794   4.160  0.0301 -0.4745  0.5511
12280TIP3    H158331   0.563   5.761   4.243 -0.7569 -0.9325  0.0571
12280TIP3    H258332   0.604   5.888   4.173  0.1345 -0.5672  1.2156
12281TIP3   OH258333   4.444   6.599   3.608 -0.8870 -0.8583 -0.8820
12281TIP3    H158334   4.464   6.594   3.515 -4.2914 -1.2644 -1.7439
12281TIP3    H258335   4.387   6.675   3.617 -0.4957 -0.7246  0.9215
12282TIP3   OH258336   0.503   2.410  16.254  0.5069  0.1986  0.7243
12282TIP3    H158337   0.414   2.395  16.288 -0.3575 -0.8390 -1.7692
12282TIP3    H258338   0.515   2.341  16.189  2.0536  1.9855 -0.9949
12283TIP3   OH258339   5.781   3.508  16.074 -0.4013  0.6635  0.4297
12283TIP3    H158340   5.729   3.442  16.120 -0.2193  0.9047  0.9971
12283TIP3    H258341   5.717   3.572  16.044 -0.4494  0.9181  1.0548
12284TIP3   OH258342   4.473   4.042   5.490  0.1859 -0.3047  0.5012
12284TIP3    H158343   4.484   3.984   5.565  0.1667  1.0977  1.6188
12284TIP3    H258344   4.432   4.121   5.525  1.2858  0.8882 -0.7448
12285TIP3   OH258345   4.694   1.025  15.190 -0.8219 -0.3495  0.1291
12285TIP3    H158346   4.604   1.009  15.219 -0.2245 -1.6503  1.3927
12285TIP3    H258347   4.706   0.967  15.115 -1.4342  0.8149 -0.8950
12286TIP3   OH258348   6.382   6.778   2.925  0.0043 -0.3615  0.0908
12286TIP3    H158349   6.316   6.717   2.958 -0.3802 -0.1388 -0.2529
12286TIP3    H258350   6.351   6.802   2.838 -0.4511  1.1844  0.6395
12287TIP3   OH258351   3.315   0.929  15.848 -0.5313  0.2984 -0.6515
12287TIP3    H158352   3.360   0.887  15.920 -1.8777 -1.5351 -0.7953
12287TIP3    H258353   3.347   0.884  15.770 -1.4413  0.0155 -0.8807
12288TIP3   OH258354   2.481   1.600   4.307  0.9991  0.3189  0.2241
12288TIP3    H158355   2.575   1.582   4.315  1.1297  1.3988  1.4634
12288TIP3    H258356   2.473   1.652   4.228  1.1005 -1.7697 -1.2423
12289TIP3   OH258357   5.711   2.125  14.565  0.2957 -0.1848  0.3163
12289TIP3    H158358   5.748   2.153  14.482  0.7995  2.0704  1.2440
12289TIP3    H258359   5.785   2.086  14.612  0.5538  0.5821  0.5612
12290TIP3   OH258360   6.765   0.748   4.910 -0.0142  0.9940 -0.0026
12290TIP3    H158361   6.681   0.702   4.915 -0.0725  1.2089  1.4017
12290TIP3    H258362   6.741   0.840   4.902  0.0994  1.0341  0.1304
12291TIP3   OH258363   5.108   2.927   2.351 -0.0480  0.3911  0.7222
12291TIP3    H158364   5.053   2.941   2.428 -0.5546 -0.6295  0.5639
12291TIP3    H258365   5.172   2.862   2.378  0.1978  0.5327  0.4840
12292TIP3   OH258366   4.613   3.335  12.535  0.0448  0.1584 -0.0282
12292TIP3    H158367   4.551   3.298  12.599  3.1583 -0.7412  2.7715
12292TIP3    H258368   4.677   3.265  12.521  2.2157  2.0579 -0.1927
12293TIP3   OH258369   5.775   0.524  14.754  0.1120 -0.5650 -0.2960
12293TIP3    H158370   5.702   0.476  14.794  0.4134 -1.2347 -0.5308
12293TIP3    H258371   5.852   0.495  14.803  0.2885 -0.2722 -0.4043
12294TIP3   OH258372   1.981   5.957   5.218 -0.1970  0.3486  0.3970
12294TIP3    H158373   2.055   6.017   5.227 -0.8249  1.3388 -0.7006
12294TIP3    H258374   1.924   5.978   5.292 -0.4864  1.2601 -0.0571
12295TIP3   OH258375   3.950   0.786  14.669 -0.0203 -0.0957  0.2870
12295TIP3    H158376   3.929   0.844  14.595  0.1085 -1.3960 -0.7946
12295TIP3    H258377   3.877   0.725  14.673  0.7947 -1.1013  0.1251
12296TIP3   OH258378   5.465   3.639   2.426 -0.0054  0.7133  0.0874
12296TIP3    H158379   5.497   3.704   2.489  0.6276 -1.1973  1.8856
12296TIP3    H258380   5.519   3.651   2.348  0.2544  2.1538  0.4649
12297TIP3   OH258381   1.736   3.265   5.041 -0.6305 -0.6052  0.0654
12297TIP3    H158382   1.758   3.274   4.948 -1.3327  0.2742 -0.0239
12297TIP3    H258383   1.818   3.237   5.082  0.0031  0.1634 -0.6317
12298TIP3   OH258384   5.544   3.065   0.328  0.1757 -0.4876 -0.1656
12298TIP3    H158385   5.638   3.084   0.326  0.2480 -0.8817 -0.5957
12298TIP3    H258386   5.511   3.097   0.244 -0.2552  0.5267  0.3701
12299TIP3   OH258387   1.226   5.302   4.737 -0.5024 -0.5947 -0.4677
12299TIP3    H158388   1.155   5.271   4.681 -0.9739 -0.4270  0.0282
12299TIP3    H258389   1.182   5.349   4.808 -0.0019 -1.9984  0.8158
12300TIP3   OH258390   1.255   5.983  15.681  0.5345  0.1552  0.1149
12300TIP3    H158391   1.225   5.922  15.749 -0.1864  0.4902  0.1032
12300TIP3    H258392   1.181   5.990  15.620  0.2107  1.7862  0.6383
12301TIP3   OH258393   6.133   0.843   2.249 -0.2920  0.1057 -0.0465
12301TIP3    H158394   6.225   0.855   2.271  0.0007 -0.8970 -0.6670
12301TIP3    H258395   6.093   0.810   2.329  0.0155 -0.0593  0.0399
12302TIP3   OH258396   4.300   3.695  14.647 -0.6729 -0.3806 -0.3014
12302TIP3    H158397   4.252   3.636  14.706 -0.3772 -0.7695 -0.4437
12302TIP3    H258398   4.281   3.783  14.681  0.7595 -0.6608  1.3495
12303TIP3   OH258399   5.967   0.696  14.312  0.3272  0.6710  0.2899
12303TIP3    H158400   5.886   0.645  14.305  0.8814 -0.2078  0.1224
12303TIP3    H258401   5.949   0.777  14.264  0.1641 -0.3031 -1.3649
12304TIP3   OH258402   2.652   4.819   5.601  0.1676  0.3574  0.1025
12304TIP3    H158403   2.699   4.869   5.534 -1.2217  0.4646 -0.8411
12304TIP3    H258404   2.588   4.768   5.551 -1.8252  1.4447  1.4428
12305TIP3   OH258405   2.007   5.961  14.769  0.1702  0.6832 -0.0094
12305TIP3    H158406   1.941   5.956  14.838 -0.4236  0.3676 -0.5945
12305TIP3    H258407   1.963   6.005  14.697  1.5865  3.5788  0.7255
12306TIP3   OH258408   4.559   1.256  16.885 -0.2290  0.6520  0.3283
12306TIP3    H158409   4.594   1.172  16.856 -3.2679 -0.9410  0.9317
12306TIP3    H258410   4.565   1.254  16.980  1.0102  1.8301  0.3181
12307TIP3   OH258411   1.386   6.168  12.538 -0.4182 -0.1200  0.1392
12307TIP3    H158412   1.419   6.150  12.450 -0.1984 -0.5549  0.3116
12307TIP3    H258413   1.350   6.085  12.568  0.1816 -0.1659  0.7532
12308TIP3   OH258414   2.164   2.986  15.720  0.4590  0.0425 -0.3049
12308TIP3    H158415   2.108   2.944  15.653  1.2182 -2.0172  0.2610
12308TIP3    H258416   2.244   3.010  15.673  0.7117 -0.7691 -0.3096
12309TIP3   OH258417   1.028   1.137   0.148 -0.3881 -0.1509  0.4550
12309TIP3    H158418   1.089   1.063   0.153 -0.1164 -0.0647 -1.1470
12309TIP3    H258419   1.084   1.214   0.138 -0.7117  0.1353  0.8210
12310TIP3   OH258420   4.469   5.104  11.427  0.0584 -0.8647  0.3362
12310TIP3    H158421   4.549   5.144  11.462 -0.2894 -1.0347  1.3759
12310TIP3    H258422   4.501   5.038  11.366  0.8545 -2.6794  2.5713
12311TIP3   OH258423   1.127   4.984  12.772 -0.4070 -0.1138  0.0564
12311TIP3    H158424   1.217   4.961  12.748  0.1991 -0.2622  2.2233
12311TIP3    H258425   1.137   5.039  12.850 -2.1197  1.9482 -1.0810
12312TIP3   OH258426   6.408   3.778   5.210 -0.1290  0.5028  0.0100
12312TIP3    H158427   6.389   3.872   5.208 -1.5314  0.2303 -2.4703
12312TIP3    H258428   6.499   3.772   5.181 -0.3435  1.0587 -0.8116
12313TIP3   OH258429   4.037   3.229  16.005 -1.3669  0.3859 -0.4841
12313TIP3    H158430   4.068   3.160  16.063 -1.6221 -0.4570 -1.3345
12313TIP3    H258431   4.016   3.302  16.063  1.0610  0.5755  0.2334
12314TIP3   OH258432   5.079   1.879   3.040 -0.2773 -0.1614 -0.3592
12314TIP3    H158433   5.068   1.858   3.133  1.2749  0.8344  0.0836
12314TIP3    H258434   5.145   1.817   3.009 -1.8044 -1.4441 -1.2052
12315TIP3   OH258435   3.623   5.978   3.097  0.1020 -0.1886  0.7774
12315TIP3    H158436   3.638   6.069   3.075 -0.8743 -0.4267 -1.0924
12315TIP3    H258437   3.704   5.933   3.072  0.3616  0.0738  1.1449
12316TIP3   OH258438   2.319   0.690   5.277  0.8021 -0.0468  0.0093
12316TIP3    H158439   2.325   0.684   5.181  0.2942  0.9978 -0.1111
12316TIP3    H258440   2.231   0.726   5.293  1.6728  1.8894  0.7308
12317TIP3   OH258441   2.566   5.660  12.753 -0.0376 -0.7463  0.1660
12317TIP3    H158442   2.639   5.631  12.698  0.1424  0.7887 -0.4588
12317TIP3    H258443   2.608   5.702  12.828 -0.2819 -0.9183  0.4010
12318TIP3   OH258444   4.769   6.142  11.202 -0.2578  0.1756 -0.6126
12318TIP3    H158445   4.760   6.085  11.277  1.1104 -0.5865 -1.0092
12318TIP3    H258446   4.807   6.223  11.237  0.2166 -0.1133 -0.4593
12319TIP3   OH258447   6.270   0.826  10.837  0.2168 -0.3676 -0.4117
12319TIP3    H158448   6.180   0.855  10.852 -0.2299 -2.6934  2.4971
12319TIP3    H258449   6.318   0.905  10.814 -2.2423  1.1988 -0.5272
12320TIP3   OH258450   5.444   3.226   1.131 -0.5680 -0.1372 -0.1984
12320TIP3    H158451   5.468   3.275   1.052  0.3877 -0.1759  0.0590
12320TIP3    H258452   5.468   3.136   1.112  0.3408 -0.0299  0.3978
12321TIP3   OH258453   0.486   4.430  14.598 -0.5182 -0.3466 -0.3196
12321TIP3    H158454   0.400   4.462  14.571 -0.6884 -1.3167 -0.9634
12321TIP3    H258455   0.483   4.432  14.693 -1.3327 -0.5779 -0.3321
12322TIP3   OH258456   1.946   4.760  12.133 -0.1149  0.1009  0.0678
12322TIP3    H158457   1.883   4.808  12.186  1.2667  1.0987  0.8927
12322TIP3    H258458   1.895   4.692  12.089 -1.4570 -0.2288  2.0360
12323TIP3   OH258459   4.841   4.948   5.455 -0.0558 -0.8897 -0.1949
12323TIP3    H158460   4.801   4.954   5.542  0.0836  1.1261 -0.2207
12323TIP3    H258461   4.858   4.855   5.443  2.2074 -1.0945  3.0144
12324TIP3   OH258462   1.268   2.255  10.730 -0.2040  0.6793  0.0292
12324TIP3    H158463   1.274   2.293  10.643 -0.8093 -1.4391 -0.9964
12324TIP3    H258464   1.323   2.311  10.785  0.4647  1.8511 -1.7671
12325TIP3   OH258465   4.115   4.041   1.206 -0.0732  0.2989 -0.2197
12325TIP3    H158466   4.093   3.973   1.269  3.0536 -1.0141 -0.3850
12325TIP3    H258467   4.075   4.011   1.124  0.3847 -0.8442 -0.0494
12326TIP3   OH258468   1.972   1.848  11.059 -0.5546  0.5576 -0.3348
12326TIP3    H158469   1.888   1.801  11.061 -0.4003  0.2930  1.0177
12326TIP3    H258470   1.955   1.924  11.003 -2.0262  1.0775  0.7354
12327TIP3   OH258471   0.231   2.100   2.886  0.4562 -0.0962 -0.2577
12327TIP3    H158472   0.272   2.178   2.924 -1.4992  2.0501 -2.2553
12327TIP3    H258473   0.185   2.059   2.960 -2.2874  3.2702  0.1548
12328TIP3   OH258474   5.163   3.076   5.199 -0.2089 -0.4157 -0.3180
12328TIP3    H158475   5.070   3.093   5.183 -1.2743 -2.6213  2.6497
12328TIP3    H258476   5.198   3.159   5.230 -0.5442  1.0445 -3.4533
12329TIP3   OH258477   0.504   3.397  17.150 -0.0809  0.0487  0.1181
12329TIP3    H158478   0.447   3.415  17.074 -0.0322  0.7277  0.2363
12329TIP3    H258479   0.583   3.447  17.133  0.6158 -1.1236 -0.1768
12330TIP3   OH258480   4.930   6.520  12.699 -0.7175  0.4838  0.2189
12330TIP3    H158481   4.984   6.549  12.773 -0.5379  0.0139  0.2743
12330TIP3    H258482   4.993   6.494  12.632 -0.8712 -0.3529  0.3961
12331TIP3   OH258483   1.027   2.668   5.756  0.1564  0.0163 -0.4505
12331TIP3    H158484   1.070   2.584   5.775 -0.6561 -0.2269  0.4047
12331TIP3    H258485   1.095   2.733   5.770 -0.3067 -0.1181  3.5802
12332TIP3   OH258486   0.953   1.250  11.721 -0.1158 -0.3175 -0.1147
12332TIP3    H158487   1.020   1.182  11.713  0.5250 -0.1417  2.5157
12332TIP3    H258488   0.916   1.235  11.808 -2.2019  0.7615 -0.7738
12333TIP3   OH258489   5.505   2.899   0.737  0.4089 -0.3871  0.1195
12333TIP3    H158490   5.433   2.874   0.679  0.1662  0.2062  0.1510
12333TIP3    H258491   5.544   2.817   0.765 -0.6243 -0.7308  0.5747
12334TIP3   OH258492   1.534   2.942  17.186 -0.3257  0.0523  0.1556
12334TIP3    H158493   1.501   2.870  17.240 -1.0681 -0.7903 -1.3795
12334TIP3    H258494   1.458   2.999  17.175 -0.2043  0.1604 -0.1026
12335TIP3   OH258495   3.759   0.691  14.331 -0.2919 -0.1180 -0.0141
12335TIP3    H158496   3.854   0.691  14.343 -0.4243 -1.7354  1.4284
12335TIP3    H258497   3.724   0.664  14.416 -2.0127 -0.1080 -0.6805
12336TIP3   OH258498   2.188   3.099   2.249 -0.0813 -0.5806  0.6137
12336TIP3    H158499   2.216   3.190   2.256  0.1134 -0.4499 -1.4622
12336TIP3    H258500   2.094   3.102   2.267 -0.0893  0.0322  0.4813
12337TIP3   OH258501   5.203   1.927   5.242  0.1091  0.0621  0.1917
12337TIP3    H158502   5.299   1.926   5.238  0.1320 -0.2454  0.7177
12337TIP3    H258503   5.178   2.009   5.199  0.6540  0.6395  0.9561
12338TIP3   OH258504   0.165   3.451  11.021  0.1221 -0.5976  0.7955
12338TIP3    H158505   0.236   3.435  10.959 -0.6152 -0.1457 -0.2043
12338TIP3    H258506   0.199   3.517  11.081 -0.9380  3.3960 -2.5328
12339TIP3   OH258507   6.439   0.309   1.322  0.2446 -0.7696  0.2882
12339TIP3    H158508   6.446   0.403   1.336  0.9558 -0.7790  0.0443
12339TIP3    H258509   6.521   0.274   1.358  0.4630 -1.1755 -0.5813
12340TIP3   OH258510   3.020   4.622   1.099  0.0365 -0.2336 -0.0568
12340TIP3    H158511   3.024   4.571   1.179 -1.5391  0.3824  0.4614
12340TIP3    H258512   2.950   4.581   1.048  1.1014 -0.6941 -1.1833
12341TIP3   OH258513   5.248   5.342  16.541 -0.0516  0.1759  0.5543
12341TIP3    H158514   5.202   5.374  16.619 -0.8974 -1.0913  0.5909
12341TIP3    H258515   5.182   5.340  16.473  0.8493  1.9950 -0.4593
12342TIP3   OH258516   6.098   3.849  13.744  0.1656 -0.1050  0.3363
12342TIP3    H158517   6.121   3.823  13.833 -0.5695 -1.8254  0.0464
12342TIP3    H258518   6.086   3.767  13.696 -0.9430  0.7708 -0.9657
12343TIP3   OH258519   1.358   2.066  11.179 -0.0698 -0.3646  0.2086
12343TIP3    H158520   1.346   2.040  11.271 -1.1880 -0.2686  0.1001
12343TIP3    H258521   1.361   2.162  11.182 -0.0278 -0.3645  0.1531
12344TIP3   OH258522   3.782   0.035   1.395  0.6264 -0.3314  0.0715
12344TIP3    H158523   3.781   0.124   1.359 -0.2161  0.7152  2.4647
12344TIP3    H258524   3.839  -0.014   1.336  0.5954  1.6233 -1.6961
12345TIP3   OH258525   5.194   0.309  14.490  0.0302  0.3846 -0.3624
12345TIP3    H158526   5.214   0.304  14.584 -0.3795  0.8121 -0.2486
12345TIP3    H258527   5.280   0.314  14.448  0.2395 -0.4753 -0.0579
12346TIP3   OH258528   3.491   1.854   0.890  0.4248 -0.1465  0.3042
12346TIP3    H158529   3.543   1.817   0.819  2.1178  1.1763  0.7964
12346TIP3    H258530   3.515   1.804   0.968 -0.2858 -0.6020  0.2374
12347TIP3   OH258531   2.332   5.367   2.090 -0.0619 -0.0375  0.0139
12347TIP3    H158532   2.247   5.406   2.070  0.1230 -0.3811 -1.5099
12347TIP3    H258533   2.382   5.376   2.009  1.7249  1.0741  1.1645
12348TIP3   OH258534   5.457   5.808   2.688 -0.2436  0.0761 -0.4941
12348TIP3    H158535   5.392   5.773   2.748 -0.7169 -1.0386 -1.5958
12348TIP3    H258536   5.541   5.787   2.728 -0.5501 -0.9494 -0.3678
12349TIP3   OH258537   2.815   4.783  10.072  0.5969  0.1333 -0.5347
12349TIP3    H158538   2.723   4.810  10.081  0.5413 -0.4133  0.7342
12349TIP3    H258539   2.840   4.812   9.984 -0.1392  2.2529 -0.1059
12350TIP3   OH258540   4.178   0.427   1.396 -0.0225  0.7602  0.5943
12350TIP3    H158541   4.098   0.397   1.439  1.2817 -0.4949  2.2744
12350TIP3    H258542   4.226   0.347   1.375  2.6392  1.4139  3.3756
12351TIP3   OH258543   2.018   2.162   1.294 -0.1562 -0.1655  0.0595
12351TIP3    H158544   2.081   2.179   1.365 -0.1466  1.1301 -0.2292
12351TIP3    H258545   1.934   2.154   1.339 -0.0797  0.1629  0.2685
12352TIP3   OH258546   1.045   2.309  14.193  0.0299 -0.2645  0.0235
12352TIP3    H158547   1.078   2.324  14.104 -0.7600  0.1501 -0.2130
12352TIP3    H258548   1.094   2.371  14.247 -0.7610  0.7660 -0.4124
12353TIP3   OH258549   1.723   1.144   5.007 -0.2869 -0.0269  0.1122
12353TIP3    H158550   1.672   1.064   4.999  0.9291 -0.6317 -3.0682
12353TIP3    H258551   1.678   1.207   4.951  0.1084  0.7800  0.6835
12354TIP3   OH258552   2.344   0.402  15.391  0.1549 -0.0368  0.0476
12354TIP3    H158553   2.291   0.415  15.313  2.3146  1.1715 -1.3052
12354TIP3    H258554   2.415   0.345  15.363  1.2821  0.8705  0.9491
12355TIP3   OH258555   5.194   4.253  16.861  0.0484  0.1416  0.2213
12355TIP3    H158556   5.281   4.242  16.822  0.5604  0.4981  1.2192
12355TIP3    H258557   5.173   4.346  16.846  1.7487  1.2336  3.6411
12356TIP3   OH258558   2.613   6.034  15.094  0.4036 -0.3147 -0.2770
12356TIP3    H158559   2.558   6.112  15.086  2.2949  1.1030 -0.3055
12356TIP3    H258560   2.645   6.036  15.184 -0.8044 -2.0344  0.2421
12357TIP3   OH258561   0.995   5.139   3.228  0.0334 -0.6163 -0.0387
12357TIP3    H158562   0.964   5.162   3.316 -0.2863  0.0505 -0.3142
12357TIP3    H258563   0.934   5.184   3.169  1.3541  0.5148 -0.6044
12358TIP3   OH258564   0.417   4.945   2.031 -0.3136  0.2766 -0.5365
12358TIP3    H158565   0.387   4.913   1.946  0.5309 -0.9294 -0.4058
12358TIP3    H258566   0.511   4.961   2.020  0.2630 -1.9071  0.6923
12359TIP3   OH258567   5.219   3.940   2.191 -0.2703 -0.0764 -0.2279
12359TIP3    H158568   5.157   3.977   2.128 -0.6698 -1.5162 -0.7254
12359TIP3    H258569   5.302   3.983   2.171  0.2739 -2.3261 -3.5844
12360TIP3   OH258570   0.536   0.156  12.196 -0.0112  0.0566 -0.4837
12360TIP3    H158571   0.630   0.154  12.175 -0.1930 -0.5910 -1.2889
12360TIP3    H258572   0.515   0.249  12.198  0.4421  0.1984 -1.3480
12361TIP3   OH258573   2.425   4.982   5.406 -0.1934 -0.3981 -0.3997
12361TIP3    H158574   2.495   4.927   5.370 -0.0944  0.0574 -0.9224
12361TIP3    H258575   2.397   5.035   5.332  1.3002  1.9233  0.6077
12362TIP3   OH258576   4.750   0.836   1.109 -0.1154 -0.2402  0.1893
12362TIP3    H158577   4.747   0.802   1.020 -0.1679  0.2869 -0.0156
12362TIP3    H258578   4.808   0.912   1.104 -0.2499 -0.1090  0.5677
12363TIP3   OH258579   6.794   1.896   4.049 -0.3746  0.0244 -0.3636
12363TIP3    H158580   6.816   1.877   3.958 -1.9842  0.8252 -0.9660
12363TIP3    H258581   6.876   1.926   4.088  0.1725  0.3906 -1.7440
12364TIP3   OH258582   3.190   5.124   5.280  0.4515  0.1836  0.1817
12364TIP3    H158583   3.199   5.059   5.211 -1.2795  0.4546 -0.3390
12364TIP3    H258584   3.254   5.192   5.258 -0.0551  0.2548 -1.1398
12365TIP3   OH258585   3.599   5.102   3.921  0.1791  0.2856 -0.1114
12365TIP3    H158586   3.569   5.105   3.830  0.8431 -1.4667 -0.4304
12365TIP3    H258587   3.678   5.155   3.922 -0.4301  1.2333 -0.2754
12366TIP3   OH258588   3.456   0.306  15.173  0.3391  0.0918 -0.4368
12366TIP3    H158589   3.376   0.254  15.164  0.4522  0.0292 -1.2320
12366TIP3    H258590   3.431   0.382  15.225 -0.2453  0.0861 -0.7044
12367TIP3   OH258591   1.199   0.902   3.246 -0.4903 -0.2319  0.5355
12367TIP3    H158592   1.225   0.994   3.250  1.9840 -0.7485 -0.9903
12367TIP3    H258593   1.112   0.903   3.207 -0.2795  1.4379  0.0075
12368TIP3   OH258594   6.387   0.734  11.315  0.8149 -0.3488 -0.2982
12368TIP3    H158595   6.401   0.642  11.337 -0.8277 -0.8527 -1.1802
12368TIP3    H258596   6.339   0.770  11.390  0.3539 -0.5427 -0.4989
12369TIP3   OH258597   3.675   4.846  15.761 -0.1139  0.4773 -0.6746
12369TIP3    H158598   3.586   4.869  15.735  0.4283  1.2402 -1.9174
12369TIP3    H258599   3.712   4.800  15.685 -0.2844 -2.2659  0.7603
12370TIP3   OH258600   4.847   1.028  13.107 -0.3401  0.1811  0.1590
12370TIP3    H158601   4.810   0.997  13.024  0.8857  0.5616 -0.5701
12370TIP3    H258602   4.889   1.112  13.085  2.2277 -0.8962  0.5164
12371TIP3   OH258603   3.254   0.955  14.239 -0.2844 -0.4074  0.2389
12371TIP3    H158604   3.165   0.981  14.264  0.7145  2.8087  0.8121
12371TIP3    H258605   3.310   1.025  14.271  2.1271 -0.4564 -3.3411
12372TIP3   OH258606   4.241   4.335  13.766  0.1058 -0.2733  0.6454
12372TIP3    H158607   4.167   4.382  13.804  0.9310  0.8537  0.8879
12372TIP3    H258608   4.240   4.250  13.810  0.1090  0.4399  2.0772
12373TIP3   OH258609   2.151   4.145   4.899  0.1730  0.2894 -0.4776
12373TIP3    H158610   2.106   4.085   4.958 -0.0884  0.9291 -0.0103
12373TIP3    H258611   2.204   4.200   4.957  0.1121  0.7554 -0.8585
12374TIP3   OH258612   3.426   2.405   2.389 -0.2151  0.4279  0.3799
12374TIP3    H158613   3.505   2.384   2.339  0.5028  0.8222  1.3270
12374TIP3    H258614   3.445   2.375   2.478 -3.5825 -5.7301 -0.4211
12375TIP3   OH258615   1.314   6.398   1.575  0.2031  0.0534  0.5316
12375TIP3    H158616   1.307   6.314   1.621 -0.5252 -1.1439 -1.5946
12375TIP3    H258617   1.397   6.391   1.527 -0.4942 -0.0628 -0.7005
12376TIP3   OH258618   3.425   4.512  13.020  0.1098  0.0291 -0.4045
12376TIP3    H158619   3.510   4.530  13.060 -0.4418 -1.7062  1.7307
12376TIP3    H258620   3.439   4.530  12.927  2.8864 -0.4116 -0.1697
12377TIP3   OH258621   6.815   4.137   2.798  0.6402 -0.4059 -0.2925
12377TIP3    H158622   6.793   4.166   2.710  1.5199 -0.0159 -0.3953
12377TIP3    H258623   6.761   4.060   2.813 -0.3003  0.1547 -0.7615
12378TIP3   OH258624   1.472   2.201   2.480 -0.2671  0.4538  0.4021
12378TIP3    H158625   1.500   2.161   2.562 -3.8798  0.2042  1.7336
12378TIP3    H258626   1.419   2.134   2.437 -0.2499  1.3323 -1.0641
12379TIP3   OH258627   3.752   3.756  13.482  0.4390  0.1141 -0.1189
12379TIP3    H158628   3.842   3.787  13.496 -0.5659  2.3773  2.3805
12379TIP3    H258629   3.707   3.831  13.443 -0.6187 -0.6081 -0.3313
12380TIP3   OH258630   3.306   5.679  12.911  0.5574  0.5540  0.1578
12380TIP3    H158631   3.265   5.739  12.973  1.9845  0.8511  0.8390
12380TIP3    H258632   3.399   5.684  12.930  0.8889 -0.4247 -1.0775
12381TIP3   OH258633   5.111   4.574   3.568  0.1296 -0.0758  0.1010
12381TIP3    H158634   5.109   4.654   3.621  2.2033  1.9889 -2.6646
12381TIP3    H258635   5.140   4.506   3.630 -0.9538  1.4142  2.3733
12382TIP3   OH258636   5.269   1.381   4.561  0.5295 -0.2460  0.3340
12382TIP3    H158637   5.201   1.339   4.509  0.5914  1.0973 -0.9129
12382TIP3    H258638   5.231   1.465   4.587  0.6598 -0.7185  2.1425
12383TIP3   OH258639   4.522   4.598  12.008 -0.5045 -0.3370 -0.3535
12383TIP3    H158640   4.607   4.641  12.005 -0.3154 -0.7545 -1.0405
12383TIP3    H258641   4.524   4.534  11.937 -1.4644 -0.2194 -0.5026
12384TIP3   OH258642   0.405   0.068   4.424  0.1149 -0.0008  0.2542
12384TIP3    H158643   0.465   0.046   4.352  0.1892  0.7963  0.0616
12384TIP3    H258644   0.462   0.092   4.497  0.0610 -1.7101  0.9117
12385TIP3   OH258645   6.628   2.711   5.645  0.4816  0.3441  0.0340
12385TIP3    H158646   6.560   2.644   5.642  1.1291 -0.3252 -0.0112
12385TIP3    H258647   6.690   2.679   5.711  1.0396  0.6515 -0.3342
12386TIP3   OH258648   6.440   4.775  15.669 -0.4886 -0.0787  0.5189
12386TIP3    H158649   6.414   4.861  15.635 -0.8967  0.2650  1.6471
12386TIP3    H258650   6.533   4.768  15.649 -0.8642 -0.2161 -1.3039
12387TIP3   OH258651   1.899   2.018   1.977 -0.2531 -0.2015  0.6615
12387TIP3    H158652   1.985   2.001   2.016  0.3159  2.2704  0.6281
12387TIP3    H258653   1.918   2.062   1.895 -1.5500 -0.1497  0.3702
12388TIP3   OH258654   5.996   1.569  13.695  0.0161  0.4026 -0.4533
12388TIP3    H158655   6.057   1.588  13.767 -0.0456  0.7718 -0.4944
12388TIP3    H258656   6.009   1.642  13.634 -0.4580  0.4707 -0.4702
12389TIP3   OH258657   5.695   3.761  10.948 -0.2719  0.4415 -0.2247
12389TIP3    H158658   5.749   3.751  11.026 -0.9793 -2.0316  0.0437
12389TIP3    H258659   5.679   3.855  10.941  1.4212  0.9105  1.4709
12390TIP3   OH258660   0.266   6.733   3.905 -0.1983  1.2412 -0.0052
12390TIP3    H158661   0.196   6.673   3.930  1.2081  0.2831  1.8837
12390TIP3    H258662   0.318   6.683   3.842  1.5818 -0.0704  2.3591
12391TIP3   OH258663   3.172   2.313   1.378 -0.2868 -0.0832  0.1329
12391TIP3    H158664   3.119   2.248   1.332 -0.0611 -0.7946  0.8505
12391TIP3    H258665   3.116   2.390   1.386 -1.2360 -0.8277  0.9036
12392TIP3   OH258666   5.079   0.681   1.191 -0.4919 -0.0384  0.2573
12392TIP3    H158667   5.087   0.586   1.201 -0.1325  0.0696  1.1227
12392TIP3    H258668   5.011   0.705   1.253  1.3376  0.5903  2.1601
12393TIP3   OH258669   2.842   4.958  11.045 -0.6863 -0.7056 -0.6092
12393TIP3    H158670   2.751   4.955  11.074 -0.3069 -0.0400  0.7176
12393TIP3    H258671   2.892   4.928  11.120  0.3010  0.4333 -0.7776
12394TIP3   OH258672   6.142   2.050  13.822  0.3130 -0.3583 -0.0130
12394TIP3    H158673   6.103   2.137  13.833  0.8620 -0.3726  2.6652
12394TIP3    H258674   6.072   1.989  13.846  0.1871 -0.6384 -1.0632
12395TIP3   OH258675   0.031   3.225   4.890  0.0059 -0.4354  0.3825
12395TIP3    H158676   0.100   3.187   4.835 -1.2259 -0.1796 -1.3980
12395TIP3    H258677   0.067   3.219   4.979  1.5528 -1.9933 -0.2732
12396TIP3   OH258678   0.439   0.739   2.131 -0.4195  0.1804  0.3708
12396TIP3    H158679   0.362   0.796   2.121  0.0671  0.7964  0.0364
12396TIP3    H258680   0.513   0.800   2.132  0.2087 -0.5029 -1.1552
12397TIP3   OH258681   1.669   0.124   2.982 -0.0903 -0.0770 -0.0174
12397TIP3    H158682   1.742   0.175   2.948 -0.2229 -0.8127 -1.4544
12397TIP3    H258683   1.642   0.068   2.909 -2.4082  0.5256  0.2926
12398TIP3   OH258684   6.669   6.714  15.572  0.2388 -0.4816  0.2871
12398TIP3    H158685   6.741   6.724  15.508  0.6439 -1.1468  0.6275
12398TIP3    H258686   6.611   6.649  15.533  0.0905 -0.3308  0.2537
12399TIP3   OH258687   4.319   4.273   5.579 -0.1724  0.1283  0.1561
12399TIP3    H158688   4.283   4.321   5.653 -0.6560  0.2698 -0.1735
12399TIP3    H258689   4.409   4.305   5.571 -0.0111 -0.1297  0.8915
12400TIP3   OH258690   5.872   3.783  17.187  0.3059  0.0541  0.4080
12400TIP3    H158691   5.953   3.833  17.200 -0.5377  1.1533  1.8027
12400TIP3    H258692   5.847   3.802  17.097  0.5165  1.4038  0.6082
12401TIP3   OH258693   3.791   1.548  12.219  0.3198  0.0826 -0.2962
12401TIP3    H158694   3.732   1.490  12.172 -0.6879 -0.3906  1.4657
12401TIP3    H258695   3.857   1.490  12.258 -0.6444  0.0591  1.4050
12402TIP3   OH258696   1.723   4.138  12.296 -0.3607 -0.3321  0.5028
12402TIP3    H158697   1.808   4.138  12.340  0.2280  0.1618 -0.5981
12402TIP3    H258698   1.660   4.130  12.367  0.6121 -1.2240  1.3007
12403TIP3   OH258699   0.276   6.195  16.689 -0.9205  0.7406 -0.0206
12403TIP3    H158700   0.218   6.136  16.739  0.4707 -0.4203  0.3011
12403TIP3    H258701   0.232   6.280  16.692 -2.5535 -0.0705  0.2803
12404TIP3   OH258702   5.148   3.566   1.192  0.4890  0.3449 -0.0077
12404TIP3    H158703   5.226   3.578   1.137 -2.1759  1.0133 -4.0805
12404TIP3    H258704   5.156   3.477   1.225  2.7365  0.2219 -0.7205
12405TIP3   OH258705   1.566   4.552   5.966  0.0615 -0.0498  0.3919
12405TIP3    H158706   1.541   4.625   5.911 -0.2430 -1.4584 -1.4534
12405TIP3    H258707   1.494   4.542   6.028 -0.4354  0.5002 -0.0911
12406TIP3   OH258708   1.035   3.735  13.940 -0.1876  0.3161  0.2204
12406TIP3    H158709   0.995   3.648  13.931 -0.3957  0.3241  1.0048
12406TIP3    H258710   1.042   3.768  13.851 -1.8605  0.2770  0.0568
12407TIP3   OH258711   0.011   2.478   4.055  0.2225  0.7004 -0.7742
12407TIP3    H158712  -0.057   2.511   3.997 -1.1897  0.9857  0.9593
12407TIP3    H258713   0.023   2.387   4.027 -1.6498  0.3107 -0.4926
12408TIP3   OH258714   1.059   5.505   4.908 -0.1931 -0.2067  0.3692
12408TIP3    H158715   1.012   5.518   4.825  0.5292 -0.4138 -0.0823
12408TIP3    H258716   1.104   5.589   4.922 -0.2463 -0.2020  0.5116
12409TIP3   OH258717   2.298   5.443   5.740 -0.6004  0.1583  0.6976
12409TIP3    H158718   2.251   5.512   5.694 -0.4363  0.2568  0.6779
12409TIP3    H258719   2.351   5.489   5.806 -1.0482  0.0022  1.1769
12410TIP3   OH258720   4.458   5.750   1.676 -0.1952  0.4697  0.4493
12410TIP3    H158721   4.529   5.815   1.673  0.9187 -0.7402 -0.3797
12410TIP3    H258722   4.503   5.667   1.692 -1.4053 -0.3634 -0.3584
12411TIP3   OH258723   1.408   5.071   1.442  0.3974 -0.4625 -0.1251
12411TIP3    H158724   1.408   4.975   1.439 -1.0342 -0.4708 -0.8482
12411TIP3    H258725   1.479   5.093   1.501  0.1055 -2.0161  0.8730
12412TIP3   OH258726   0.923   3.491  13.819  0.2229 -0.3761 -0.0389
12412TIP3    H158727   0.866   3.550  13.770 -1.2419  0.0196  2.0061
12412TIP3    H258728   0.883   3.405  13.809  1.3397 -0.7640 -1.5236
12413TIP3   OH258729   4.732   2.710   5.145  0.5155 -0.1819 -0.4421
12413TIP3    H158730   4.769   2.785   5.191  1.2652  0.3058 -1.7722
12413TIP3    H258731   4.721   2.740   5.055  2.5456 -2.1823 -1.4667
12414TIP3   OH258732   1.136   6.522  14.738  0.2866  0.1973 -0.1694
12414TIP3    H158733   1.070   6.467  14.696  0.5670  0.1125 -0.5016
12414TIP3    H258734   1.087   6.576  14.800  0.0619 -0.7011  0.4393
12415TIP3   OH258735   2.676   5.586   6.225 -0.8403 -0.3919  0.4708
12415TIP3    H158736   2.661   5.672   6.188 -0.0882 -0.3684  0.2127
12415TIP3    H258737   2.589   5.555   6.250 -1.0105  0.8586  1.5125
12416TIP3   OH258738   2.196   3.570   0.900  0.1333  0.2817  0.0769
12416TIP3    H158739   2.254   3.593   0.972  0.3513  1.3553 -0.4210
12416TIP3    H258740   2.184   3.475   0.907  0.8411  0.2548  0.9977
12417TIP3   OH258741   6.310   6.771  11.989 -0.1062  0.0642  0.2351
12417TIP3    H158742   6.353   6.689  11.966 -1.4731  0.3572 -4.3249
12417TIP3    H258743   6.230   6.745  12.034 -0.0231 -1.0581 -0.2481
12418TIP3   OH258744   3.770   2.554   3.855  0.2452 -0.1592 -0.2984
12418TIP3    H158745   3.845   2.596   3.896  0.5271  1.3442 -2.2113
12418TIP3    H258746   3.705   2.624   3.844 -1.1830 -1.2673  0.6281
12419TIP3   OH258747   4.227   0.592   3.268 -0.1559 -0.2424 -0.3711
12419TIP3    H158748   4.172   0.647   3.324 -0.7254  0.8039 -1.8971
12419TIP3    H258749   4.316   0.605   3.301 -0.6073 -0.5704  1.0136
12420TIP3   OH258750   5.608   0.164  16.276 -0.3319 -0.1141  0.4467
12420TIP3    H158751   5.538   0.124  16.328  0.1670 -0.8752  0.5425
12420TIP3    H258752   5.639   0.093  16.219 -0.4580  0.5404 -0.4576
12421TIP3   OH258753   5.353   2.657   5.332 -0.2922  0.6503 -0.0532
12421TIP3    H158754   5.397   2.628   5.412  0.0989 -0.4472 -0.6425
12421TIP3    H258755   5.414   2.634   5.262 -1.1066  0.5838 -0.7599
12422TIP3   OH258756   3.257   2.817  11.210 -0.0379  0.2095  0.3494
12422TIP3    H158757   3.318   2.788  11.278 -0.3515  1.4327  1.1759
12422TIP3    H258758   3.195   2.744  11.201  1.0130 -0.6841  0.1137
12423TIP3   OH258759   4.445   1.181  12.964 -0.3025 -0.0505  0.5023
12423TIP3    H158760   4.426   1.091  12.938 -1.2738  0.8426 -2.2965
12423TIP3    H258761   4.487   1.173  13.050 -2.2782 -2.9861  1.3555
12424TIP3   OH258762   3.394   3.824  14.344 -0.7135  0.7129 -1.3927
12424TIP3    H158763   3.440   3.891  14.396  0.5537 -0.7989 -0.4917
12424TIP3    H258764   3.464   3.776  14.300 -1.3563 -1.6608  0.0085
12425TIP3   OH258765   2.783   6.233  11.041  0.3195  0.1439 -0.0776
12425TIP3    H158766   2.755   6.199  10.956 -0.2115 -0.3524  0.2866
12425TIP3    H258767   2.728   6.310  11.056 -0.1615 -0.2477  0.1853
12426TIP3   OH258768   1.980   5.246   3.180  0.6566  0.3376  0.1543
12426TIP3    H158769   1.957   5.203   3.098  1.8529  1.3270 -0.7455
12426TIP3    H258770   2.076   5.244   3.182  0.6822  1.4074  0.9349
12427TIP3   OH258771   2.136   6.485   1.214 -0.8144  0.2917  0.1731
12427TIP3    H158772   2.226   6.517   1.217 -0.9036  0.7068 -1.0072
12427TIP3    H258773   2.143   6.397   1.175 -0.7255 -0.5507  2.0064
12428TIP3   OH258774   5.090   5.846  15.933  0.3299  0.6587  0.0778
12428TIP3    H158775   5.144   5.793  15.874 -1.5656 -0.5318 -0.6468
12428TIP3    H258776   5.097   5.935  15.898  1.5983  0.5019 -0.1320
12429TIP3   OH258777   2.390   4.740   1.028  0.7099 -0.1519  0.2553
12429TIP3    H158778   2.343   4.818   1.060  0.7900  0.2486 -0.5846
12429TIP3    H258779   2.350   4.668   1.077  0.4734  0.3838  0.8810
12430TIP3   OH258780   0.492   5.945   2.867  0.6031  0.4477 -0.0591
12430TIP3    H158781   0.457   5.922   2.781  1.3357  1.2333 -0.5837
12430TIP3    H258782   0.587   5.936   2.857  0.6212 -1.0276  1.1502
12431TIP3   OH258783   2.969   4.013   2.370  0.0913 -0.1518  0.2489
12431TIP3    H158784   2.945   4.031   2.461 -0.1439 -0.0327  0.1631
12431TIP3    H258785   2.970   3.917   2.363  1.2186 -0.1822  0.6729
12432TIP3   OH258786   4.085   2.778  13.979  0.5798  0.5743 -0.3055
12432TIP3    H158787   4.081   2.845  14.047 -0.5064  2.5065 -2.1385
12432TIP3    H258788   4.089   2.828  13.897  2.8012 -1.6344 -1.6747
12433TIP3   OH258789   6.431   1.966  17.227 -0.1445  0.6365 -0.2435
12433TIP3    H158790   6.402   1.962  17.135 -2.0697 -1.8402  0.3421
12433TIP3    H258791   6.351   1.949  17.277  0.5062  3.6938  2.0530
12434TIP3   OH258792   2.606   4.179   1.164  0.0131 -0.5720  0.1048
12434TIP3    H158793   2.599   4.219   1.078 -1.6434  0.8323  0.8274
12434TIP3    H258794   2.688   4.211   1.200 -0.5214  0.9655  0.0306
12435TIP3   OH258795   4.585   6.047   3.144  0.1577 -0.6891  0.5185
12435TIP3    H158796   4.558   6.075   3.231  1.3011  0.1407  0.6287
12435TIP3    H258797   4.509   6.066   3.088  0.4953  1.7648  0.7801
12436TIP3   OH258798   0.145   2.717  12.106  0.1228 -0.3000  0.1210
12436TIP3    H158799   0.113   2.627  12.097 -1.9078  0.0575  2.4645
12436TIP3    H258800   0.076   2.770  12.066  0.2828  0.2783  0.6029
12437TIP3   OH258801   4.153   2.773   4.727  0.5416  1.3683  0.2488
12437TIP3    H158802   4.114   2.690   4.756  2.0896  0.0946 -1.1195
12437TIP3    H258803   4.143   2.772   4.632  3.2786  1.2621 -0.1169
12438TIP3   OH258804   3.163   6.620   0.875  0.3981 -0.1853 -0.4268
12438TIP3    H158805   3.214   6.661   0.805  1.2721  0.5453  0.6040
12438TIP3    H258806   3.222   6.620   0.950 -0.1134 -1.9941  0.0210
12439TIP3   OH258807   3.936   5.116   3.500 -0.3698 -0.7173  0.1897
12439TIP3    H158808   4.023   5.138   3.468 -0.5638  1.7468  1.1211
12439TIP3    H258809   3.948   5.035   3.549  1.4644 -0.3244  0.4473
12440TIP3   OH258810   3.894   3.294   0.217  0.0583  0.2116  0.4112
12440TIP3    H158811   3.844   3.372   0.241 -0.0076 -0.2754  1.9345
12440TIP3    H258812   3.832   3.222   0.227  0.1583 -0.0783 -0.8477
12441TIP3   OH258813   4.819   2.116  15.805  0.3641  0.2566  0.3404
12441TIP3    H158814   4.880   2.099  15.734 -0.2434  1.0559 -0.3972
12441TIP3    H258815   4.748   2.166  15.765 -0.6551 -0.4125  1.2170
12442TIP3   OH258816   0.911   3.755   2.284  0.4263  0.0726  0.5326
12442TIP3    H158817   0.893   3.840   2.243 -2.3135  0.7952  2.8904
12442TIP3    H258818   0.947   3.778   2.370 -1.0119 -1.0584  1.4861
12443TIP3   OH258819   3.771   0.255   1.223 -0.0744  0.2118 -0.1027
12443TIP3    H158820   3.828   0.208   1.162 -1.2677  0.5297 -1.5257
12443TIP3    H258821   3.807   0.343   1.226  1.5985 -0.4687  1.8274
12444TIP3   OH258822   0.013   3.522  13.543  0.3749  0.0973 -0.0953
12444TIP3    H158823  -0.009   3.448  13.486 -0.3427  0.7566 -0.6911
12444TIP3    H258824  -0.072   3.553  13.575  0.6047  1.1288 -0.4522
12445TIP3   OH258825   0.064   0.734  13.756  0.1830 -0.4715  0.1782
12445TIP3    H158826   0.018   0.730  13.672 -1.2269 -2.5101  0.9664
12445TIP3    H258827   0.009   0.790  13.811  1.3632  1.2766 -0.3419
12446TIP3   OH258828   0.216   6.136  14.100  0.4467  0.1129  0.4150
12446TIP3    H158829   0.155   6.063  14.102  2.2778 -1.5596 -1.0655
12446TIP3    H258830   0.247   6.144  14.190  1.4528 -2.0948  0.3219
12447TIP3   OH258831   4.183   5.541   2.944 -0.1932  0.0126  0.2735
12447TIP3    H158832   4.102   5.497   2.968 -0.5332  0.9599  0.9284
12447TIP3    H258833   4.158   5.601   2.873 -0.3286  1.1283  1.2344
12448TIP3   OH258834   4.474   0.335  15.765 -0.0103 -0.6174 -0.5650
12448TIP3    H158835   4.386   0.328  15.728 -0.2347 -1.4708  0.0925
12448TIP3    H258836   4.529   0.364  15.692 -0.4993 -1.9227 -1.4991
12449TIP3   OH258837   6.283   1.602  15.648 -0.0051 -0.2785 -0.0481
12449TIP3    H158838   6.372   1.627  15.623 -0.3581 -0.2803 -1.4220
12449TIP3    H258839   6.279   1.616  15.742  0.2660  3.5433 -0.4356
12450TIP3   OH258840   1.434   2.961  10.365 -0.3896  0.0405 -0.4459
12450TIP3    H158841   1.451   3.050  10.393  1.8337  0.2665 -2.2251
12450TIP3    H258842   1.506   2.910  10.402 -2.0586 -1.2553  1.2386
12451TIP3   OH258843   5.278   5.477   3.641  1.0127 -0.3925  0.6582
12451TIP3    H158844   5.256   5.453   3.731  0.2712  1.4508  1.0059
12451TIP3    H258845   5.233   5.560   3.626  1.7591 -0.2643 -1.1542
12452TIP3   OH258846   4.979   1.809  14.214  0.4668  0.0782  0.4920
12452TIP3    H158847   5.016   1.780  14.130 -0.7785  0.9397 -0.3892
12452TIP3    H258848   4.891   1.770  14.216  1.2027 -1.6893  2.4055
12453TIP3   OH258849   1.773   4.563   0.986  0.5297 -0.8015 -0.1584
12453TIP3    H158850   1.705   4.570   0.920  1.5993  0.1642 -1.2135
12453TIP3    H258851   1.846   4.521   0.941  0.4793 -2.3649  1.1141
12454TIP3   OH258852   6.720   5.048  12.063  0.0105  0.2514 -0.0873
12454TIP3    H158853   6.631   5.047  12.026 -0.1350 -0.4435  0.2632
12454TIP3    H258854   6.776   5.018  11.991  0.1227  1.6953 -0.6502
12455TIP3   OH258855   4.733   6.008  12.196  0.0098  0.2139 -0.1187
12455TIP3    H158856   4.724   6.102  12.183 -2.2297  0.1712  0.6114
12455TIP3    H258857   4.673   5.988  12.269  1.5265 -1.5606  0.7363
12456TIP3   OH258858   3.521   3.673  13.157  0.4755 -0.0927  0.1365
12456TIP3    H158859   3.567   3.616  13.220  1.0929  1.2528  0.9437
12456TIP3    H258860   3.576   3.751  13.152 -1.5764  1.4695  0.9133
12457TIP3   OH258861   3.644   5.288   2.151 -0.3764 -0.1346 -0.4073
12457TIP3    H158862   3.639   5.382   2.170 -1.4776 -0.4836  1.2130
12457TIP3    H258863   3.642   5.284   2.055  0.4263  1.5134 -0.5323
12458TIP3   OH258864   0.241   1.597   0.885 -0.3316  0.0448 -0.3794
12458TIP3    H158865   0.327   1.638   0.896 -0.2714  0.1913 -1.2706
12458TIP3    H258866   0.252   1.540   0.808 -0.6242 -1.0676  0.3689
12459TIP3   OH258867   6.592   6.381  12.428  0.7978  0.0428 -0.7031
12459TIP3    H158868   6.537   6.317  12.383  0.8630 -1.0692  0.7029
12459TIP3    H258869   6.656   6.328  12.475  1.6272  1.2142 -0.4680
12460TIP3   OH258870   3.768   0.359   4.734  0.1101  0.0062  0.1589
12460TIP3    H158871   3.674   0.358   4.720  0.0198  0.5972  0.6696
12460TIP3    H258872   3.787   0.276   4.779 -0.1404 -0.1837 -0.0864
12461TIP3   OH258873   6.685   3.237   2.589 -0.4673 -0.0077 -0.4855
12461TIP3    H158874   6.623   3.169   2.617  0.6104 -1.4546 -1.5066
12461TIP3    H258875   6.768   3.191   2.578  1.0849  2.0368  1.6929
12462TIP3   OH258876   2.590   4.248  16.560  0.0491 -0.4182  0.6251
12462TIP3    H158877   2.610   4.163  16.521 -1.5125 -0.6329  0.2382
12462TIP3    H258878   2.494   4.249  16.567 -0.1107  2.0001 -0.9882
12463TIP3   OH258879   5.529   6.525  11.931 -0.4376 -0.0314  0.1843
12463TIP3    H158880   5.438   6.500  11.916  0.0575 -1.2620 -1.0681
12463TIP3    H258881   5.547   6.498  12.021 -1.2661  0.1068  0.4016
12464TIP3   OH258882   6.791   1.948  14.929  0.4599 -0.2460  0.1068
12464TIP3    H158883   6.734   1.917  14.858 -0.0634  0.9159 -0.0083
12464TIP3    H258884   6.733   1.999  14.986  1.7404  3.1865 -1.3692
12465TIP3   OH258885   1.950   1.032  11.621 -0.2779 -1.0415 -0.3737
12465TIP3    H158886   1.911   1.118  11.610 -0.6225 -0.9400  1.4210
12465TIP3    H258887   2.007   1.021  11.544 -0.8345  0.4316 -1.0199
12466TIP3   OH258888   1.624   0.534   3.000  0.1553 -0.1600 -0.7748
12466TIP3    H158889   1.570   0.455   2.998 -0.0059 -0.0715 -0.1085
12466TIP3    H258890   1.575   0.596   3.053  0.8027 -0.0032 -0.3459
12467TIP3   OH258891   1.261   3.108   3.519  0.1805  0.1256  0.7359
12467TIP3    H158892   1.252   3.196   3.482  2.2991  0.1331  0.0877
12467TIP3    H258893   1.242   3.049   3.446  1.1259  0.0987  0.4992
12468TIP3   OH258894   3.072   3.367   0.075  0.0236 -0.1291 -0.3788
12468TIP3    H158895   3.001   3.428   0.058 -1.6499 -1.9026 -0.1433
12468TIP3    H258896   3.068   3.350   0.169  2.0754  1.2396 -0.0063
12469TIP3   OH258897   2.479   0.002  11.072  0.6348  0.4862 -0.2247
12469TIP3    H158898   2.453   0.090  11.048 -1.5702 -0.4184 -1.4795
12469TIP3    H258899   2.510  -0.038  10.990 -0.4362 -0.5347 -0.1598
12470TIP3   OH258900   4.908   0.340   0.268  0.4461 -0.5611 -0.2457
12470TIP3    H158901   4.999   0.365   0.282  0.0937  1.3224 -0.9821
12470TIP3    H258902   4.871   0.330   0.355  0.6290  1.6550  0.1360
12471TIP3   OH258903   2.781   5.989   1.500  0.0355 -0.2736 -0.2601
12471TIP3    H158904   2.757   6.064   1.446  0.2555  0.5992  0.8238
12471TIP3    H258905   2.698   5.944   1.517 -0.0793 -0.3490 -1.0206
12472TIP3   OH258906   2.290   2.711   0.054 -0.1374  0.2288 -0.2223
12472TIP3    H158907   2.269   2.733  -0.036  0.0762  1.8366  0.0968
12472TIP3    H258908   2.375   2.753   0.071  2.1315 -3.6819 -0.5826
12473TIP3   OH258909   4.223   1.133   0.107  0.2344  0.0919 -0.1868
12473TIP3    H158910   4.280   1.157   0.179  3.5579 -0.0394 -2.5434
12473TIP3    H258911   4.173   1.059   0.140  1.8140 -0.1442  1.8890
12474TIP3   OH258912   4.954   3.891  15.456 -0.0313 -0.5036  0.0273
12474TIP3    H158913   5.045   3.905  15.432 -0.3553  0.5419 -0.6445
12474TIP3    H258914   4.958   3.848  15.541  1.1031 -1.5417 -0.5106
12475TIP3   OH258915   5.636   4.522  12.695 -0.0382  0.2495  0.6242
12475TIP3    H158916   5.707   4.551  12.753  0.8603 -0.9544  0.1889
12475TIP3    H258917   5.600   4.602  12.659  0.0782  0.9747  2.0390
12476TIP3   OH258918   1.982   6.751   0.017  0.5720  0.5214 -0.8165
12476TIP3    H158919   1.920   6.683   0.042  0.0829  0.4865 -2.0365
12476TIP3    H258920   2.061   6.702  -0.009  0.2928  0.4129 -1.4917
12477TIP3   OH258921   3.262   1.338  11.311 -0.9268 -0.4561  1.4158
12477TIP3    H158922   3.312   1.420  11.315 -0.5156 -0.5812 -0.3280
12477TIP3    H258923   3.321   1.273  11.350  1.1911 -0.9551 -2.1377
12478TIP3   OH258924   3.010   2.888   4.207 -0.0611 -0.2145  0.1150
12478TIP3    H158925   3.015   2.800   4.245 -1.0639 -0.1269  0.5048
12478TIP3    H258926   2.975   2.874   4.119 -0.0803 -0.2265  0.1240
12479TIP3   OH258927   6.717   3.656   3.871  0.6154  0.0092 -0.0455
12479TIP3    H158928   6.776   3.658   3.796  0.6659 -2.3680 -0.1371
12479TIP3    H258929   6.767   3.613   3.941 -0.6715 -1.3042  0.1306
12480TIP3   OH258930   5.255   5.078   3.969  0.2321  0.4002 -0.0254
12480TIP3    H158931   5.344   5.107   3.947 -0.1288  1.3311 -0.3220
12480TIP3    H258932   5.259   4.983   3.963  1.7683  0.2529  2.0600
12481TIP3   OH258933   6.120   5.276  12.057  0.3943 -0.0540 -0.4015
12481TIP3    H158934   6.044   5.241  12.104  0.4303  1.8817  1.2373
12481TIP3    H258935   6.088   5.289  11.968 -0.7044 -0.7539 -0.1387
12482TIP3   OH258936   5.375   2.062  13.791  0.5461 -0.2515  0.9455
12482TIP3    H158937   5.444   1.999  13.811  1.7425  0.6425 -0.1856
12482TIP3    H258938   5.405   2.107  13.712 -1.7564 -0.4404 -0.1450
12483TIP3   OH258939   1.600   2.133   5.008  0.1627  0.4510 -0.3146
12483TIP3    H158940   1.589   2.126   5.103  0.6797  1.2103 -0.1977
12483TIP3    H258941   1.613   2.226   4.991 -0.8975  0.4573 -1.2474
12484TIP3   OH258942   2.896   2.158  11.473 -0.7452 -0.1859  0.2938
12484TIP3    H158943   2.852   2.233  11.514 -0.4279 -0.8579  1.9692
12484TIP3    H258944   2.988   2.167  11.500 -0.5485 -0.7260 -0.1936
12485TIP3   OH258945   0.675   0.080   1.086  0.2926  0.6835 -0.0668
12485TIP3    H158946   0.711   0.138   1.019 -0.1915  0.1670 -0.7945
12485TIP3    H258947   0.748   0.025   1.113  0.9333  2.0382  1.1196
12486TIP3   OH258948   1.978   2.170   4.403 -0.2998 -0.1213  0.1736
12486TIP3    H158949   1.911   2.236   4.383  0.2489  0.5806  0.6009
12486TIP3    H258950   2.010   2.194   4.490  0.9097 -0.0909 -0.2558
12487TIP3   OH258951   4.058   2.576  16.313  0.1290 -0.0239 -0.2374
12487TIP3    H158952   4.005   2.565  16.234  1.4306 -0.0732 -1.1414
12487TIP3    H258953   4.132   2.630  16.285 -0.7810  2.3896  1.6364
12488TIP3   OH258954   2.472   0.305  12.289 -0.0652 -0.3022 -0.9574
12488TIP3    H158955   2.515   0.244  12.230 -1.4489 -2.5489  0.2277
12488TIP3    H258956   2.525   0.303  12.368 -0.3435 -0.2618 -0.7710
12489TIP3   OH258957   3.367   6.682   1.792 -0.8327  0.2264  0.0116
12489TIP3    H158958   3.328   6.601   1.826 -1.0384  0.8224  1.2915
12489TIP3    H258959   3.313   6.751   1.831  0.3839  1.0182  0.3269
12490TIP3   OH258960   3.835   4.134  14.967 -0.1978  0.2280  0.2092
12490TIP3    H158961   3.848   4.200  15.035 -3.6479 -0.1632  1.4438
12490TIP3    H258962   3.869   4.175  14.887  0.2847  2.3363  1.4085
12491TIP3   OH258963   0.669   0.061   6.858  0.3890 -0.1137 -0.2351
12491TIP3    H158964   0.689   0.116   6.934  2.1816  1.3963 -1.6669
12491TIP3    H258965   0.575   0.070   6.845 -0.1900 -1.4153  2.4649
12492TIP3   OH258966   1.034   6.412   2.375  0.0675  0.6910  0.5797
12492TIP3    H158967   1.110   6.361   2.403  0.2699  1.5280  1.6420
12492TIP3    H258968   1.063   6.503   2.382 -0.6626  0.9918 -0.1350
12493TIP3   OH258969   2.150   2.386  15.482 -0.0695  0.0661  0.5243
12493TIP3    H158970   2.197   2.341  15.411 -0.3985 -0.3417  0.5609
12493TIP3    H258971   2.160   2.479  15.462 -2.4922 -0.0521 -1.6238
12494TIP3   OH258972   4.691   6.134  14.948 -0.2066 -0.9921  0.0762
12494TIP3    H158973   4.758   6.081  14.906  1.4459  1.1297 -0.1340
12494TIP3    H258974   4.717   6.137  15.040 -1.2582 -1.9128  0.4220
12495TIP3   OH258975   1.910   4.008  15.878  0.0722  0.2007 -0.0500
12495TIP3    H158976   1.917   3.950  15.954  1.1327 -0.1471 -0.4007
12495TIP3    H258977   1.913   3.949  15.803 -1.4495  0.4987 -0.3817
12496TIP3   OH258978   1.471   2.752  15.843  0.2146  0.4336  0.2705
12496TIP3    H158979   1.511   2.838  15.859  1.8857 -0.2054 -0.2080
12496TIP3    H258980   1.431   2.728  15.927 -0.0181  1.5367  0.4943
12497TIP3   OH258981   4.460   1.598   6.310 -0.7460 -0.4111 -0.1931
12497TIP3    H158982   4.521   1.671   6.296  1.3021 -1.9641  0.1646
12497TIP3    H258983   4.476   1.570   6.400 -2.1131 -0.7869 -0.0451
12498TIP3   OH258984   5.970   6.629   3.165  0.1049 -0.4590  0.5695
12498TIP3    H158985   6.012   6.545   3.187  0.6593 -0.5108 -0.6412
12498TIP3    H258986   5.970   6.678   3.248  0.3410 -1.4063  1.1453
12499TIP3   OH258987   0.804   5.845   2.942 -0.1500 -0.3318  0.6350
12499TIP3    H158988   0.771   5.756   2.929  0.6687 -0.8152  1.7061
12499TIP3    H258989   0.857   5.839   3.021 -0.5483  1.2458  1.0498
12500TIP3   OH258990   0.094   6.602  13.050 -0.1923  0.0137 -0.0291
12500TIP3    H158991   0.154   6.676  13.067 -0.1193  1.2281 -4.3285
12500TIP3    H258992   0.015   6.624  13.098  0.5434  1.8722  0.4408
12501TIP3   OH258993   1.239   0.993  13.423 -0.0801 -0.5497  0.1676
12501TIP3    H158994   1.304   0.924  13.437  0.8473  0.8289  3.8338
12501TIP3    H258995   1.290   1.073  13.418 -1.3125  0.5743  3.1800
12502TIP3   OH258996   0.923   2.515   0.539  0.3191  0.0838  0.2974
12502TIP3    H158997   0.905   2.463   0.617  0.9657  0.3233  0.6216
12502TIP3    H258998   1.006   2.559   0.559  0.9013 -0.4694 -0.8403
12503TIP3   OH258999   0.125   4.215  11.937  0.0716 -0.1572 -0.0979
12503TIP3    H159000   0.062   4.287  11.942  0.5350  0.3483 -1.3112
12503TIP3    H259001   0.071   4.136  11.947 -0.6326  0.2941 -0.2237
12504TIP3   OH259002   1.264   3.656  14.831 -0.5057  0.3120  0.2987
12504TIP3    H159003   1.249   3.564  14.853 -0.4113  0.0866 -0.5498
12504TIP3    H259004   1.338   3.682  14.886 -2.2616  0.7341  2.6879
12505TIP3   OH259005   5.999   2.137  13.281  0.2176 -0.0966  0.1208
12505TIP3    H159006   6.036   2.212  13.236  3.0875 -1.7695 -0.5523
12505TIP3    H259007   6.057   2.123  13.356  0.0270 -1.8494 -0.0091
12506TIP3   OH259008   3.236   1.684  16.823 -0.2470  0.4963 -0.4078
12506TIP3    H159009   3.192   1.751  16.875  0.9552  2.0494 -1.2929
12506TIP3    H259010   3.320   1.672  16.867  0.1926  0.7654 -1.1583
12507TIP3   OH259011   6.726   3.351   5.477  0.7227  0.2509  0.2347
12507TIP3    H159012   6.665   3.401   5.532  0.9137  1.6048 -0.7231
12507TIP3    H259013   6.680   3.342   5.393  1.0250 -0.4963  0.1431
12508TIP3   OH259014   4.700   6.720  13.659  0.6210 -0.3094  0.3242
12508TIP3    H159015   4.752   6.800  13.656 -0.1002  0.2066  1.0233
12508TIP3    H259016   4.758   6.656  13.701  1.0093  0.0048  0.2757
12509TIP3   OH259017   4.970   1.566   2.848  0.2990 -0.4863 -0.2165
12509TIP3    H159018   4.923   1.623   2.786 -0.7073  0.0274  0.9859
12509TIP3    H259019   4.909   1.496   2.867  0.7540 -0.8506 -0.0817
12510TIP3   OH259020   5.988   4.057  17.052  0.2850  0.3803 -0.3756
12510TIP3    H159021   6.035   4.053  17.136  1.2042  0.8964 -0.8488
12510TIP3    H259022   5.902   4.093  17.075 -0.2452 -1.3727  0.6361
12511TIP3   OH259023   2.511   0.847  15.326  0.0093 -0.6010  0.2220
12511TIP3    H159024   2.562   0.891  15.393 -1.8608 -1.9761  2.7418
12511TIP3    H259025   2.447   0.795  15.375 -1.7209 -1.4332 -2.6592
12512TIP3   OH259026   3.564   2.763   1.908 -0.1726  0.4600  0.0708
12512TIP3    H159027   3.500   2.743   1.839  0.1419 -1.4583  0.2820
12512TIP3    H259028   3.626   2.823   1.867 -0.7378  0.4060 -0.8984
12513TIP3   OH259029   3.659   2.029  15.341 -0.1198 -0.1642  0.2111
12513TIP3    H159030   3.643   2.119  15.369 -1.5396 -0.7908  1.6105
12513TIP3    H259031   3.665   1.980  15.423  2.2690 -1.1294 -0.4617
12514TIP3   OH259032   0.837   4.369  15.597 -0.1626 -0.1304 -0.0536
12514TIP3    H159033   0.811   4.291  15.646  1.4947 -0.7640 -0.1364
12514TIP3    H259034   0.816   4.349  15.506  0.6343 -0.6606 -0.1282
12515TIP3   OH259035   3.746   6.155   0.448  0.3008 -0.4705  0.1676
12515TIP3    H159036   3.749   6.060   0.434  0.1701 -0.2340 -1.7606
12515TIP3    H259037   3.681   6.167   0.516 -0.3337 -1.7252 -0.1778
12516TIP3   OH259038   1.596   4.680  10.811  0.1032 -0.4492  0.1837
12516TIP3    H159039   1.620   4.734  10.887 -1.8963  1.2939 -0.3164
12516TIP3    H259040   1.519   4.631  10.840  1.2043 -2.2702  0.2392
12517TIP3   OH259041   0.747   1.352   0.565  0.0164 -0.2430  0.1109
12517TIP3    H159042   0.768   1.331   0.474  1.3649 -1.4593  0.6737
12517TIP3    H259043   0.694   1.432   0.559 -2.1651 -1.7002 -1.8931
12518TIP3   OH259044   1.459   2.158   1.202  0.6937  0.3390  0.1624
12518TIP3    H159045   1.461   2.216   1.126 -1.9719 -0.7366 -0.8531
12518TIP3    H259046   1.469   2.070   1.165  1.2967 -0.0791  1.2910
12519TIP3   OH259047   6.440   5.277   2.472  0.2480 -0.3777  0.5506
12519TIP3    H159048   6.516   5.227   2.501  0.3424 -1.3327 -1.2221
12519TIP3    H259049   6.390   5.293   2.553  1.0515 -1.9233  1.3960
12520TIP3   OH259050   4.047   2.260   1.045 -0.4233  0.0481  0.2555
12520TIP3    H159051   4.039   2.181   1.098 -0.4785 -0.6512 -0.7551
12520TIP3    H259052   3.978   2.253   0.979  0.4324  0.2391 -0.7047
12521TIP3   OH259053   5.661   1.558   3.476 -0.0515 -0.1356  0.1598
12521TIP3    H159054   5.730   1.507   3.434  0.6664  1.0914 -0.2105
12521TIP3    H259055   5.607   1.590   3.404 -0.5205 -0.4020  0.3906
12522TIP3   OH259056   5.248   2.608  15.422  0.1047  0.1664  0.6277
12522TIP3    H159057   5.256   2.523  15.464  1.1522 -0.0363  0.0343
12522TIP3    H259058   5.153   2.622  15.414 -0.0727 -0.9726  0.6500
12523TIP3   OH259059   0.341   3.350   0.533  0.7857 -0.6883 -0.2881
12523TIP3    H159060   0.318   3.437   0.502  2.7640  0.2849  0.7682
12523TIP3    H259061   0.388   3.310   0.459  2.2279  0.2076  0.0987
12524TIP3   OH259062   0.432   2.022   0.161  0.1888 -0.6097  0.5170
12524TIP3    H159063   0.439   1.985   0.249 -1.1767 -0.2449  0.8016
12524TIP3    H259064   0.384   2.104   0.173  1.6850  0.4436 -0.3227
12525TIP3   OH259065   5.235   1.183   5.024 -0.2379 -0.0829 -0.3655
12525TIP3    H159066   5.195   1.257   5.071  0.3319  0.2367 -0.3721
12525TIP3    H259067   5.326   1.210   5.011 -0.0059 -0.8219 -0.3028
12526TIP3   OH259068   3.067   3.301   0.346 -0.3295  0.4757  0.7163
12526TIP3    H159069   3.076   3.248   0.425  0.7288 -1.0300 -0.3685
12526TIP3    H259070   3.155   3.333   0.328 -0.4103  0.2103 -0.2307
12527TIP3   OH259071   2.521   6.076  13.101  0.0205  0.2591 -0.2710
12527TIP3    H159072   2.428   6.065  13.118  0.0579 -0.1792 -0.3353
12527TIP3    H259073   2.526   6.095  13.007  0.0234 -0.1312 -0.3529
12528TIP3   OH259074   5.443   3.454   2.068  0.0829  0.9230  0.0264
12528TIP3    H159075   5.356   3.436   2.035 -0.3082  0.2387  1.3353
12528TIP3    H259076   5.502   3.411   2.006 -0.5890  0.2168 -0.1390
12529TIP3   OH259077   5.822   3.193   0.493  0.5707  0.4411 -0.4505
12529TIP3    H159078   5.750   3.159   0.545  0.3679  1.5818  0.0417
12529TIP3    H259079   5.865   3.257   0.549  0.9800  0.9501 -1.3194
12530TIP3   OH259080   1.688   0.232  16.576  0.2773 -0.2303  0.7233
12530TIP3    H159081   1.601   0.270  16.581  0.6781  1.1025 -1.2904
12530TIP3    H259082   1.738   0.278  16.644  0.5407  2.4768 -1.1367
12531TIP3   OH259083   0.341   4.832   5.279 -0.0282  0.3399 -0.2769
12531TIP3    H159084   0.384   4.781   5.211  1.0265  0.9491 -0.0910
12531TIP3    H259085   0.325   4.918   5.238  0.2491  0.5814  0.1169
12532TIP3   OH259086   1.252   1.092   5.137 -0.4115  0.2582  0.1539
12532TIP3    H159087   1.252   0.998   5.119  1.4342  0.6299 -2.3276
12532TIP3    H259088   1.333   1.108   5.184 -0.6962  0.6380  0.5254
12533TIP3   OH259089   6.338   3.488  13.198  0.2139  0.2758  0.0893
12533TIP3    H159090   6.254   3.524  13.227 -0.2489  0.8067 -1.7836
12533TIP3    H259091   6.398   3.563  13.202 -0.3908  0.9946 -2.3355
12534TIP3   OH259092   3.421   2.419  13.363 -0.5310 -0.0647 -0.6210
12534TIP3    H159093   3.401   2.341  13.415 -0.3336  0.5114  0.3364
12534TIP3    H259094   3.410   2.390  13.272  1.7545 -1.8912 -0.4367
12535TIP3   OH259095   0.133   3.543  14.469  0.1512 -0.0008 -0.0970
12535TIP3    H159096   0.190   3.619  14.461 -0.0957  0.5847  2.6867
12535TIP3    H259097   0.097   3.550  14.557 -1.1707 -2.4841 -0.3667
12536TIP3   OH259098   0.669   3.719   4.912  0.4274 -0.3374  0.0690
12536TIP3    H159099   0.580   3.685   4.903  0.4485 -0.1457 -0.9156
12536TIP3    H259100   0.720   3.671   4.846  0.6432  0.9470 -0.7388
12537TIP3   OH259101   5.308   3.619  16.960 -0.1358  0.2808 -0.3454
12537TIP3    H159102   5.343   3.688  17.016 -1.0909  1.9762 -1.7379
12537TIP3    H259103   5.379   3.554  16.955  0.4859  0.7300  1.6387
12538TIP3   OH259104   1.060   5.894   5.591  0.0952 -0.1190 -0.1988
12538TIP3    H159105   1.022   5.859   5.672  0.5312  0.5451  0.3067
12538TIP3    H259106   0.986   5.937   5.547 -0.2907 -1.0654 -0.4920
12539TIP3   OH259107   0.378   4.683  14.108 -0.0840  0.5920 -0.3058
12539TIP3    H159108   0.324   4.733  14.169 -1.5857  0.1339 -1.1760
12539TIP3    H259109   0.360   4.723  14.023  0.6884  0.1890 -0.6621
12540TIP3   OH259110   3.712   5.216  11.944  0.8856  0.5409 -0.0420
12540TIP3    H159111   3.771   5.291  11.948  1.2951  0.2021  3.2271
12540TIP3    H259112   3.630   5.248  11.983  1.2481 -0.7541  1.9395
12541TIP3   OH259113   5.957   1.603  16.266  0.0553  0.4701  0.2777
12541TIP3    H159114   5.959   1.509  16.284  1.6949  0.6898  1.4968
12541TIP3    H259115   6.014   1.614  16.190  0.7719  0.5788  0.8184
12542TIP3   OH259116   1.177   3.933   5.140 -0.3232  0.2680 -0.1284
12542TIP3    H159117   1.241   3.878   5.184  0.5886  1.4296  0.0388
12542TIP3    H259118   1.195   4.021   5.172 -0.5966  0.9388 -1.7264
12543TIP3   OH259119   6.096   5.379  13.458 -0.0753  0.0304  0.0406
12543TIP3    H159120   6.083   5.453  13.517  2.7840  0.5598  0.1490
12543TIP3    H259121   6.139   5.312  13.512  0.3566 -0.4262 -0.8460
12544TIP3   OH259122   5.465   2.738  16.682 -0.1976  0.4321  0.3229
12544TIP3    H159123   5.556   2.709  16.673 -0.3846 -0.0975  0.0510
12544TIP3    H259124   5.436   2.752  16.592 -0.2424  1.0552  0.4335
12545TIP3   OH259125   1.121   4.457   3.080 -0.3426 -0.9616  0.4779
12545TIP3    H159126   1.075   4.377   3.055  2.4928 -2.6974  0.2853
12545TIP3    H259127   1.143   4.444   3.172 -0.0320 -0.3073  0.4998
12546TIP3   OH259128   5.251   4.317  14.257  0.2872 -0.0265  0.1212
12546TIP3    H159129   5.291   4.240  14.217  0.9234 -0.2745  1.2064
12546TIP3    H259130   5.190   4.350  14.190 -1.0233 -2.2373  0.1460
12547TIP3   OH259131   4.297   5.042  15.277  0.3377 -0.5009  0.1685
12547TIP3    H159132   4.315   5.064  15.369  0.6329 -0.6997  0.1572
12547TIP3    H259133   4.333   5.115  15.228  0.2105 -0.4107  0.2060
12548TIP3   OH259134   5.299   3.995   0.571 -0.5180  0.1442 -0.0030
12548TIP3    H159135   5.390   3.974   0.548  0.4247  0.3585  3.0329
12548TIP3    H259136   5.249   3.918   0.543  0.4881  0.1323 -1.9729
12549TIP3   OH259137   3.586   6.285   2.127  0.2057  0.2119  0.0908
12549TIP3    H159138   3.637   6.236   2.063 -0.5684  0.8077 -1.0291
12549TIP3    H259139   3.535   6.219   2.173 -0.5750 -0.0981 -1.1609
12550TIP3   OH259140   1.396   0.665  16.457 -0.4366  0.0203 -0.4702
12550TIP3    H159141   1.415   0.609  16.532  0.6388 -0.4170 -1.0445
12550TIP3    H259142   1.301   0.673  16.455 -0.5679 -1.3307 -0.0420
12551TIP3   OH259143   1.041   3.371  11.972 -0.1495 -0.4083  0.1087
12551TIP3    H159144   1.094   3.434  11.923 -0.6550 -0.4937 -0.5530
12551TIP3    H259145   0.975   3.425  12.017 -0.9322 -0.4931 -0.8991
12552TIP3   OH259146   5.845   1.019  11.589 -0.0970  0.4872  0.2751
12552TIP3    H159147   5.782   0.964  11.542 -0.2578 -1.5393  2.6661
12552TIP3    H259148   5.930   0.994  11.553 -0.2391 -0.8216  0.8031
12553TIP3   OH259149   5.627   0.704  17.164  0.0287 -0.0496 -0.3190
12553TIP3    H159150   5.670   0.628  17.124  4.0222  2.0891 -0.7139
12553TIP3    H259151   5.566   0.735  17.097  0.2506 -1.4320 -1.2016
12554TIP3   OH259152   0.850   2.662   4.650  0.0428  0.3025  0.6753
12554TIP3    H159153   0.928   2.612   4.671  2.0560  2.8431 -0.2318
12554TIP3    H259154   0.840   2.722   4.724 -1.6514 -0.5665  1.2086
12555TIP3   OH259155   2.130   6.350   4.381 -0.0680  0.2549  0.0707
12555TIP3    H159156   2.190   6.277   4.366 -0.2307  0.3673 -1.2902
12555TIP3    H259157   2.055   6.331   4.323 -0.2064  1.3860 -0.1372
12556TIP3   OH259158   5.221   0.312  14.890 -0.1350 -0.1899 -0.3633
12556TIP3    H159159   5.301   0.327  14.940  0.2576 -0.2998 -0.9516
12556TIP3    H259160   5.192   0.400  14.864 -0.4212 -0.1211  0.1720
12557TIP3   OH259161   5.493   4.074   0.088  0.0840 -0.3093  0.2191
12557TIP3    H159162   5.509   4.038   0.176  0.8969  1.2657  0.7657
12557TIP3    H259163   5.422   4.137   0.101  0.4961  0.2441 -0.1513
12558TIP3   OH259164   4.804   5.676   3.886 -0.1174 -0.0276 -0.1504
12558TIP3    H159165   4.727   5.703   3.935 -0.2721 -0.0011 -0.4062
12558TIP3    H259166   4.836   5.756   3.845  2.0739  0.6905  2.6873
12559TIP3   OH259167   3.663   0.613  15.454 -0.0395 -0.3170  0.1565
12559TIP3    H159168   3.676   0.706  15.436  0.6154 -0.1857  1.2249
12559TIP3    H259169   3.730   0.569  15.402  0.4391 -0.0954  0.5746
12560TIP3   OH259170   5.811   3.707  13.624 -0.0684  0.3839  0.2153
12560TIP3    H159171   5.735   3.707  13.683 -0.0096  0.9386  0.2941
12560TIP3    H259172   5.873   3.647  13.666 -0.6148 -0.3892 -0.0574
12561TIP3   OH259173   0.310   1.733   0.507 -0.4978 -0.8363  0.0486
12561TIP3    H159174   0.322   1.822   0.540  0.3459 -1.0162  0.2533
12561TIP3    H259175   0.231   1.738   0.454 -1.2398 -0.2859  1.1808
12562TIP3   OH259176   0.311   4.582  15.214  0.0854  0.0274 -0.2032
12562TIP3    H159177   0.241   4.595  15.151  0.3670 -0.0829 -0.5457
12562TIP3    H259178   0.272   4.529  15.283  0.0305 -0.6630 -0.7502
12563TIP3   OH259179   4.173   2.802   4.448  0.0743 -0.4699 -0.3572
12563TIP3    H159180   4.209   2.885   4.417  0.1953  0.1271  1.2871
12563TIP3    H259181   4.235   2.736   4.417  0.0454  0.0410 -1.5692
12564TIP3   OH259182   3.418   3.683   3.971 -0.0092 -0.3347  0.3199
12564TIP3    H159183   3.441   3.673   4.063 -1.9386  1.3407  1.0731
12564TIP3    H259184   3.344   3.744   3.972  0.7732  0.8030 -2.4406
12565TIP3   OH259185   0.942   1.234   6.063  0.0954 -0.1917  0.2691
12565TIP3    H159186   1.000   1.160   6.046  0.7608  0.5320 -0.7164
12565TIP3    H259187   0.854   1.199   6.052  0.3654 -1.0126  0.5864
12566TIP3   OH259188   6.078   5.636  15.958  0.0985 -0.0014  0.2881
12566TIP3    H159189   6.019   5.623  15.884  0.9992  0.2685 -0.5094
12566TIP3    H259190   6.163   5.653  15.917  1.1315 -2.1009  1.3857
12567TIP3   OH259191   3.350   2.737  14.965  0.3134 -0.2471 -0.1240
12567TIP3    H159192   3.393   2.739  14.880 -0.8643  2.2578 -0.7507
12567TIP3    H259193   3.421   2.723  15.028  1.3592 -0.9078 -1.3955
12568TIP3   OH259194   1.857   1.831  13.494  0.1855 -0.2672 -0.0921
12568TIP3    H159195   1.799   1.894  13.451  0.9784  2.0813  2.0524
12568TIP3    H259196   1.799   1.761  13.522 -0.6871 -0.7870 -2.8336
12569TIP3   OH259197   0.063   4.520  13.387 -0.1348 -0.1995 -0.5841
12569TIP3    H159198   0.126   4.471  13.441  0.3572  0.2509 -0.7423
12569TIP3    H259199   0.039   4.459  13.317  2.1137  0.4605 -2.0263
12570TIP3   OH259200   3.133   0.308   3.436 -0.3084  0.1339  0.2920
12570TIP3    H159201   3.181   0.390   3.427 -0.1706 -0.0445 -0.6663
12570TIP3    H259202   3.063   0.314   3.371 -0.8818 -0.1084  0.8711
12571TIP3   OH259203   4.054   1.391   2.298 -0.2789 -0.1216 -0.0067
12571TIP3    H159204   4.004   1.468   2.270 -0.8479  0.3354  2.0872
12571TIP3    H259205   4.108   1.422   2.370  1.9264 -0.9924 -1.1951
12572TIP3   OH259206   6.558   1.399   4.371 -0.2477 -0.1806  0.6387
12572TIP3    H159207   6.503   1.435   4.441  0.6612 -0.4291  1.4873
12572TIP3    H259208   6.603   1.324   4.411  0.2936 -0.3204 -0.2059
12573TIP3   OH259209   2.093   5.472  15.238  0.4114  1.0494  0.1531
12573TIP3    H159210   2.011   5.465  15.189  0.8254  2.1780 -0.7490
12573TIP3    H259211   2.067   5.500  15.325 -0.1664  1.4269 -0.1340
12574TIP3   OH259212   1.988   2.968  11.346  0.2854 -0.0389 -0.6986
12574TIP3    H159213   2.037   2.888  11.326  0.6164  0.5159 -2.2501
12574TIP3    H259214   2.055   3.033  11.364  0.0815  0.2818 -1.0751
12575TIP3   OH259215   1.187   3.192   9.842 -0.6498  0.5208  0.3766
12575TIP3    H159216   1.100   3.222   9.867 -0.8523  1.3396 -1.2557
12575TIP3    H259217   1.180   3.096   9.841 -1.3939  0.5695  0.6825
12576TIP3   OH259218   5.169   0.034  15.947 -0.1806 -0.1612 -0.3051
12576TIP3    H159219   5.148  -0.007  16.032 -2.0679  0.9554 -0.1892
12576TIP3    H259220   5.245  -0.015  15.916  0.2939 -0.8918  1.8274
12577TIP3   OH259221   1.495   3.218  13.062  0.1429  0.5972 -0.0618
12577TIP3    H159222   1.464   3.278  13.130  0.6155  0.3880  0.3473
12577TIP3    H259223   1.528   3.142  13.111  1.3240  0.8284 -0.4746
12578TIP3   OH259224   0.205   3.680   5.706 -0.2074 -0.9000 -0.1386
12578TIP3    H159225   0.261   3.617   5.660  2.1412  0.5740  0.5576
12578TIP3    H259226   0.116   3.647   5.691  0.6712 -2.4304 -2.6918
12579TIP3   OH259227   2.267   0.719  15.765  0.2861  0.0692  0.3214
12579TIP3    H159228   2.237   0.803  15.799 -2.4620  0.3659 -2.4078
12579TIP3    H259229   2.302   0.739  15.679 -0.4869 -1.5477 -0.4154
12580TIP3   OH259230   1.830   0.065  15.396  0.1115  0.0919  0.3628
12580TIP3    H159231   1.767  -0.006  15.384  0.9093 -0.5961  0.1689
12580TIP3    H259232   1.795   0.137  15.343 -0.0810 -0.5527 -0.4019
12581TIP3   OH259233   3.959   4.107  12.185  0.5130  0.0390  0.1149
12581TIP3    H159234   3.925   4.171  12.248 -2.1454  0.8872 -1.9824
12581TIP3    H259235   3.934   4.022  12.220  0.2704  0.4122  0.8585
12582TIP3   OH259236   0.200   4.591   4.411 -0.1638  0.0356 -0.1860
12582TIP3    H159237   0.220   4.520   4.350  0.4663 -0.9036  1.0906
12582TIP3    H259238   0.171   4.547   4.491  2.1615  1.1043  1.3336
12583TIP3   OH259239   3.214   3.959   3.490 -0.0070  0.1806  0.2035
12583TIP3    H159240   3.210   3.893   3.560  2.0963  0.3159  0.5122
12583TIP3    H259241   3.205   3.908   3.409  0.5988 -0.3896  0.4811
12584TIP3   OH259242   0.229   5.524  11.971  0.4915 -0.1156 -0.1027
12584TIP3    H159243   0.153   5.517  12.028  0.8776 -2.4186  0.2079
12584TIP3    H259244   0.205   5.475  11.892  1.0271  0.6079 -0.7326
12585TIP3   OH259245   5.877   0.050  13.805 -0.2180 -0.4240  0.6429
12585TIP3    H159246   5.942   0.077  13.870 -1.3684  1.4627  1.0843
12585TIP3    H259247   5.793   0.060  13.849 -0.9470 -0.4470 -0.6814
12586TIP3   OH259248   2.955   3.087   4.394  0.3033 -0.0766 -0.4966
12586TIP3    H159249   3.031   3.078   4.452  0.2612 -0.0323 -0.4345
12586TIP3    H259250   2.979   3.039   4.315  0.3638 -0.1304 -0.4451
12587TIP3   OH259251   3.428   3.506  14.276 -0.4458 -0.0869  0.6130
12587TIP3    H159252   3.345   3.471  14.244 -0.7537  0.9987  0.1679
12587TIP3    H259253   3.413   3.523  14.369  0.4101 -3.1298  1.4242
12588TIP3   OH259254   5.771   5.440  17.064  0.0759 -0.1374 -0.4241
12588TIP3    H159255   5.722   5.478  17.136  0.1817  0.1248 -0.4884
12588TIP3    H259256   5.821   5.369  17.103  1.3678  1.0084  0.0778
12589TIP3   OH259257   6.178   0.591  13.902  0.0410  0.2693 -0.1780
12589TIP3    H159258   6.126   0.512  13.915 -0.3643  0.4536 -0.6368
12589TIP3    H259259   6.262   0.572  13.944 -1.0839  0.7321  2.5396
12590TIP3   OH259260   5.152   2.314   4.365 -0.7199  0.3622  0.3904
12590TIP3    H159261   5.210   2.389   4.368  0.0004 -0.1893  0.5989
12590TIP3    H259262   5.192   2.256   4.299 -0.7897 -0.2108  0.8474
12591TIP3   OH259263   2.882   5.296  11.221  0.3349 -0.8450  0.4305
12591TIP3    H159264   2.948   5.362  11.200  1.2470 -1.0473  2.4125
12591TIP3    H259265   2.922   5.213  11.197  0.7621 -0.9485  1.4245
12592TIP3   OH259266   4.339   1.219   5.817 -0.0102 -0.1346  0.0045
12592TIP3    H159267   4.257   1.192   5.858 -0.6475  1.2465 -0.2929
12592TIP3    H259268   4.405   1.209   5.887  0.1859 -3.8581 -0.4942
12593TIP3   OH259269   2.165   0.066  13.562 -0.3991 -0.2648 -0.5417
12593TIP3    H159270   2.208   0.004  13.622 -2.4411 -0.2583  1.0473
12593TIP3    H259271   2.179   0.151  13.603  1.8588  0.3526 -2.3984
12594TIP3   OH259272   2.378   3.943   4.892 -0.6200 -0.1908  0.5106
12594TIP3    H159273   2.447   3.896   4.938 -0.4477  1.2250  1.7982
12594TIP3    H259274   2.369   4.025   4.941 -2.1985  0.2856 -0.5162
12595TIP3   OH259275   1.673   6.189   0.420  0.1253 -0.4839 -0.1016
12595TIP3    H159276   1.720   6.266   0.390 -0.6872  0.2469  0.4405
12595TIP3    H259277   1.719   6.115   0.380 -0.6287  0.3878 -2.7780
12596TIP3   OH259278   3.913   3.323   6.271 -0.4078 -0.1934 -0.3096
12596TIP3    H159279   3.993   3.290   6.231 -0.3146 -0.3165 -0.0247
12596TIP3    H259280   3.868   3.369   6.201  0.0132  0.0538 -0.4167
12597TIP3   OH259281   5.745   2.402  11.713  0.4139  0.1526  0.2155
12597TIP3    H159282   5.722   2.492  11.690 -0.2870 -0.3433 -1.1832
12597TIP3    H259283   5.775   2.363  11.630 -1.6810 -1.5784  0.1548
12598TIP3   OH259284   5.602   2.626  12.662  0.1896  0.0167 -0.1232
12598TIP3    H159285   5.603   2.722  12.669 -3.6893  0.2193 -0.3954
12598TIP3    H259286   5.593   2.596  12.753 -0.7986  0.0649 -0.1948
12599TIP3   OH259287   6.356   6.447  13.816 -0.1933 -0.3744 -0.7524
12599TIP3    H159288   6.335   6.394  13.894 -0.2835  0.1948 -0.3819
12599TIP3    H259289   6.271   6.483  13.789  0.0853  0.8465 -0.0596
12600TIP3   OH259290   6.159   6.790  16.074 -0.2390 -0.0630 -0.2580
12600TIP3    H159291   6.148   6.868  16.129  2.0786 -0.3515  0.7396
12600TIP3    H259292   6.199   6.725  16.133  0.0110 -1.2324 -1.6673
12601TIP3   OH259293   1.632   5.184  12.733 -0.1912 -0.5122 -0.7909
12601TIP3    H159294   1.560   5.171  12.672 -1.3147 -0.6383  0.5137
12601TIP3    H259295   1.601   5.253  12.793 -0.4541 -2.5029  1.5193
12602TIP3   OH259296   6.575   5.796   6.082  0.0099 -0.1392 -0.5765
12602TIP3    H159297   6.581   5.871   6.142  0.1188  1.3779 -2.3894
12602TIP3    H259298   6.521   5.732   6.129 -1.2359  1.6146  0.5257
12603TIP3   OH259299   3.533   5.718   0.725 -0.6341  0.1080  0.3435
12603TIP3    H159300   3.458   5.769   0.692 -0.3841  0.3496  0.1440
12603TIP3    H259301   3.494   5.656   0.786 -0.9963  0.2583  0.2712
12604TIP3   OH259302   6.442   6.665   0.018 -0.1506 -0.3665 -0.3196
12604TIP3    H159303   6.504   6.612  -0.033 -1.1272 -0.4404 -1.5049
12604TIP3    H259304   6.361   6.614   0.016 -1.1733  1.1905 -1.6303
12605TIP3   OH259305   0.124   2.330   6.783  0.4396  0.0570 -0.4600
12605TIP3    H159306   0.095   2.404   6.730 -0.1053  1.0699  1.1710
12605TIP3    H259307   0.211   2.309   6.749  0.4642  1.2247 -1.1893
12606TIP3   OH259308   3.065   6.497   5.657 -0.2353  0.8199 -0.4073
12606TIP3    H159309   3.142   6.456   5.618  1.3457 -0.9509  3.9316
12606TIP3    H259310   3.071   6.475   5.750 -4.8840  2.4805  0.5498
12607TIP3   OH259311   3.805   0.469   1.764  0.1195 -0.1765 -0.0539
12607TIP3    H159312   3.786   0.449   1.672 -1.8563  2.7484 -0.4336
12607TIP3    H259313   3.882   0.526   1.760 -0.0603  0.0763  0.0667
12608TIP3   OH259314   5.769   1.643   0.465  0.3021  0.0607 -0.5641
12608TIP3    H159315   5.806   1.622   0.380  1.3090 -0.9953  0.1040
12608TIP3    H259316   5.674   1.642   0.452  0.4355 -0.5163 -1.5590
12609TIP3   OH259317   4.329   4.535   4.610  0.2152 -0.0687  0.4987
12609TIP3    H159318   4.300   4.491   4.530  1.5377 -1.3398  0.6739
12609TIP3    H259319   4.352   4.463   4.670  0.1431  0.8641  1.6857
12610TIP3   OH259320   2.297   5.272  16.116 -0.0800  0.2098 -0.2489
12610TIP3    H159321   2.250   5.218  16.052 -1.2134  0.5253  0.2964
12610TIP3    H259322   2.365   5.214  16.150 -0.9988 -0.7430  0.0175
12611TIP3   OH259323   6.628   4.390   0.874  0.2350 -0.0565 -0.1005
12611TIP3    H159324   6.652   4.347   0.956 -0.2088 -1.9199 -0.9034
12611TIP3    H259325   6.711   4.411   0.833  0.5174 -1.8025 -0.4974
12612TIP3   OH259326   6.063   3.698  15.190 -0.1486 -0.1642 -0.0573
12612TIP3    H159327   6.154   3.708  15.220  0.0439 -0.9595 -0.3299
12612TIP3    H259328   6.043   3.606  15.208 -1.1068  0.1511  0.5291
12613TIP3   OH259329   1.255   2.888  10.694 -0.2681  0.0926  0.4689
12613TIP3    H159330   1.305   2.948  10.749  0.1336 -0.4643  0.7201
12613TIP3    H259331   1.269   2.801  10.733  0.1299 -0.3270 -0.5843
12614TIP3   OH259332   6.552   5.271  16.746  0.2128 -0.4430 -0.8974
12614TIP3    H159333   6.618   5.334  16.717 -1.1574  1.3205 -0.3726
12614TIP3    H259334   6.556   5.200  16.681  1.4020  0.4537 -1.8544
12615TIP3   OH259335   1.695   2.412  14.746  0.1872  0.0433  0.5262
12615TIP3    H159336   1.698   2.340  14.810 -0.9851 -0.2503  0.2814
12615TIP3    H259337   1.655   2.373  14.669 -1.7597  1.2642  0.8506
12616TIP3   OH259338   6.320   5.428   2.936 -0.1544  0.5917  0.5127
12616TIP3    H159339   6.401   5.441   2.985 -0.0467  0.9448  0.2460
12616TIP3    H259340   6.255   5.404   3.002  0.4251 -0.8387  0.6005
12617TIP3   OH259341   4.931   1.589  12.862 -0.4194  0.0145  0.5811
12617TIP3    H159342   4.906   1.644  12.937 -1.6953  0.1224  0.1060
12617TIP3    H259343   5.004   1.536  12.894 -0.8469  0.1601  1.8580
12618TIP3   OH259344   6.528   3.280  14.946  0.3212  0.2088 -0.1640
12618TIP3    H159345   6.568   3.362  14.915 -1.7913  1.7989  0.9852
12618TIP3    H259346   6.494   3.239  14.866  1.1285  0.6147 -0.7300
12619TIP3   OH259347   1.363   2.262  12.344 -0.2102 -0.5587  0.0255
12619TIP3    H159348   1.319   2.343  12.370 -0.2699 -1.2129  2.1288
12619TIP3    H259349   1.388   2.220  12.426 -1.4123 -3.3611 -0.8757
12620TIP3   OH259350   3.813   1.680   2.067 -0.2954 -0.6524  0.3944
12620TIP3    H159351   3.869   1.736   2.012 -0.9633 -0.6232 -0.2736
12620TIP3    H259352   3.843   1.697   2.156 -0.1293  0.3810  0.1644
12621TIP3   OH259353   0.396   4.631   4.615 -0.3760 -0.3074 -0.1732
12621TIP3    H159354   0.340   4.706   4.634 -1.0087 -0.5653 -0.9302
12621TIP3    H259355   0.408   4.633   4.520 -0.4511 -1.1912 -0.2169
12622TIP3   OH259356   0.684   0.804   5.474 -0.4373  0.6066 -0.6449
12622TIP3    H159357   0.657   0.857   5.549  0.5934  1.8956 -1.1497
12622TIP3    H259358   0.772   0.774   5.497 -1.1550 -1.3007 -0.1822
12623TIP3   OH259359   0.441   2.236  12.157 -0.0191 -0.6878  0.0748
12623TIP3    H159360   0.516   2.205  12.108 -1.0746  0.0271 -2.1032
12623TIP3    H259361   0.386   2.158  12.169  0.7259 -1.0806  1.1367
12624TIP3   OH259362   1.833   5.222   1.092  0.1813  0.4983 -0.2071
12624TIP3    H159363   1.894   5.198   1.023  1.6384  1.5298  0.6686
12624TIP3    H259364   1.889   5.254   1.163 -1.3054  0.0963  1.1875
12625TIP3   OH259365   2.516   5.730   5.836 -0.3894  0.9387  0.0433
12625TIP3    H159366   2.454   5.696   5.900 -0.3772  0.0298 -0.4240
12625TIP3    H259367   2.582   5.662   5.828 -0.1246  1.2621 -0.5732
12626TIP3   OH259368   6.613   4.154   3.200  0.5320  0.1471  0.3896
12626TIP3    H159369   6.674   4.088   3.231  0.0546 -0.7442 -0.5135
12626TIP3    H259370   6.549   4.106   3.148  0.2685  1.3283 -0.4392
12627TIP3   OH259371   5.470   5.129  15.500  0.2399  0.6648  0.0022
12627TIP3    H159372   5.377   5.139  15.517 -0.0041  0.1165 -0.9735
12627TIP3    H259373   5.503   5.084  15.578 -0.1931  1.3966  0.6149
12628TIP3   OH259374   4.301   4.987  11.629  0.1231  0.1514  0.0679
12628TIP3    H159375   4.276   5.074  11.660 -1.6990  0.8406 -2.9254
12628TIP3    H259376   4.358   5.004  11.554 -3.0575 -0.9589 -2.8211
12629TIP3   OH259377   3.948   2.320   4.985 -0.4180  0.3016  0.0693
12629TIP3    H159378   3.896   2.250   4.947 -1.0107  0.7261  0.0879
12629TIP3    H259379   4.008   2.276   5.045 -1.5047 -0.0930  0.8837
12630TIP3   OH259380   6.232   0.390  11.625  0.0736  0.3528  0.6133
12630TIP3    H159381   6.226   0.417  11.716  1.1984 -0.5542  0.9703
12630TIP3    H259382   6.304   0.327  11.622 -2.0327 -2.2127 -0.2656
12631TIP3   OH259383   5.168   2.469   4.071 -0.1464  0.0443 -0.1478
12631TIP3    H159384   5.132   2.550   4.106 -1.3197 -0.7619  0.5755
12631TIP3    H259385   5.196   2.419   4.148 -0.4847 -0.7094 -0.5013
12632TIP3   OH259386   4.089   0.234   4.018  0.7243  0.0877  0.1507
12632TIP3    H159387   4.114   0.197   4.102  0.8677  1.2669  0.6531
12632TIP3    H259388   4.118   0.170   3.953  1.0562 -0.6040  0.9691
12633TIP3   OH259389   6.173   0.590  11.172  0.7347  0.4708  0.7084
12633TIP3    H159390   6.149   0.635  11.253  1.6079  0.3204  1.0591
12633TIP3    H259391   6.232   0.520  11.200  0.3662 -0.1247  0.0333
12634TIP3   OH259392   2.848   4.661  12.864  0.0684 -0.1668  0.1826
12634TIP3    H159393   2.864   4.580  12.816  4.3841  0.3836  0.2703
12634TIP3    H259394   2.789   4.711  12.808  0.2350 -1.9268 -1.6715
12635TIP3   OH259395   0.666   5.739  14.856 -0.5052 -0.5147  0.4819
12635TIP3    H159396   0.640   5.830  14.864 -1.1115 -0.4277 -1.7716
12635TIP3    H259397   0.586   5.689  14.876 -0.5114 -0.5062  0.4774
12636TIP3   OH259398   4.761   5.744   1.723  0.2062 -0.4160 -0.5217
12636TIP3    H159399   4.749   5.671   1.783  0.8815 -0.6103 -0.6116
12636TIP3    H259400   4.737   5.710   1.637  1.4194 -0.8253 -0.7135
12637TIP3   OH259401   1.605   2.240  14.438  0.0161 -0.3958  0.5128
12637TIP3    H159402   1.679   2.281  14.393 -0.4858  0.4439  0.4213
12637TIP3    H259403   1.534   2.304  14.430 -0.7305 -1.1932  0.5752
12638TIP3   OH259404   5.322   0.129   2.144 -0.3450 -0.1558 -0.4689
12638TIP3    H159405   5.283   0.042   2.141 -0.2570 -0.1899 -0.6081
12638TIP3    H259406   5.247   0.189   2.148 -0.4019 -0.2648  0.3215
12639TIP3   OH259407   2.547   1.274   6.549  0.1059  0.3246  0.2224
12639TIP3    H159408   2.616   1.310   6.605  0.1829 -0.2333  0.4952
12639TIP3    H259409   2.589   1.266   6.463  0.3274  0.1663  0.3425
12640TIP3   OH259410   4.422   5.987   1.975  0.0995  0.6415 -0.3134
12640TIP3    H159411   4.432   5.922   2.045 -0.0358 -0.0967 -0.9697
12640TIP3    H259412   4.427   6.071   2.021  1.3613  0.2058  0.4165
12641TIP3   OH259413   0.215   4.364   4.225 -0.5917 -0.1078  0.0056
12641TIP3    H159414   0.254   4.277   4.215  1.5533  0.8831 -0.9019
12641TIP3    H259415   0.268   4.421   4.169 -2.6367  1.6155 -0.3108
12642TIP3   OH259416   5.256   3.744   4.504 -0.1606  0.2248  0.3799
12642TIP3    H159417   5.231   3.833   4.480  2.3218  0.8860  0.0408
12642TIP3    H259418   5.268   3.699   4.420 -1.1963 -0.3940  0.5478
12643TIP3   OH259419   6.068   3.965  11.972  0.2117 -0.1275  0.0009
12643TIP3    H159420   6.129   3.891  11.961 -0.1402 -0.2705 -1.1241
12643TIP3    H259421   5.983   3.924  11.986  0.6113  0.0407  3.6450
12644TIP3   OH259422   3.766   0.849   1.996  0.2712 -0.0957  0.0725
12644TIP3    H159423   3.692   0.796   1.968  0.1051  0.3798 -0.4056
12644TIP3    H259424   3.838   0.821   1.939  0.4076 -0.4016  0.3894
12645TIP3   OH259425   3.243   0.274  11.663 -0.2261 -0.5225 -0.2985
12645TIP3    H159426   3.204   0.338  11.603 -0.3385 -0.2350  0.0762
12645TIP3    H259427   3.329   0.255  11.625 -0.4073 -0.5561 -0.7002
12646TIP3   OH259428   2.078   4.068   1.678  0.4884 -0.1259 -0.1262
12646TIP3    H159429   1.986   4.088   1.657 -0.1193 -1.4134  1.1736
12646TIP3    H259430   2.073   4.002   1.747  2.3861 -2.7455 -2.2851
12647TIP3   OH259431   1.855   5.141   4.445  0.1009 -0.1028  0.2572
12647TIP3    H159432   1.864   5.135   4.540 -1.7213 -1.9585  0.3955
12647TIP3    H259433   1.944   5.132   4.411  0.8558  1.2785  1.7758
12648TIP3   OH259434   2.224   0.445   2.360 -0.5395  0.0431  0.0209
12648TIP3    H159435   2.146   0.451   2.304  0.2931 -1.0998 -1.3549
12648TIP3    H259436   2.268   0.365   2.330  0.5262 -0.0047  1.6074
12649TIP3   OH259437   5.020   2.420   2.238  0.0743 -0.5177 -0.0520
12649TIP3    H159438   4.942   2.369   2.262 -1.4129  1.6286  0.0286
12649TIP3    H259439   5.073   2.421   2.318 -0.2555 -1.2642  0.1888
12650TIP3   OH259440   1.069   0.566   3.908 -0.0489  0.4309 -0.1782
12650TIP3    H159441   1.154   0.574   3.866  0.1910  1.1364  0.4059
12650TIP3    H259442   1.006   0.579   3.837  0.3414  1.0145 -0.4306
12651TIP3   OH259443   1.428   4.857   4.132 -0.2099  0.9059 -0.0449
12651TIP3    H159444   1.469   4.771   4.132 -1.8637  0.0820 -0.1117
12651TIP3    H259445   1.498   4.917   4.105  1.0615 -0.3496  0.3448
12652TIP3   OH259446   2.746   5.142  15.114  0.4265  0.1299 -0.2192
12652TIP3    H159447   2.806   5.215  15.128  0.5991 -0.0873  0.1820
12652TIP3    H259448   2.700   5.132  15.198 -0.2235  0.3392 -0.5407
12653TIP3   OH259449   3.208   6.588   4.393 -0.0621  0.3189 -0.2280
12653TIP3    H159450   3.134   6.529   4.380  0.1308 -0.0531  0.3380
12653TIP3    H259451   3.183   6.641   4.468 -0.4102  1.2544 -0.9759
12654TIP3   OH259452   2.472   1.977   0.870  0.6705  0.0876 -0.2957
12654TIP3    H159453   2.399   2.017   0.917  0.5347  0.4413 -0.8093
12654TIP3    H259454   2.464   2.008   0.780  1.3891  0.0380 -0.3853
12655TIP3   OH259455   3.217   6.755  11.870 -0.2781  0.0782  0.6752
12655TIP3    H159456   3.124   6.735  11.876 -0.0827 -2.3157 -2.0855
12655TIP3    H259457   3.260   6.670  11.863  1.7669  1.1446 -1.3344
12656TIP3   OH259458   2.570   5.313   3.343  0.6841 -0.1262  0.3616
12656TIP3    H159459   2.484   5.356   3.338  1.1359  0.7429 -0.2821
12656TIP3    H259460   2.598   5.326   3.434  0.1241 -0.4531  0.5870
12657TIP3   OH259461   0.716   4.349  11.790  0.5677 -0.3798 -0.2096
12657TIP3    H159462   0.800   4.394  11.778  1.3082 -1.6424  0.0673
12657TIP3    H259463   0.679   4.389  11.869 -0.4081  2.0762 -1.7864
12658TIP3   OH259464   3.638   4.186   1.620  0.1095 -0.3049  0.0988
12658TIP3    H159465   3.713   4.197   1.562  2.5541 -1.2431  2.7854
12658TIP3    H259466   3.600   4.102   1.595  0.7605 -0.4285 -0.5066
12659TIP3   OH259467   0.559   4.242  16.536 -0.3125  0.1380 -0.1070
12659TIP3    H159468   0.472   4.262  16.502  0.4441  2.1497 -1.0333
12659TIP3    H259469   0.612   4.225  16.458  0.5129  0.6820  0.3208
12660TIP3   OH259470   6.364   3.034  14.037  0.6173 -0.5992 -0.3798
12660TIP3    H159471   6.322   3.114  14.008  0.9697 -0.8211 -1.5561
12660TIP3    H259472   6.457   3.056  14.042  0.6190 -0.7036  0.1244
12661TIP3   OH259473   4.462   6.510   2.925  0.3004 -0.1288 -0.7444
12661TIP3    H159474   4.408   6.483   3.000  0.9883 -0.7960 -0.4787
12661TIP3    H259475   4.419   6.589   2.892  0.5867  0.8011  1.0050
12662TIP3   OH259476   4.946   1.063   0.953 -0.0267  0.3286 -0.4964
12662TIP3    H159477   4.893   1.132   0.993 -0.5567 -0.1581 -0.3423
12662TIP3    H259478   4.998   1.108   0.887 -0.2657  0.9009 -0.2999
12663TIP3   OH259479   5.072   2.349   3.092 -0.2334  0.5445  0.1763
12663TIP3    H159480   5.014   2.339   3.168  0.4222  0.8139  0.7237
12663TIP3    H259481   5.131   2.274   3.096 -2.0234 -1.0909 -1.7568
12664TIP3   OH259482   1.726   2.729   5.407  0.2422  0.0976  0.0334
12664TIP3    H159483   1.816   2.709   5.431 -0.0534 -1.3377  0.0463
12664TIP3    H259484   1.731   2.772   5.322  0.8640 -1.0737 -0.5305
12665TIP3   OH259485   1.736   5.219   0.008  0.2569  0.3795 -0.7657
12665TIP3    H159486   1.736   5.211  -0.088  0.5671 -0.1643 -0.7284
12665TIP3    H259487   1.737   5.128   0.039 -2.3243  0.4726 -0.2175
12666TIP3   OH259488   0.926   4.186   0.733 -0.1063 -0.5847  0.4009
12666TIP3    H159489   1.021   4.176   0.726 -0.0034  0.8545 -0.9626
12666TIP3    H259490   0.898   4.111   0.785  1.7357 -1.2119  0.5863
12667TIP3   OH259491   0.763   3.427   4.886 -0.4755  0.4185  0.0455
12667TIP3    H159492   0.702   3.424   4.959  0.1307  0.0111  0.5426
12667TIP3    H259493   0.844   3.389   4.920 -0.1574  0.3013 -0.8084
12668TIP3   OH259494   0.665   2.655   5.982 -0.4816  1.1415 -0.6174
12668TIP3    H159495   0.718   2.700   6.047 -0.3868  0.4053 -0.1794
12668TIP3    H259496   0.694   2.692   5.898  0.1881  1.2928 -0.3258
12669TIP3   OH259497   1.029   6.357  16.438  0.4123 -0.3304  0.5944
12669TIP3    H159498   1.043   6.270  16.400  1.3588  0.6864 -1.5706
12669TIP3    H259499   0.968   6.342  16.510 -0.1452 -2.6600 -0.2654
12670TIP3   OH259500   4.007   1.119   3.387 -0.0750 -0.6200  0.2605
12670TIP3    H159501   4.089   1.118   3.436  3.4535 -0.2575 -4.8492
12670TIP3    H259502   3.973   1.207   3.397  2.7184  0.7002 -0.8401
12671TIP3   OH259503   4.397   1.187   1.793  0.2409 -0.2562  0.3210
12671TIP3    H159504   4.308   1.160   1.816  1.0433 -2.1676  1.3796
12671TIP3    H259505   4.407   1.162   1.702 -0.4269  0.3706  0.0629
12672TIP3   OH259506   1.255   5.641   1.068 -0.0265  0.2644 -0.0992
12672TIP3    H159507   1.266   5.548   1.049 -2.0151  0.0507 -0.4420
12672TIP3    H259508   1.223   5.679   0.987 -0.2314  1.0536  0.3357
12673TIP3   OH259509   6.044   0.798   4.624 -0.1054  0.7234 -0.0651
12673TIP3    H159510   6.016   0.882   4.660  1.0732  0.6249  1.1602
12673TIP3    H259511   6.114   0.769   4.683  0.6866 -0.3034 -1.4656
12674TIP3   OH259512   1.223   5.313  12.456  0.1174 -0.2198  0.1942
12674TIP3    H159513   1.297   5.328  12.398 -0.9364  1.6694 -0.7758
12674TIP3    H259514   1.154   5.370  12.422 -1.3324 -0.8581  1.8884
12675TIP3   OH259515   0.217   4.700   2.871 -0.2987  0.0789 -0.0832
12675TIP3    H159516   0.269   4.727   2.795 -0.6199 -0.9212 -0.6744
12675TIP3    H259517   0.156   4.635   2.836 -0.9487  0.1526  0.8936
12676TIP3   OH259518   5.870   4.673   4.464 -0.5718 -0.2230 -0.3689
12676TIP3    H159519   5.910   4.760   4.465  1.0026 -0.9176 -0.2545
12676TIP3    H259520   5.796   4.681   4.403 -0.7115  1.2829 -0.0433
12677TIP3   OH259521   4.806   1.725   5.119  0.8456 -0.1725  0.5921
12677TIP3    H159522   4.848   1.706   5.035 -0.1994  0.0207  0.0091
12677TIP3    H259523   4.871   1.775   5.168  1.8552 -1.1798  0.3093
12678TIP3   OH259524   0.477   5.718  11.579 -0.1134  0.4640  0.4197
12678TIP3    H159525   0.383   5.717  11.563 -0.2462 -1.9657  1.0307
12678TIP3    H259526   0.515   5.675  11.502  0.7509  3.0520 -0.7242
12679TIP3   OH259527   3.251   5.695   1.574 -0.2121 -0.2968  0.2959
12679TIP3    H159528   3.319   5.746   1.618  1.5212 -3.2138  1.3152
12679TIP3    H259529   3.178   5.694   1.635 -0.6952  1.6866 -0.1813
12680TIP3   OH259530   0.853   5.731  15.774  0.1499  0.2839 -0.2880
12680TIP3    H159531   0.831   5.785  15.849  1.3085  2.2251 -1.2829
12680TIP3    H259532   0.908   5.661  15.810 -1.3096 -0.2340  1.0064
12681TIP3   OH259533   0.783   3.772  17.152 -0.0615  0.1405 -0.6842
12681TIP3    H159534   0.814   3.833  17.085 -1.7801 -0.4564 -2.0970
12681TIP3    H259535   0.734   3.827  17.214  0.0774  0.4693 -0.8649
12682TIP3   OH259536   0.627   5.715  14.410 -0.7267  0.1253  0.3067
12682TIP3    H159537   0.582   5.635  14.384 -0.3886 -0.3784  1.2301
12682TIP3    H259538   0.703   5.686  14.460 -0.3245  1.0112  0.2405
12683TIP3   OH259539   6.464   3.645  16.764  0.2878  0.0737 -0.2075
12683TIP3    H159540   6.512   3.710  16.711 -1.1412 -0.6923 -2.5665
12683TIP3    H259541   6.374   3.652  16.734 -0.3116 -1.4572  1.1354
12684TIP3   OH259542   4.568   2.429  13.959  0.0721 -0.0621  0.4002
12684TIP3    H159543   4.546   2.448  13.868  0.9875 -2.1651 -0.3246
12684TIP3    H259544   4.586   2.515  13.998 -1.0310  0.9301 -1.1894
12685TIP3   OH259545   4.055   6.587  17.151 -0.3542  0.1291 -0.6882
12685TIP3    H159546   4.030   6.499  17.177  0.9650  0.0695  0.4782
12685TIP3    H259547   4.128   6.575  17.091 -0.5084  0.4084 -0.9321
12686TIP3   OH259548   3.196   6.728   2.449  0.2705  0.0750 -0.1136
12686TIP3    H159549   3.214   6.635   2.463  0.9755  0.1260 -0.6713
12686TIP3    H259550   3.212   6.743   2.356 -0.6876  0.5759 -0.2175
12687TIP3   OH259551   0.616   3.159  17.079 -0.3301  0.1411 -0.2193
12687TIP3    H159552   0.555   3.086  17.066  0.2141  0.0573 -2.7557
12687TIP3    H259553   0.561   3.235  17.092 -0.9912 -0.1511 -1.1911
12688TIP3   OH259554   2.755   3.425  14.275  0.4618  0.3074  0.2468
12688TIP3    H159555   2.812   3.414  14.351  0.2944 -1.3219  0.1627
12688TIP3    H259556   2.692   3.491  14.302  1.2462  0.7717  1.0048
12689TIP3   OH259557   3.818   2.047   3.433  0.5178 -0.0646  0.3824
12689TIP3    H159558   3.764   1.984   3.386  0.1679  0.1270  0.5250
12689TIP3    H259559   3.899   1.999   3.454  1.1873  0.1991 -1.4438
12690TIP3   OH259560   3.136   4.125   3.749 -0.0634 -0.1562 -0.4383
12690TIP3    H159561   3.140   4.208   3.797  0.7600  1.1426 -2.6110
12690TIP3    H259562   3.225   4.112   3.715  0.1698 -2.6563  0.9157
12691TIP3   OH259563   1.481   2.372   3.583  0.9319  0.5947  0.0906
12691TIP3    H159564   1.451   2.463   3.575  0.1772  0.4294  0.8007
12691TIP3    H259565   1.462   2.349   3.674  0.5337 -0.4732 -0.2453
12692TIP3   OH259566   0.250   6.133  14.372 -0.1828 -0.7854  0.3101
12692TIP3    H159567   0.169   6.084  14.385 -1.6541  1.3799 -0.2216
12692TIP3    H259568   0.293   6.133  14.457 -0.9361 -1.6301  0.7018
12693TIP3   OH259569   4.599   2.029   3.960 -0.0821  0.8103 -0.7023
12693TIP3    H159570   4.574   1.943   3.929  2.0293 -1.0257  2.1594
12693TIP3    H259571   4.678   2.051   3.911  0.4845  0.1627 -0.1048
12694TIP3   OH259572   1.995   6.753   0.346  0.0803  0.5447  0.1204
12694TIP3    H159573   2.026   6.770   0.257 -0.6097 -0.4021 -0.3117
12694TIP3    H259574   1.914   6.802   0.354  1.5611  3.0444  1.2638
12695TIP3   OH259575   2.904   5.230  13.608 -0.1157 -0.4158 -0.7122
12695TIP3    H159576   2.895   5.229  13.513 -1.8401 -0.4440 -0.5808
12695TIP3    H259577   2.824   5.274  13.639  0.2710 -0.6785  0.7318
12696TIP3   OH259578   1.052   0.160   1.943 -0.4669  0.7606 -0.5231
12696TIP3    H159579   1.016   0.148   2.030  0.2446 -1.3001 -0.4573
12696TIP3    H259580   1.146   0.171   1.957 -0.3421  0.3608 -1.0186
12697TIP3   OH259581   6.666   5.689   3.002 -0.3233  0.2403  0.1306
12697TIP3    H159582   6.731   5.663   2.937 -0.2372  1.2149 -0.1866
12697TIP3    H259583   6.651   5.610   3.054  0.4735 -0.2249 -0.3306
12698TIP3   OH259584   0.965   1.193  15.036  0.0001 -0.4566 -0.2906
12698TIP3    H159585   1.048   1.176  15.081  1.2652  2.3378 -1.3005
12698TIP3    H259586   0.907   1.226  15.105  0.8620  0.7550 -0.1141
12699TIP3   OH259587   0.042   6.783  15.375  0.0089  0.8001 -0.2196
12699TIP3    H159588   0.122   6.834  15.393  1.7587 -2.0841  0.7810
12699TIP3    H259589   0.071   6.715  15.314 -2.0889  0.4984 -0.9587
12700TIP3   OH259590   4.807   5.988   4.425 -0.1948  0.4495  0.5894
12700TIP3    H159591   4.789   5.912   4.480  1.4269  0.9918  1.9513
12700TIP3    H259592   4.901   6.002   4.433 -0.4392  2.5480  0.2934
12701TIP3   OH259593   4.606   2.133  15.321 -0.3260 -0.2008 -0.3156
12701TIP3    H159594   4.517   2.123  15.287 -0.5091  1.3933 -0.3437
12701TIP3    H259595   4.601   2.208  15.379  0.7164 -0.9259  0.7447
12702TIP3   OH259596   4.513   6.738  14.988 -0.4374  0.4912 -0.2015
12702TIP3    H159597   4.556   6.821  15.009  1.2873 -0.8811  1.9975
12702TIP3    H259598   4.429   6.743  15.033 -1.0735  1.6246 -1.4082
12703TIP3   OH259599   4.936   2.556   1.312 -0.3233  0.6912  0.7610
12703TIP3    H159600   4.940   2.526   1.403  0.2594  0.9440  0.8240
12703TIP3    H259601   4.933   2.476   1.260  1.6215  0.4908  0.9059
12704TIP3   OH259602   3.173   6.357   5.072  0.0117  0.2729 -0.0021
12704TIP3    H159603   3.086   6.343   5.109 -0.6164  2.3624 -0.5803
12704TIP3    H259604   3.197   6.271   5.036 -2.5385  0.0181 -1.3544
12705TIP3   OH259605   5.818   5.231   1.272 -0.7927 -0.4326  0.3921
12705TIP3    H159606   5.855   5.218   1.359  1.2668 -0.5603 -0.4357
12705TIP3    H259607   5.865   5.168   1.217 -2.2668 -0.5647 -0.7664
12706TIP3   OH259608   1.295   0.115  12.741  0.3344 -0.0702  0.5093
12706TIP3    H159609   1.249   0.044  12.695  1.4134 -0.6009  0.2259
12706TIP3    H259610   1.227   0.156  12.795 -1.1012  0.8429 -1.8041
12707TIP3   OH259611   1.303   1.093  10.586 -0.1083 -0.0073  0.2525
12707TIP3    H159612   1.316   1.140  10.503  1.7122 -2.3873 -0.9263
12707TIP3    H259613   1.296   1.001  10.560  2.1860 -1.0374  2.8307
12708TIP3   OH259614   5.412   2.288  14.160 -0.0133  0.1357  0.3709
12708TIP3    H159615   5.338   2.258  14.212  2.4378 -3.8802  2.0471
12708TIP3    H259616   5.463   2.344  14.219 -1.0138  1.9083 -0.3862
12709TIP3   OH259617   5.328   1.392   6.493  0.1799 -0.1515  0.2289
12709TIP3    H159618   5.413   1.390   6.536  0.4552  0.6138 -0.2660
12709TIP3    H259619   5.269   1.430   6.559  0.5134  0.6194  0.1018
12710TIP3   OH259620   0.629   0.758   3.949 -0.0060  0.2745  0.2973
12710TIP3    H159621   0.563   0.826   3.932 -1.4052 -0.7396  1.5107
12710TIP3    H259622   0.679   0.791   4.023 -0.5457  0.0795  0.7496
12711TIP3   OH259623   2.613   5.086  16.915  0.5186 -0.1378 -0.0828
12711TIP3    H159624   2.563   5.030  16.855 -0.6454 -0.3259  1.0132
12711TIP3    H259625   2.704   5.063  16.899  0.1421 -1.2325 -0.7555
12712TIP3   OH259626   3.479   4.910  12.308  0.6245 -0.1969  0.4830
12712TIP3    H159627   3.429   4.963  12.246  3.3031  0.4483 -1.3436
12712TIP3    H259628   3.414   4.874  12.368 -1.9473  0.5609 -1.6614
12713TIP3   OH259629   1.647   3.249  15.610  0.4580  0.0330  0.8028
12713TIP3    H159630   1.685   3.302  15.681 -0.5405 -0.5209  1.7915
12713TIP3    H259631   1.554   3.271  15.612  0.5781  0.8289 -1.0941
12714TIP3   OH259632   5.836   2.286  11.471 -0.1067 -0.2175 -0.4337
12714TIP3    H159633   5.789   2.208  11.441 -2.8290  0.4943  1.5727
12714TIP3    H259634   5.923   2.254  11.495 -1.5487 -3.0130  1.6531
12715TIP3   OH259635   4.221   3.134   2.987  0.3955 -0.1039 -0.0462
12715TIP3    H159636   4.273   3.064   2.947  3.2987  1.4039  0.8084
12715TIP3    H259637   4.243   3.212   2.936 -0.9830  0.6471  0.4552
12716TIP3   OH259638   5.053   4.362  11.914 -0.3766  0.2538  0.0034
12716TIP3    H159639   5.021   4.366  11.823 -1.4383 -0.9079  0.3015
12716TIP3    H259640   5.038   4.272  11.940  1.1521  0.2405  0.9219
12717TIP3   OH259641   5.652   4.016   3.995 -0.5402 -0.0616 -0.6122
12717TIP3    H159642   5.614   3.957   4.061  2.5468  0.5877  2.0670
12717TIP3    H259643   5.595   4.092   3.995 -1.2198 -0.5332  0.5631
12718TIP3   OH259644   5.838   4.077   5.606 -0.0823 -0.2012  0.2947
12718TIP3    H159645   5.928   4.105   5.594  0.8110 -2.1802  1.8707
12718TIP3    H259646   5.811   4.117   5.689 -0.0093 -1.1027  0.7593
12719TIP3   OH259647   3.663   3.398  12.252 -0.4446  0.2844 -0.3565
12719TIP3    H159648   3.695   3.423  12.339 -2.6787  0.1787  0.5344
12719TIP3    H259649   3.572   3.374  12.265 -1.4657  2.2060 -3.0464
12720TIP3   OH259650   4.991   1.708   1.150 -0.1341 -0.4354  0.5374
12720TIP3    H159651   4.952   1.749   1.227 -1.6676  1.8588 -1.3075
12720TIP3    H259652   5.073   1.756   1.137 -0.1873 -0.3808  0.3998
12721TIP3   OH259653   6.410   3.859   1.517  0.0654  0.2514 -0.3366
12721TIP3    H159654   6.460   3.860   1.599  0.7972 -1.9978 -0.6833
12721TIP3    H259655   6.454   3.924   1.462  0.5404  0.6778  0.5248
12722TIP3   OH259656   2.049   6.787   5.420  0.7772 -0.1553 -0.0817
12722TIP3    H159657   2.010   6.750   5.500 -0.1049  0.0929 -0.3840
12722TIP3    H259658   2.072   6.711   5.367  0.2366 -0.3027 -0.1108
12723TIP3   OH259659   1.888   1.124   1.505  0.4390  0.4487  0.1387
12723TIP3    H159660   1.942   1.163   1.436  1.3372  0.3540  0.7605
12723TIP3    H259661   1.918   1.033   1.510 -0.6497  0.0510 -0.3401
12724TIP3   OH259662   5.325   1.374  12.705 -0.1375  0.2608  0.1972
12724TIP3    H159663   5.392   1.432  12.669  0.5792 -1.1110 -0.7539
12724TIP3    H259664   5.360   1.286  12.692 -2.6372 -0.5791 -1.4384
12725TIP3   OH259665   0.969   0.923  11.782 -0.0909  0.3596 -0.5745
12725TIP3    H159666   0.877   0.945  11.793 -0.4067 -0.7599 -0.9422
12725TIP3    H259667   0.974   0.877  11.699  0.6711 -0.2946 -0.1783
12726TIP3   OH259668   0.599   6.697   4.644  0.0962 -0.1508 -0.0652
12726TIP3    H159669   0.664   6.631   4.668  0.0952 -0.2309 -0.2866
12726TIP3    H259670   0.649   6.778   4.634  0.3347 -0.4516 -1.3849
12727TIP3   OH259671   5.423   5.626  15.360 -0.0155  0.5833 -0.1195
12727TIP3    H159672   5.449   5.667  15.278  0.1019 -0.5345 -0.6523
12727TIP3    H259673   5.503   5.585  15.393 -0.3683 -0.1423 -0.1476
12728TIP3   OH259674   3.520   0.205   2.833  0.5072  0.5915 -0.2113
12728TIP3    H159675   3.462   0.247   2.769  1.1381 -0.2057 -1.3413
12728TIP3    H259676   3.490   0.239   2.917 -1.4466  0.4070 -0.7696
12729TIP3   OH259677   4.083   4.998   1.043 -0.3161 -0.1058  0.2424
12729TIP3    H159678   4.035   4.935   1.096 -0.6484 -0.0057  0.0581
12729TIP3    H259679   4.133   4.946   0.981  2.4478 -0.4717  2.5141
12730TIP3   OH259680   5.399   6.299  11.390  0.2005 -0.1871 -0.3028
12730TIP3    H159681   5.388   6.351  11.469  0.6982 -1.3769  0.5746
12730TIP3    H259682   5.463   6.232  11.413  0.3587 -0.5657 -1.7139
12731TIP3   OH259683   2.819   5.423   4.592 -0.0726 -0.2144 -0.2168
12731TIP3    H159684   2.881   5.426   4.665 -0.4143 -0.5829  0.0852
12731TIP3    H259685   2.736   5.450   4.630  0.2192  1.9896 -0.9725
12732TIP3   OH259686   3.465   3.381  14.571 -0.1997 -0.1544  0.3517
12732TIP3    H159687   3.542   3.330  14.595  0.0817 -0.0150 -0.2300
12732TIP3    H259688   3.500   3.468  14.551 -0.2605 -0.5701 -1.6822
12733TIP3   OH259689   6.029   5.615  16.423  0.8276 -0.0127  0.2000
12733TIP3    H159690   5.990   5.697  16.452  1.1343  0.8261 -1.6411
12733TIP3    H259691   5.959   5.570  16.376  1.6075  0.9012 -1.9680
12734TIP3   OH259692   4.000   2.948   1.820  0.1832  0.4995 -0.2316
12734TIP3    H159693   4.035   2.951   1.731  1.2130 -1.6181  0.0549
12734TIP3    H259694   3.906   2.934   1.808  0.0702  1.7030 -0.9548
12735TIP3   OH259695   4.265   5.485   4.894  0.5806 -0.3459 -0.2891
12735TIP3    H159696   4.337   5.421   4.896  1.5112  0.6639  0.2525
12735TIP3    H259697   4.292   5.552   4.957 -0.2197  0.7299 -1.0542
12736TIP3   OH259698   5.626   0.520  13.975 -0.6297 -0.2262 -0.4731
12736TIP3    H159699   5.702   0.493  13.924 -1.3450 -0.2036 -1.5805
12736TIP3    H259700   5.625   0.461  14.050 -0.2266 -1.0272 -1.0883
12737TIP3   OH259701   3.834   4.784   5.731  0.2134  0.0576 -0.4779
12737TIP3    H159702   3.900   4.814   5.667  0.3254 -1.8257 -1.3240
12737TIP3    H259703   3.878   4.791   5.815  1.6391 -1.3364 -1.0415
12738TIP3   OH259704   2.247   3.212  12.451 -0.5041 -0.1506 -0.3798
12738TIP3    H159705   2.311   3.145  12.475 -0.8337 -0.4529 -0.3357
12738TIP3    H259706   2.248   3.273  12.525  1.0198  0.8217 -1.1603
12739TIP3   OH259707   2.847   0.092  13.745 -0.1778 -0.3880  0.0941
12739TIP3    H159708   2.875   0.015  13.695  0.3249 -0.3881  0.3666
12739TIP3    H259709   2.921   0.153  13.738 -0.5977  0.0988 -0.1699
12740TIP3   OH259710   0.440   1.987  13.143  0.2301 -0.6388 -0.2599
12740TIP3    H159711   0.531   1.990  13.111  0.3779 -0.9187  0.1269
12740TIP3    H259712   0.429   2.070  13.189  1.2380 -1.7473  2.1808
12741TIP3   OH259713   4.286   1.470   0.701 -0.3091  0.0885  0.3983
12741TIP3    H159714   4.270   1.546   0.758  1.6634  0.0844  1.0449
12741TIP3    H259715   4.312   1.400   0.761  0.0043 -0.4545 -0.3561
12742TIP3   OH259716   4.938   5.372   4.559  0.2104  0.5021 -0.0241
12742TIP3    H159717   4.906   5.330   4.480 -1.9478  0.8275  0.6218
12742TIP3    H259718   4.974   5.456   4.529  0.7012  0.0207 -0.8029
12743TIP3   OH259719   5.229   4.227   0.103  0.2350  0.0772  0.7777
12743TIP3    H159720   5.144   4.187   0.090  0.4165  0.3332 -1.6889
12743TIP3    H259721   5.210   4.321   0.111  0.1981  0.0136  1.4549
12744TIP3   OH259722   6.372   0.380   2.644 -0.0837  0.1022  0.4198
12744TIP3    H159723   6.346   0.386   2.552  0.5672 -1.2518  0.1332
12744TIP3    H259724   6.322   0.450   2.686 -0.8505  0.3707 -0.8501
12745TIP3   OH259725   1.495   5.412  12.854  0.3321 -0.1948 -0.6653
12745TIP3    H159726   1.416   5.426  12.802  0.3986 -0.0570 -0.7309
12745TIP3    H259727   1.522   5.500  12.881  0.6254 -0.2151 -0.8865
12746TIP3   OH259728   6.476   0.579   0.273  0.0225  0.7789 -0.1380
12746TIP3    H159729   6.385   0.601   0.289 -0.2765  0.7622 -1.6736
12746TIP3    H259730   6.523   0.616   0.348 -1.1701  1.2689  0.3913
12747TIP3   OH259731   1.025   3.346   2.325  0.3187 -0.1017 -0.6537
12747TIP3    H159732   0.972   3.267   2.313  0.8314 -0.5695  0.0248
12747TIP3    H259733   1.053   3.341   2.416 -0.5040  1.4273 -0.2973
12748TIP3   OH259734   1.345   1.436   2.642  0.6701 -0.0385  0.0900
12748TIP3    H159735   1.360   1.374   2.713 -0.5919 -0.1992  0.2342
12748TIP3    H259736   1.329   1.382   2.565  0.9368  0.1260 -0.0824
12749TIP3   OH259737   3.091   6.111  16.027  0.1841  0.4373  0.2293
12749TIP3    H159738   3.043   6.123  15.945 -0.9130 -0.8684  0.6306
12749TIP3    H259739   3.138   6.193  16.040 -0.8968  1.2711 -0.8871
12750TIP3   OH259740   4.095   3.130  16.300  0.0841  0.3499 -0.6987
12750TIP3    H159741   4.166   3.096  16.245 -0.3779 -0.6350 -0.7107
12750TIP3    H259742   4.093   3.072  16.376 -1.0824 -0.0150 -0.9840
12751TIP3   OH259743   4.662   4.092  14.837  0.2468  0.0362 -0.0539
12751TIP3    H159744   4.752   4.096  14.804  0.6627 -1.9245  0.7047
12751TIP3    H259745   4.663   4.144  14.917  0.5894  0.3870 -0.2856
12752TIP3   OH259746   4.500   6.605  12.522 -0.5647 -0.2230 -0.3675
12752TIP3    H159747   4.496   6.551  12.443 -2.9779  0.0335 -0.5057
12752TIP3    H259748   4.450   6.684  12.499 -1.0053  0.0141  1.2906
12753TIP3   OH259749   6.687   5.640   5.470  0.8048 -0.1796 -0.3964
12753TIP3    H159750   6.615   5.691   5.506  0.7365  0.5886 -1.5707
12753TIP3    H259751   6.678   5.553   5.510 -1.1250 -0.2820 -0.9704
12754TIP3   OH259752   0.309   1.067  14.162 -0.0527 -0.2492  0.6834
12754TIP3    H159753   0.391   1.019  14.167 -0.5429 -1.0324  1.7195
12754TIP3    H259754   0.295   1.081  14.069  1.5130  0.3768  0.5121
12755TIP3   OH259755   4.796   0.047  13.309 -0.0005  0.3978 -0.2017
12755TIP3    H159756   4.891   0.040  13.321 -0.2418 -1.6220  1.2152
12755TIP3    H259757   4.763   0.075  13.395 -0.6716  1.5849 -0.8231
12756TIP3   OH259758   3.078   3.406   4.582 -0.0141 -0.3878 -0.0001
12756TIP3    H159759   3.127   3.485   4.561 -0.9648  0.0705 -0.5466
12756TIP3    H259760   3.039   3.424   4.668 -0.3760 -0.1862 -0.2048
12757TIP3   OH259761   4.650   6.203   4.348  0.0375 -0.0457  0.3546
12757TIP3    H159762   4.679   6.128   4.399 -1.2877 -0.1255  1.0470
12757TIP3    H259763   4.723   6.224   4.291  1.5587  0.0156  2.2462
12758TIP3   OH259764   0.611   4.414  10.594 -0.0479 -0.0328  0.6711
12758TIP3    H159765   0.640   4.353  10.526 -1.0513  1.0901 -0.8192
12758TIP3    H259766   0.692   4.450  10.630  0.4944 -0.1584 -0.3875
12759TIP3   OH259767   4.241   2.561  14.181  0.1997  0.0529  0.5641
12759TIP3    H159768   4.252   2.519  14.096 -0.6434  1.5061 -0.3162
12759TIP3    H259769   4.149   2.588  14.183  0.7478  2.1300  0.8829
12760TIP3   OH259770   0.240   3.834  12.683  0.5431 -0.2862  0.6714
12760TIP3    H159771   0.224   3.742  12.704  0.3142 -0.5868 -0.7686
12760TIP3    H259772   0.316   3.858  12.736 -0.5764 -0.7103  2.5823
12761TIP3   OH259773   6.751   4.909   4.652 -0.0460 -0.0510  0.7785
12761TIP3    H159774   6.758   4.821   4.690 -0.5451  0.0991  1.2292
12761TIP3    H259775   6.791   4.966   4.717  1.4930 -0.0713 -0.0927
12762TIP3   OH259776   2.151   2.687  12.899  0.1104 -0.1227 -0.1235
12762TIP3    H159777   2.105   2.764  12.933  0.2019  0.3678 -1.0855
12762TIP3    H259778   2.188   2.645  12.977  1.5407  1.7598  0.2865
12763TIP3   OH259779   1.520   6.525   3.811 -0.3489  0.4828  0.2183
12763TIP3    H159780   1.458   6.457   3.839 -1.2922  1.5180  0.7176
12763TIP3    H259781   1.562   6.488   3.734 -0.8469 -0.6712  0.4702
12764TIP3   OH259782   3.791   5.285  16.337 -0.1661 -0.4037  0.2134
12764TIP3    H159783   3.853   5.248  16.400  0.4143  0.9369  0.4537
12764TIP3    H259784   3.707   5.248  16.363  0.1834 -0.4930  1.2988
12765TIP3   OH259785   3.238   0.975   4.853  0.1901  0.4203 -0.3431
12765TIP3    H159786   3.188   0.972   4.771  1.0662  0.4193 -0.8918
12765TIP3    H259787   3.223   1.064   4.886  0.8479  0.8623 -1.1760
12766TIP3   OH259788   1.952   5.935   4.926 -0.0828  0.4384 -0.4841
12766TIP3    H159789   2.018   5.992   4.886  1.7300 -1.0451  0.2807
12766TIP3    H259790   1.963   5.949   5.020 -1.1297  0.4176 -0.3464
12767TIP3   OH259791   5.668   2.874  13.625 -0.2464 -0.7584 -0.6697
12767TIP3    H159792   5.715   2.791  13.623  1.5961  0.1581  0.7978
12767TIP3    H259793   5.735   2.939  13.602 -1.4422  0.4084 -1.0118
12768TIP3   OH259794   1.682   4.158   3.975  0.2322  0.0742  0.9564
12768TIP3    H159795   1.696   4.063   3.980 -0.1846 -0.1038 -0.6969
12768TIP3    H259796   1.620   4.169   3.904 -0.3277  1.5563  1.6364
12769TIP3   OH259797   5.306   4.419   0.444 -0.0316  1.0706  0.0366
12769TIP3    H159798   5.247   4.478   0.397  0.5509  0.8143 -1.0443
12769TIP3    H259799   5.287   4.332   0.408 -1.1744  0.4820  1.9025
12770TIP3   OH259800   1.652   3.099  16.640  0.4780  0.0201 -0.2549
12770TIP3    H159801   1.613   3.072  16.723  1.0178 -0.2379 -0.0783
12770TIP3    H259802   1.582   3.087  16.575  0.5483 -1.3536 -0.1058
12771TIP3   OH259803   2.241   4.097  10.772  0.4783  0.7074 -0.7674
12771TIP3    H159804   2.254   4.023  10.712 -0.8804 -0.3867  0.1927
12771TIP3    H259805   2.239   4.174  10.715 -0.2481 -0.2364 -2.0839
12772TIP3   OH259806   5.782   6.613  10.715  0.3810 -0.0991  0.2985
12772TIP3    H159807   5.757   6.539  10.771  0.5037  0.0999  0.6174
12772TIP3    H259808   5.719   6.609  10.642  0.4422 -0.5671  0.2649
12773TIP3   OH259809   0.120   2.948   5.721  0.4903 -0.1039  0.2227
12773TIP3    H159810   0.173   2.895   5.662  1.0846  0.6490  0.0564
12773TIP3    H259811   0.099   3.027   5.669  1.7172  0.9464  1.2635
12774TIP3   OH259812   0.939   1.037  10.647 -0.1988 -0.7335 -0.0403
12774TIP3    H159813   0.854   1.000  10.625 -1.8222  2.3713  0.4647
12774TIP3    H259814   0.968   1.080  10.566  0.2294 -0.5981  0.1825
12775TIP3   OH259815   2.405   6.220  12.351 -0.4462 -0.6022 -0.3560
12775TIP3    H159816   2.405   6.316  12.348  0.5092 -0.6104 -1.4594
12775TIP3    H259817   2.484   6.197  12.400 -0.9647 -0.8319  0.3863
12776TIP3   OH259818   2.333   0.302   0.816 -1.1597  0.2169 -0.5976
12776TIP3    H159819   2.349   0.350   0.735 -2.1620  2.7642  0.5758
12776TIP3    H259820   2.420   0.276   0.847 -0.8156 -1.4557 -2.7683
12777TIP3   OH259821   1.611   6.173   2.897  0.3932 -0.7155 -0.3071
12777TIP3    H159822   1.658   6.176   2.980  0.6760 -0.7838 -0.4648
12777TIP3    H259823   1.519   6.163   2.923 -0.0190  2.8208  0.1155
12778TIP3   OH259824   2.490   2.953   4.932 -0.1496  0.3247  0.3376
12778TIP3    H159825   2.448   2.982   4.850 -2.5724 -2.2055  0.5502
12778TIP3    H259826   2.546   2.881   4.905  0.6102  0.7877  0.6722
12779TIP3   OH259827   5.182   0.447   0.253 -0.3670  0.5579 -0.5028
12779TIP3    H159828   5.216   0.454   0.342 -1.7275  1.4488 -0.0178
12779TIP3    H259829   5.245   0.391   0.207  0.5132  0.3315  0.9289
12780TIP3   OH259830   0.426   4.562   0.397 -0.1381 -0.1333  0.7508
12780TIP3    H159831   0.347   4.614   0.413 -0.0411 -0.3805  2.1220
12780TIP3    H259832   0.491   4.596   0.458  0.8800  0.1571 -0.4626
12781TIP3   OH259833   2.349   4.163  13.259  0.4487 -0.4165 -0.7217
12781TIP3    H159834   2.324   4.158  13.167  0.9081  0.7377 -0.9249
12781TIP3    H259835   2.353   4.257  13.278  0.9738 -0.6318  0.2998
12782TIP3   OH259836   2.311   1.555   6.455 -0.0770  0.0613 -0.3445
12782TIP3    H159837   2.279   1.630   6.405 -0.6476  0.1535  0.1501
12782TIP3    H259838   2.406   1.556   6.443 -0.0226  1.2091  0.1354
12783TIP3   OH259839   6.255   3.611   1.495 -0.6096 -0.0805  0.6832
12783TIP3    H159840   6.264   3.623   1.401 -0.0275  0.9869  0.8574
12783TIP3    H259841   6.284   3.694   1.533 -0.2172 -0.7118  1.8303
12784TIP3   OH259842   1.476   6.299  16.167  0.0618  0.0390 -0.1590
12784TIP3    H159843   1.422   6.226  16.137  0.6224 -0.7139  0.6244
12784TIP3    H259844   1.547   6.303  16.103  0.5213 -0.6967  0.2872
12785TIP3   OH259845   1.541   4.211   1.703 -0.5279 -0.2224  0.4974
12785TIP3    H159846   1.462   4.265   1.706  0.1698  0.8526 -0.1567
12785TIP3    H259847   1.507   4.121   1.695 -1.7284 -0.0675  2.9508
12786TIP3   OH259848   3.702   3.632   3.487  1.0794 -0.2598  0.1754
12786TIP3    H159849   3.715   3.641   3.582  1.0784  2.3615 -0.0072
12786TIP3    H259850   3.608   3.644   3.475  0.9885 -1.1897 -0.1367
12787TIP3   OH259851   2.849   4.029  13.224  0.3187  0.2294 -0.1871
12787TIP3    H159852   2.878   4.118  13.241 -0.2945  0.7265 -1.6242
12787TIP3    H259853   2.754   4.032  13.233  0.3315 -0.4124  0.2611
12788TIP3   OH259854   3.612   4.000   5.403 -0.3543 -0.0040 -0.1547
12788TIP3    H159855   3.573   3.948   5.473  0.7297 -1.9477 -0.9040
12788TIP3    H259856   3.564   3.975   5.324  0.4610 -0.2379 -0.5981
12789TIP3   OH259857   2.707   2.327  16.716  0.2347  0.9501 -0.2867
12789TIP3    H159858   2.696   2.340  16.810  0.3379 -0.1818 -0.0988
12789TIP3    H259859   2.746   2.240  16.709  0.5328  1.1609 -1.3640
12790TIP3   OH259860   3.550   3.221  11.023 -0.2447 -0.1022 -0.5297
12790TIP3    H159861   3.526   3.313  11.017 -0.0901  0.1569  1.9441
12790TIP3    H259862   3.565   3.194  10.932  2.3893  3.0199 -1.2250
12791TIP3   OH259863   6.297   0.094  12.257  0.0497  0.0039 -0.1142
12791TIP3    H159864   6.210   0.083  12.294 -0.2197  1.3492 -0.3059
12791TIP3    H259865   6.284   0.082  12.162  0.1625 -0.2524 -0.0986
12792TIP3   OH259866   4.448   4.343   1.554  0.1339  0.1343 -0.1483
12792TIP3    H159867   4.385   4.282   1.515 -0.6516  1.4843 -1.0513
12792TIP3    H259868   4.418   4.354   1.644 -0.9628  0.7775 -0.5734
12793TIP3   OH259869   5.342   2.258   0.339 -0.4757  0.2792  0.6397
12793TIP3    H159870   5.438   2.250   0.339 -0.4532 -0.8784 -2.4123
12793TIP3    H259871   5.326   2.346   0.372  2.0373  2.3348 -2.8865
12794TIP3   OH259872   2.640   4.532   5.369 -0.3141 -0.7026 -0.1518
12794TIP3    H159873   2.645   4.484   5.452  0.6771  1.3138  1.0197
12794TIP3    H259874   2.555   4.576   5.372  0.4318  0.7640  0.6613
12795TIP3   OH259875   2.610   5.851  12.992 -0.3333  0.1220  0.3606
12795TIP3    H159876   2.599   5.935  13.036  0.5770  1.4155 -1.7067
12795TIP3    H259877   2.705   5.837  12.989 -0.4125 -0.3341 -0.4216
12796TIP3   OH259878   0.948   2.706   5.496 -0.3695  0.4975  0.1872
12796TIP3    H159879   0.990   2.689   5.580  0.4016  0.2901 -0.2245
12796TIP3    H259880   0.992   2.785   5.463  1.6359 -1.1717 -1.4420
12797TIP3   OH259881   1.763   5.820  14.529 -0.1096  0.5640 -0.2181
12797TIP3    H159882   1.754   5.904  14.573 -1.3267  0.2657  0.1682
12797TIP3    H259883   1.822   5.836  14.456 -0.0263  1.6544  0.0797
12798TIP3   OH259884   2.894   6.666   0.460  0.1644 -0.1935 -0.3000
12798TIP3    H159885   2.986   6.695   0.460  0.2593 -0.4726  0.2073
12798TIP3    H259886   2.900   6.571   0.462 -0.1313 -0.2043  0.3096
12799TIP3   OH259887   4.382   6.117  15.033 -0.2889  0.6379 -0.1286
12799TIP3    H159888   4.422   6.180  14.973  0.4858  0.7422  0.4854
12799TIP3    H259889   4.289   6.137  15.030 -0.2608  0.6975 -1.2317
12800TIP3   OH259890   6.394   5.194  14.732 -0.1910 -0.0822 -0.2546
12800TIP3    H159891   6.345   5.142  14.795 -0.4388 -0.0399 -0.4137
12800TIP3    H259892   6.365   5.163  14.647  0.6843 -0.6559 -0.3574
12801TIP3   OH259893   2.735   1.047  16.993 -0.2411  0.3140 -0.5470
12801TIP3    H159894   2.680   1.043  16.915 -0.8860  0.2940 -0.0975
12801TIP3    H259895   2.713   1.130  17.035  0.0166  0.2719 -0.3235
12802TIP3   OH259896   3.977   2.489   0.795 -1.0931 -0.3702  0.6818
12802TIP3    H159897   4.043   2.419   0.803 -1.7813 -1.3854 -1.7977
12802TIP3    H259898   3.925   2.465   0.719 -1.4777  2.7876 -0.1785
12803TIP3   OH259899   0.757   4.337   3.237 -0.9207 -0.0412  0.1701
12803TIP3    H159900   0.767   4.421   3.192  0.3435 -0.3643 -0.1960
12803TIP3    H259901   0.843   4.321   3.276 -1.7348 -0.1935  1.9851
12804TIP3   OH259902   6.645   3.914   3.985  0.0783  0.1083 -0.2646
12804TIP3    H159903   6.712   3.922   4.053 -0.5335 -0.5417  0.4314
12804TIP3    H259904   6.667   3.834   3.938  0.4770  0.5357 -0.8315
12805TIP3   OH259905   1.264   5.137   2.861  0.3389 -0.0084  0.4140
12805TIP3    H159906   1.217   5.202   2.913 -1.0891  0.8342 -1.7881
12805TIP3    H259907   1.241   5.053   2.900 -1.4116  0.5327  0.6138
12806TIP3   OH259908   4.293   0.301   0.100  0.5556 -0.3178 -0.7384
12806TIP3    H159909   4.284   0.395   0.082 -1.1659 -0.2222  0.4146
12806TIP3    H259910   4.204   0.267   0.092  0.9122 -1.5741  0.3411
12807TIP3   OH259911   0.685   1.719   3.779 -0.2580  0.3198  0.3312
12807TIP3    H159912   0.713   1.801   3.738 -0.1090 -0.5729 -1.4209
12807TIP3    H259913   0.730   1.718   3.864  1.6166  0.9502 -0.6172
12808TIP3   OH259914   0.406   3.719   4.403  0.2623 -0.2977 -0.1323
12808TIP3    H159915   0.499   3.695   4.403  0.2167 -0.5918 -1.6126
12808TIP3    H259916   0.385   3.732   4.311 -0.7123  1.6730  0.3312
12809TIP3   OH259917   1.825   3.931   4.133 -0.0562  0.1284  0.2381
12809TIP3    H159918   1.808   3.887   4.049 -0.4597 -0.4799  0.6320
12809TIP3    H259919   1.814   3.862   4.199 -0.9516  0.8756  0.8859
12810TIP3   OH259920   1.494   0.898   1.746 -0.2138  0.1234 -0.0797
12810TIP3    H159921   1.477   0.992   1.750 -0.5418  0.0760 -0.3869
12810TIP3    H259922   1.464   0.871   1.659  0.6795 -0.1056 -0.3331
12811TIP3   OH259923   6.608   1.278  11.966 -0.4436  0.5979  0.1223
12811TIP3    H159924   6.534   1.262  12.026 -0.4375  1.6174  0.4211
12811TIP3    H259925   6.684   1.281  12.023 -0.2150 -0.0403 -0.1400
12812TIP3   OH259926   0.853   0.855   0.349  0.6400 -0.6482 -0.4327
12812TIP3    H159927   0.923   0.790   0.344 -0.7258 -2.1760 -0.5971
12812TIP3    H259928   0.784   0.819   0.293 -0.5172  0.4987  0.2147
12813TIP3   OH259929   3.063   0.679  13.664 -0.3386  0.2011  0.0456
12813TIP3    H159930   3.035   0.669  13.573 -1.9180 -1.1139  0.6488
12813TIP3    H259931   3.119   0.603  13.680  1.1751  1.2163 -0.2359
12814TIP3   OH259932   6.825   3.954  10.932  0.0083  0.0431  0.6012
12814TIP3    H159933   6.810   3.983  10.842 -2.2256 -2.2535  0.1131
12814TIP3    H259934   6.795   4.027  10.986 -0.3831  0.7374 -0.5075
12815TIP3   OH259935   4.458   4.295  12.149  0.3731 -0.2713  0.2447
12815TIP3    H159936   4.380   4.284  12.094 -0.0605 -1.2499  1.0183
12815TIP3    H259937   4.526   4.246  12.104 -0.0876 -1.4200  0.7599
12816TIP3   OH259938   5.053   6.435   0.953  0.3214  0.1440 -0.3147
12816TIP3    H159939   5.065   6.369   0.884  1.1880  0.7769 -0.7905
12816TIP3    H259940   4.999   6.503   0.912 -0.7607 -0.3474  0.2465
12817TIP3   OH259941   0.690   1.670   3.049  0.4819  0.0967  0.2132
12817TIP3    H159942   0.727   1.697   3.134 -0.2031 -0.2784  0.6354
12817TIP3    H259943   0.615   1.728   3.036 -0.2015 -0.7062  0.4945
12818TIP3   OH259944   0.837   4.964  12.706 -0.6858 -0.3705 -0.1478
12818TIP3    H159945   0.906   4.978  12.772  0.8858 -3.5331 -0.9221
12818TIP3    H259946   0.798   4.880  12.730 -0.4066 -1.3698 -2.8646
12819TIP3   OH259947   6.130   5.790   0.372 -0.3353  0.0555 -0.6766
12819TIP3    H159948   6.133   5.756   0.283 -0.6182 -1.8181 -0.0200
12819TIP3    H259949   6.066   5.735   0.417 -0.0429  0.8105  0.7366
12820TIP3   OH259950   4.260   0.573  16.344 -0.4805  0.6755 -0.2759
12820TIP3    H159951   4.285   0.594  16.434  0.9241 -0.1080 -0.4649
12820TIP3    H259952   4.173   0.614  16.334 -0.6531  0.8060  1.4060
12821TIP3   OH259953   6.166   2.608  15.890 -0.1199 -0.3003 -0.5584
12821TIP3    H159954   6.105   2.680  15.905 -0.1708 -0.6440  1.0926
12821TIP3    H259955   6.219   2.636  15.816 -0.2629  1.3486 -0.0801
12822TIP3   OH259956   1.194   3.987   4.859 -0.1452  0.4790  0.4157
12822TIP3    H159957   1.283   3.973   4.891  0.2200  1.8076  0.0417
12822TIP3    H259958   1.138   3.955   4.930  0.6116 -0.8277  0.4470
12823TIP3   OH259959   0.639   0.172  15.523 -0.4596 -0.0268 -0.2298
12823TIP3    H159960   0.678   0.252  15.489 -0.4202  0.8048  1.6627
12823TIP3    H259961   0.689   0.101  15.482 -0.4283  0.8795 -1.8400
12824TIP3   OH259962   3.638   5.738  16.557  0.0416 -0.1382  0.3550
12824TIP3    H159963   3.692   5.811  16.588  0.8915 -0.0604 -1.2400
12824TIP3    H259964   3.603   5.768  16.473  0.3272 -1.5067 -0.2869
12825TIP3   OH259965   0.878   3.356   0.003  0.1784  0.6104  0.2158
12825TIP3    H159966   0.891   3.266  -0.027  1.7384  0.7482  0.4216
12825TIP3    H259967   0.852   3.404  -0.076 -2.4528 -0.3062  0.4091
12826TIP3   OH259968   4.561   3.453  12.289  0.2546  0.0668  0.3894
12826TIP3    H159969   4.590   3.406  12.367 -1.0942  0.5794  1.2305
12826TIP3    H259970   4.471   3.479  12.308  0.4644  1.7139 -0.6433
12827TIP3   OH259971   3.014   6.129   0.662 -0.2858  0.3161  0.3505
12827TIP3    H159972   3.051   6.132   0.751  0.1968  1.6425  0.1310
12827TIP3    H259973   3.018   6.220   0.632 -1.3458  0.0411 -0.6700
12828TIP3   OH259974   1.877   3.384   2.289  0.0447  0.1894 -0.2166
12828TIP3    H159975   1.842   3.456   2.342  1.7284  0.1061  1.0973
12828TIP3    H259976   1.925   3.427   2.219 -2.8398  0.3090 -2.2720
12829TIP3   OH259977   2.316   2.076  14.233  0.7306  0.6602 -0.0656
12829TIP3    H159978   2.329   1.989  14.269 -3.4701 -0.2245 -0.2518
12829TIP3    H259979   2.404   2.107  14.212  2.4015 -3.3572  0.3074
12830TIP3   OH259980   3.887   2.933  15.883  0.0047  0.2699  0.4494
12830TIP3    H159981   3.949   2.865  15.908  1.1479 -0.2895 -3.2971
12830TIP3    H259982   3.939   3.013  15.877  0.3996 -0.0933 -2.1779
12831TIP3   OH259983   3.127   5.910   4.508  0.5217  0.3929  0.4969
12831TIP3    H159984   3.170   5.891   4.592  0.0801 -0.3566  0.5654
12831TIP3    H259985   3.131   5.828   4.460  1.1251  0.9249 -0.3914
12832TIP3   OH259986   0.422   4.453  16.273 -0.6692  0.0284  0.2994
12832TIP3    H159987   0.357   4.482  16.209  1.1474  2.2033 -0.7086
12832TIP3    H259988   0.486   4.403  16.221 -0.7349 -0.8038  1.0000
12833TIP3   OH259989   5.942   2.528   3.386  0.2992 -0.0627  0.3535
12833TIP3    H159990   6.021   2.581   3.381  0.6913 -0.7182 -1.0150
12833TIP3    H259991   5.972   2.437   3.379 -0.5719 -0.3026 -0.8274
12834TIP3   OH259992   5.039   5.607  11.213  0.0889 -0.6045  0.4437
12834TIP3    H159993   4.998   5.670  11.273 -1.2511 -0.4362 -0.5921
12834TIP3    H259994   5.115   5.654  11.178 -0.3731  0.1209  0.3744
12835TIP3   OH259995   3.466   0.793   4.813 -0.1603  0.3082 -0.3727
12835TIP3    H159996   3.559   0.814   4.820  0.2940 -1.7035  0.6211
12835TIP3    H259997   3.421   0.873   4.838  1.3279  1.0191  0.1510
12836TIP3   OH259998   5.529   0.162  12.386  0.0158  0.2936  0.0807
12836TIP3    H159999   5.547   0.252  12.360  0.4102  0.7748  1.8657
12836TIP3    H260000   5.498   0.169  12.476 -0.5303 -1.3102  0.0452
12837TIP3   OH260001   0.451   6.556  12.728 -0.1270  0.1127  0.5200
12837TIP3    H160002   0.468   6.469  12.763 -0.1870 -0.2278 -0.2783
12837TIP3    H260003   0.356   6.566  12.732 -0.1292  0.0945  0.5148
12838TIP3   OH260004   5.268   5.724  11.092 -0.5013 -0.6050 -0.3513
12838TIP3    H160005   5.308   5.669  11.024 -0.4543 -1.3040  0.2383
12838TIP3    H260006   5.245   5.805  11.046 -1.9436 -1.6657 -1.5879
12839TIP3   OH260007   3.950   2.298   3.725  0.2590  0.1586 -0.1559
12839TIP3    H160008   3.888   2.366   3.751  0.8876  0.9301 -0.6537
12839TIP3    H260009   3.990   2.270   3.808 -0.6167 -0.2340  0.1516
12840TIP3   OH260010   0.550   2.210   5.315 -0.5224  0.0777 -0.8998
12840TIP3    H160011   0.610   2.271   5.356 -0.3049  0.2580 -1.4807
12840TIP3    H260012   0.599   2.128   5.309 -0.2404  0.2943 -1.6065
12841TIP3   OH260013   0.174   2.021   4.538 -0.8725 -0.2504 -0.3125
12841TIP3    H160014   0.231   2.070   4.598 -1.0970  0.3129 -0.5571
12841TIP3    H260015   0.085   2.044   4.565 -0.9760  0.6349 -1.3625
12842TIP3   OH260016   5.779   5.650  12.085 -0.1900 -0.1913  0.7399
12842TIP3    H160017   5.808   5.579  12.028 -1.5583  0.1654 -0.4603
12842TIP3    H260018   5.704   5.689  12.039  0.6958  2.2349  1.1921
12843TIP3   OH260019   6.204   5.660   2.757  0.1915  0.2434  0.4049
12843TIP3    H160020   6.126   5.655   2.702  0.3780  2.5118 -0.1630
12843TIP3    H260021   6.276   5.636   2.700  0.2028  0.9459  0.1169
12844TIP3   OH260022   3.726   0.108  17.166 -0.0907 -0.2365  0.1275
12844TIP3    H160023   3.791   0.042  17.144 -0.8014 -0.7661 -0.4184
12844TIP3    H260024   3.754   0.142  17.251  0.2768 -1.2483  0.4239
12845TIP3   OH260025   0.064   2.687   3.465 -0.2540  0.0611 -0.2684
12845TIP3    H160026   0.068   2.622   3.394 -0.4540 -0.3973  0.1336
12845TIP3    H260027  -0.000   2.651   3.526  0.9806 -0.2704  0.8735
12846TIP3   OH260028   2.874   1.254  15.064  0.3405  0.5000 -0.5150
12846TIP3    H160029   2.789   1.218  15.038  0.1189  1.0697 -0.6090
12846TIP3    H260030   2.853   1.325  15.124  0.8380 -0.5162  0.9066
12847TIP3   OH260031   6.671   1.807   3.745  0.1148 -0.4241  0.4821
12847TIP3    H160032   6.587   1.776   3.779  0.6442 -0.3045  1.9551
12847TIP3    H260033   6.731   1.733   3.758  0.5401 -0.0541  0.6264
12848TIP3   OH260034   5.410   5.229  14.527  0.4262  0.1384 -0.5055
12848TIP3    H160035   5.454   5.196  14.605 -0.3535  1.5467  0.5847
12848TIP3    H260036   5.414   5.325  14.536 -3.7735  0.4273  0.3323
12849TIP3   OH260037   5.455   5.335   4.625 -0.4028  0.1972 -0.6984
12849TIP3    H160038   5.466   5.353   4.718 -0.3718  1.3857 -0.9184
12849TIP3    H260039   5.493   5.248   4.612 -1.3625 -0.4361  0.5852
12850TIP3   OH260040   5.375   6.290   0.559  0.1445 -0.1982  0.1859
12850TIP3    H160041   5.390   6.385   0.560 -0.4753 -0.0916 -0.2401
12850TIP3    H260042   5.397   6.262   0.648  0.2366  0.3631  0.3477
12851TIP3   OH260043   6.391   2.198   2.875 -0.1265 -0.0177 -0.0136
12851TIP3    H160044   6.359   2.244   2.952  0.6970  1.3536 -0.4555
12851TIP3    H260045   6.373   2.258   2.802 -0.3659 -1.0332 -0.8114
12852TIP3   OH260046   4.933   1.205   0.694 -0.1133  0.4113  0.0657
12852TIP3    H160047   5.002   1.207   0.627 -0.2957 -0.4519 -0.1718
12852TIP3    H260048   4.866   1.147   0.656 -0.5562  0.5128  0.6835
12853TIP3   OH260049   2.620   1.998  14.866  0.4116 -0.4321 -1.0560
12853TIP3    H160050   2.713   2.022  14.868 -0.0973  1.8144  1.7300
12853TIP3    H260051   2.573   2.078  14.889 -2.1374 -1.8150 -1.0078
12854TIP3   OH260052   6.529   3.428   1.764 -0.0916 -0.0962 -0.0536
12854TIP3    H160053   6.565   3.372   1.833 -0.1415 -0.4871 -0.3422
12854TIP3    H260054   6.539   3.377   1.684  0.3841  0.5317 -0.4128
12855TIP3   OH260055   3.316   0.699  14.243 -0.4292  0.3009 -0.6293
12855TIP3    H160056   3.294   0.792  14.244  2.1839  0.9894  0.4073
12855TIP3    H260057   3.281   0.665  14.326 -0.2271  0.6663 -0.3937
12856TIP3   OH260058   1.816   2.228  15.035  0.0222  0.0071 -0.0577
12856TIP3    H160059   1.728   2.242  14.999 -0.0273  0.6872  0.3273
12856TIP3    H260060   1.861   2.178  14.966 -0.5044  0.0793 -0.4690
12857TIP3   OH260061   6.012   4.150   2.618 -0.5044  0.4812 -0.0076
12857TIP3    H160062   6.035   4.235   2.580 -3.6515  2.0465  1.2054
12857TIP3    H260063   5.994   4.169   2.710 -1.7113 -1.3927  0.2011
12858TIP3   OH260064   3.725   3.429   4.861 -0.2194 -0.1548 -0.0919
12858TIP3    H160065   3.738   3.372   4.785 -0.1558 -0.3215  0.0464
12858TIP3    H260066   3.630   3.430   4.873 -0.2103 -0.3436 -0.0055
12859TIP3   OH260067   2.940   2.985   2.841 -0.1495  0.1950 -0.0395
12859TIP3    H160068   3.033   2.980   2.819  0.0143 -1.1937  0.8073
12859TIP3    H260069   2.902   3.043   2.775  1.0946 -0.1896 -1.1282
12860TIP3   OH260070   0.107   5.982  16.224  0.7296  0.2403  0.0955
12860TIP3    H160071   0.013   5.994  16.239  0.4891 -1.2399 -0.1219
12860TIP3    H260072   0.148   6.017  16.304 -0.2296 -2.2830  1.8299
12861TIP3   OH260073   1.705   4.592  12.342  0.2434 -0.0611  0.1742
12861TIP3    H160074   1.682   4.520  12.284  0.0089  1.0913 -1.2373
12861TIP3    H260075   1.633   4.655  12.331  0.8971  0.7882  0.6432
12862TIP3   OH260076   4.085   4.078  16.316  0.1241  0.1891 -0.1778
12862TIP3    H160077   4.089   4.075  16.412 -0.1224 -2.1405 -0.1673
12862TIP3    H260078   4.164   4.126  16.290  1.2905 -0.8702  1.1835
12863TIP3   OH260079   4.132   0.250   4.688  0.9801 -0.2805  0.2023
12863TIP3    H160080   4.067   0.244   4.758  0.7034 -0.0643 -0.0328
12863TIP3    H260081   4.112   0.177   4.630  1.8110 -1.0472  0.8367
12864TIP3   OH260082   2.058   1.940  16.658 -0.5242 -0.2640  0.2477
12864TIP3    H160083   1.996   1.937  16.586 -0.3695  0.3840  0.0835
12864TIP3    H260084   2.113   1.863  16.646  0.3242  0.5184 -1.0725
12865TIP3   OH260085   3.081   6.632  13.401  0.1454 -0.5813 -0.3542
12865TIP3    H160086   3.145   6.601  13.465  0.5285 -0.3241 -0.6066
12865TIP3    H260087   3.053   6.553  13.354 -0.6034 -0.8615  0.5361
12866TIP3   OH260088   0.304   5.148   1.420 -0.3964 -0.4455 -0.2743
12866TIP3    H160089   0.309   5.201   1.340 -0.6538 -1.6454 -1.1090
12866TIP3    H260090   0.217   5.168   1.455  0.0452  0.7404  0.1979
12867TIP3   OH260091   3.446   2.657   1.612  0.4963 -0.0318 -0.4396
12867TIP3    H160092   3.370   2.617   1.655  1.1152 -1.6179 -0.7522
12867TIP3    H260093   3.433   2.751   1.623 -0.5448 -0.3272  1.1740
12868TIP3   OH260094   4.775   1.784  12.482 -0.2171  0.7622 -0.4114
12868TIP3    H160095   4.811   1.756  12.397  3.1612  2.7638  0.1843
12868TIP3    H260096   4.840   1.754  12.546 -1.7767  0.9046  1.3156
12869TIP3   OH260097   3.921   4.733  11.594  0.3400 -0.1079 -0.4367
12869TIP3    H160098   3.876   4.749  11.677 -0.8765  1.5992 -1.3530
12869TIP3    H260099   3.859   4.683  11.542  0.5032  0.0832 -0.8229
12870TIP3   OH260100   5.807   4.414  15.860 -0.5765 -0.3806 -0.3528
12870TIP3    H160101   5.732   4.431  15.918  0.0377 -0.6331  0.5334
12870TIP3    H260102   5.880   4.396  15.919  0.8726  2.4414 -1.0879
12871TIP3   OH260103   2.872   2.406   0.067  0.3364 -0.5113 -0.2606
12871TIP3    H160104   2.900   2.334   0.011  1.8988 -0.2410  0.1303
12871TIP3    H260105   2.910   2.484   0.026 -1.1678  0.0942 -0.5724
12872TIP3   OH260106   3.024   4.165  13.669 -0.2992 -0.2952  0.0208
12872TIP3    H160107   2.937   4.202  13.681  0.1594  0.3304  1.8326
12872TIP3    H260108   3.060   4.160  13.757  1.4508 -0.6653 -0.6682
12873TIP3   OH260109   3.160   1.521   2.978  0.0983  0.6212  0.3062
12873TIP3    H160110   3.185   1.613   2.979 -0.8069  0.8729  0.4904
12873TIP3    H260111   3.188   1.487   3.062 -1.4305  1.2573  1.1095
12874TIP3   OH260112   6.664   5.883  11.681 -0.0185 -0.8236  0.2388
12874TIP3    H160113   6.668   5.788  11.694  1.0387 -0.9505 -0.8848
12874TIP3    H260114   6.753   5.914  11.698  0.2477 -0.3761 -1.7432
12875TIP3   OH260115   0.324   3.772  15.637 -0.0726 -0.0711 -0.8841
12875TIP3    H160116   0.365   3.685  15.643 -1.8991 -0.9999 -0.9744
12875TIP3    H260117   0.346   3.814  15.721  1.7154 -0.1701 -1.2661
12876TIP3   OH260118   1.116   1.504  15.180 -0.3347  0.4522 -0.5734
12876TIP3    H160119   1.055   1.514  15.254 -0.4476  0.4450 -0.6653
12876TIP3    H260120   1.169   1.428  15.203 -1.4183 -0.5402 -1.2263
12877TIP3   OH260121   1.168   6.808   0.024  0.2407 -0.5763  0.5225
12877TIP3    H160122   1.241   6.796   0.084 -0.3708 -1.0202  1.1976
12877TIP3    H260123   1.176   6.736  -0.038  1.1731  0.1819 -0.2617
12878TIP3   OH260124   3.078   2.071   3.521  1.0431  0.1194  0.7415
12878TIP3    H160125   2.998   2.020   3.532  1.0135  0.1385  0.6233
12878TIP3    H260126   3.062   2.153   3.566  1.0371  0.0810  0.8105
12879TIP3   OH260127   1.666   1.156   0.020  0.4464 -0.1914  0.1975
12879TIP3    H160128   1.596   1.170  -0.044 -0.2981  1.0721  1.2470
12879TIP3    H260129   1.730   1.224   0.002 -0.5551  1.2497  1.7992
12880TIP3   OH260130   2.589   2.808  12.030  0.4899 -0.9194 -0.1758
12880TIP3    H160131   2.659   2.817  12.095 -0.0459  5.5643  0.1437
12880TIP3    H260132   2.509   2.799  12.082  0.5028 -1.4646 -0.2442
12881TIP3   OH260133   2.767   0.664   1.410 -0.7508 -0.7046  0.1384
12881TIP3    H160134   2.859   0.690   1.418 -1.2163  1.1329 -0.1550
12881TIP3    H260135   2.747   0.622   1.493  0.5155 -1.7245 -0.0365
12882TIP3   OH260136   4.436   5.222   4.501 -0.0028 -0.2342 -0.1206
12882TIP3    H160137   4.359   5.166   4.511  0.1282 -0.4977 -0.5716
12882TIP3    H260138   4.482   5.214   4.584  0.5161 -1.5522 -0.5230
12883TIP3   OH260139   2.472   5.997   1.059  0.0697  0.4331 -0.0369
12883TIP3    H160140   2.562   6.031   1.059 -0.3257  1.5397  0.2280
12883TIP3    H260141   2.454   5.978   1.152  0.0794  0.0840 -0.1069
12884TIP3   OH260142   2.249   1.668  15.892  0.1799 -0.5423  0.0685
12884TIP3    H160143   2.210   1.589  15.855  2.2037 -1.3977 -0.3719
12884TIP3    H260144   2.344   1.653  15.889  0.6890  2.1819 -0.6749
12885TIP3   OH260145   1.936   3.559  14.580  0.0057  0.4574 -0.2093
12885TIP3    H160146   1.865   3.623  14.585  0.5915  1.2407 -1.6447
12885TIP3    H260147   1.961   3.544  14.671 -0.6009  1.7510  0.1905
12886TIP3   OH260148   0.186   0.233  15.709  0.2316  0.5330 -1.1915
12886TIP3    H160149   0.182   0.238  15.613 -0.9758 -2.7417 -1.4329
12886TIP3    H260150   0.107   0.186  15.734  0.8563  0.7297  1.3816
12887TIP3   OH260151   0.625   5.546  16.483 -0.5221 -0.1458 -0.1762
12887TIP3    H160152   0.637   5.528  16.576  0.6077 -0.6908 -0.4157
12887TIP3    H260153   0.595   5.463  16.446 -0.1774 -0.1534 -0.4359
12888TIP3   OH260154   4.665   1.419  16.343 -0.2181  0.0286  0.0355
12888TIP3    H160155   4.625   1.435  16.258  0.1877 -1.8656 -0.5624
12888TIP3    H260156   4.645   1.497  16.394 -0.1763  1.3546 -1.8943
12889TIP3   OH260157   4.494   3.442   4.799  0.8273  0.5084  0.4779
12889TIP3    H160158   4.416   3.484   4.837 -0.0063  0.5577 -1.2047
12889TIP3    H260159   4.468   3.351   4.785  1.0006  0.5603 -0.2338
12890TIP3   OH260160   1.104   0.359   2.190 -0.3505 -0.1903 -0.3954
12890TIP3    H160161   1.087   0.292   2.256  0.9230  0.1692  0.3175
12890TIP3    H260162   1.017   0.393   2.168 -0.8457 -0.7681  0.6132
12891TIP3   OH260163   6.034   1.090  11.109  0.3863 -0.4183  0.0352
12891TIP3    H160164   6.085   1.157  11.064  1.3484 -0.6278  0.7831
12891TIP3    H260165   6.097   1.020  11.127 -0.1734 -0.7140  0.9111
12892TIP3   OH260166   5.006   3.292   4.653  0.2007  0.0010 -0.1486
12892TIP3    H160167   5.047   3.210   4.627  1.3486  0.2412  0.8006
12892TIP3    H260168   5.079   3.350   4.673 -0.2710  2.7025 -4.6442
12893TIP3   OH260169   2.543   2.986  11.813 -0.2907 -0.1738 -0.1546
12893TIP3    H160170   2.587   2.928  11.874 -0.6732 -0.9845 -0.6403
12893TIP3    H260171   2.524   3.065  11.864  0.7104 -0.2506  0.3617
12894TIP3   OH260172   3.280   1.647   2.296 -0.1910 -0.0134  0.2881
12894TIP3    H160173   3.294   1.680   2.207 -0.4043 -0.0405  0.2440
12894TIP3    H260174   3.352   1.684   2.347  0.5627 -0.8706 -0.1190
12895TIP3   OH260175   2.659   2.056  17.126  0.1806  0.4325  0.5322
12895TIP3    H160176   2.650   2.006  17.045  1.3495  2.0481 -0.6531
12895TIP3    H260177   2.615   2.139  17.108  0.1250  0.6775  1.7138
12896TIP3   OH260178   5.991   0.297  11.557  0.1137  0.0198  0.2344
12896TIP3    H160179   6.073   0.344  11.571  0.3786 -0.1123 -0.8558
12896TIP3    H260180   5.942   0.351  11.496  0.2046 -0.8576 -0.6333
12897TIP3   OH260181   1.550   2.295  11.860 -0.1671 -0.0170 -0.1817
12897TIP3    H160182   1.613   2.234  11.821  0.7320 -0.2810  1.5928
12897TIP3    H260183   1.505   2.244  11.927 -0.0891  0.9946  0.6684
12898TIP3   OH260184   5.686   6.695  13.179  0.4789 -0.3170 -0.0762
12898TIP3    H160185   5.671   6.737  13.095  1.8025  0.1829 -0.0823
12898TIP3    H260186   5.760   6.637  13.165 -0.0898 -1.1827  0.4313
12899TIP3   OH260187   1.920   6.375  14.497 -0.8523  0.1401 -0.0958
12899TIP3    H160188   1.961   6.441  14.554 -1.0710  0.0131  0.2114
12899TIP3    H260189   1.834   6.412  14.476  0.4096  1.7465 -3.0403
12900TIP3   OH260190   5.387   4.260   0.639  0.0242  0.5221  0.4231
12900TIP3    H160191   5.354   4.328   0.581  2.2202  0.1154 -1.4183
12900TIP3    H260192   5.327   4.186   0.625  0.6437  0.3471 -1.5770
12901TIP3   OH260193   6.343   4.789  11.838  0.4478  0.6112 -0.1565
12901TIP3    H160194   6.316   4.833  11.918 -1.8362  2.2174 -1.6784
12901TIP3    H260195   6.393   4.855  11.790  1.9379 -0.3862 -0.0505
12902TIP3   OH260196   6.014   1.794   4.059  0.4088  0.1298 -0.0346
12902TIP3    H160197   6.019   1.785   4.154 -1.4203 -0.5604  0.0386
12902TIP3    H260198   6.023   1.705   4.026 -1.1299  0.0636 -0.3498
12903TIP3   OH260199   1.007   3.760  12.097  0.1827 -0.9130 -0.3441
12903TIP3    H160200   0.990   3.815  12.021  1.0341 -0.1239  0.0149
12903TIP3    H260201   1.083   3.708  12.072  1.0375  0.0037  0.2755
12904TIP3   OH260202   5.668   5.370  12.792 -0.0536 -0.2029  0.2584
12904TIP3    H160203   5.682   5.463  12.809  1.3394 -0.5837  1.4011
12904TIP3    H260204   5.724   5.351  12.716  0.7473 -0.3807  0.8805
12905TIP3   OH260205   1.215   2.473  11.057 -0.1817  0.1804 -0.2567
12905TIP3    H160206   1.221   2.563  11.087  1.9052 -0.2502  0.8155
12905TIP3    H260207   1.158   2.430  11.120 -0.8370  0.6384 -0.5292
12906TIP3   OH260208   3.351   6.585   3.257 -0.2386  0.1044 -0.0998
12906TIP3    H160209   3.332   6.654   3.320 -0.2327  0.1739 -0.1722
12906TIP3    H260210   3.372   6.508   3.309  1.8551  0.7055  0.0338
12907TIP3   OH260211   2.603   3.136   0.847 -0.6902  0.1285 -0.0453
12907TIP3    H160212   2.565   3.196   0.911  0.3189  0.3239  0.4019
12907TIP3    H260213   2.671   3.188   0.804 -0.2378 -0.5063 -0.1043
12908TIP3   OH260214   1.976   1.379   6.224  0.1822  0.0517  0.1780
12908TIP3    H160215   2.071   1.378   6.236 -0.0515  0.2513  2.3660
12908TIP3    H260216   1.962   1.444   6.155  1.6086 -0.0108 -0.2141
12909TIP3   OH260217   1.284   4.335   1.764 -0.1789 -0.3216  0.3626
12909TIP3    H160218   1.223   4.268   1.794  1.3312 -0.6341  2.9383
12909TIP3    H260219   1.245   4.417   1.793 -1.4200 -0.0898 -1.7421
12910TIP3   OH260220   3.258   5.476   2.381  0.3792  0.3936 -0.3150
12910TIP3    H160221   3.198   5.407   2.353  2.2198 -1.5403  0.2019
12910TIP3    H260222   3.229   5.499   2.469  0.7052 -0.9849  0.1884
12911TIP3   OH260223   5.425   4.788  12.938  0.0362 -0.5564 -0.0464
12911TIP3    H160224   5.474   4.799  12.857  2.3287 -1.0752  1.1929
12911TIP3    H260225   5.441   4.868  12.987 -2.6301  0.4712 -0.6373
12912TIP3   OH260226   2.304   4.230  11.322  0.4755  0.4894 -0.6124
12912TIP3    H160227   2.270   4.224  11.232  2.2622 -0.5831 -1.2652
12912TIP3    H260228   2.258   4.306  11.359 -0.3561  0.9308 -2.3973
12913TIP3   OH260229   2.565   2.832  10.783 -0.0245  0.2590  0.3836
12913TIP3    H160230   2.621   2.822  10.860  0.2025  1.0877  0.3255
12913TIP3    H260231   2.504   2.757  10.789 -0.1094  0.3929  1.4460
12914TIP3   OH260232   5.163   0.375   3.156  0.0726  0.9756 -0.3658
12914TIP3    H160233   5.150   0.469   3.155  0.5002  1.0752 -2.6762
12914TIP3    H260234   5.243   0.362   3.208 -0.6591  1.7309  0.9962
12915TIP3   OH260235   3.238   0.486   4.263  0.0290 -0.0807 -0.1593
12915TIP3    H160236   3.144   0.467   4.267 -0.2767  1.4973  1.3265
12915TIP3    H260237   3.249   0.535   4.181 -0.6445  0.6459  0.1737
12916TIP3   OH260238   5.736   3.519   3.652 -0.0590  0.1426  0.5900
12916TIP3    H160239   5.799   3.585   3.623  0.5108 -0.4278  0.4979
12916TIP3    H260240   5.729   3.531   3.746  0.2960  0.1237  0.6190
12917TIP3   OH260241   3.768   3.314   0.882 -0.3404  0.1932  0.1005
12917TIP3    H160242   3.855   3.352   0.890 -0.3785  0.0083  1.8640
12917TIP3    H260243   3.781   3.231   0.837  0.2745  0.5222 -0.3363
12918TIP3   OH260244   0.261   0.708   1.445  0.4503  0.0734  0.0935
12918TIP3    H160245   0.224   0.783   1.491  0.8731 -0.8137  1.9876
12918TIP3    H260246   0.355   0.714   1.460  0.6574 -0.0069 -1.0765
12919TIP3   OH260247   1.011   4.812  14.060  0.4494  0.7408  0.2699
12919TIP3    H160248   0.989   4.859  14.140  1.4524  0.3319  0.8018
12919TIP3    H260249   1.048   4.729  14.090 -0.0473  0.1782 -0.6324
12920TIP3   OH260250   1.061   6.410   0.242  0.5007  0.4608 -0.1969
12920TIP3    H160251   1.143   6.363   0.255  0.3440 -0.1186 -1.2052
12920TIP3    H260252   1.033   6.385   0.154 -0.3589  1.2665 -0.1633
12921TIP3   OH260253   1.008   3.488   4.277  0.2302 -0.3810  0.0976
12921TIP3    H160254   0.925   3.478   4.230  1.1060  0.1527 -1.6633
12921TIP3    H260255   1.026   3.401   4.312 -0.7331 -0.6691 -0.0996
12922TIP3   OH260256   3.797   2.680  16.721  0.7734  0.0816  0.1387
12922TIP3    H160257   3.825   2.686  16.629  2.3953 -0.3856  0.5794
12922TIP3    H260258   3.731   2.610  16.720 -0.8974  1.5662 -1.0055
12923TIP3   OH260259   4.332   1.936  12.075 -0.3159  0.0109 -0.8638
12923TIP3    H160260   4.341   1.862  12.015  0.3296 -2.1800  1.7266
12923TIP3    H260261   4.278   1.902  12.147  1.7374  1.3067  1.4440
12924TIP3   OH260262   5.739   1.162   3.341  0.0271  0.3681 -0.4949
12924TIP3    H160263   5.753   1.128   3.430 -0.7444 -2.8704 -1.5005
12924TIP3    H260264   5.649   1.195   3.343  0.2995  1.1192  0.1174
12925TIP3   OH260265   5.638   6.243   1.981  0.1917 -0.0489 -0.0630
12925TIP3    H160266   5.572   6.310   2.000  1.0169  0.1784  2.3207
12925TIP3    H260267   5.694   6.284   1.915 -1.0789  0.3723 -0.9379
12926TIP3   OH260268   3.524   0.405   3.035 -0.6479  0.2972  0.3809
12926TIP3    H160269   3.434   0.376   3.054  0.0154 -1.0304  1.6688
12926TIP3    H260270   3.573   0.385   3.114  0.5615  2.1532  0.1645
12927TIP3   OH260271   3.917   0.675  16.029 -0.0610  0.3283 -0.5237
12927TIP3    H160272   3.975   0.660  15.954  1.3350 -1.4590  0.8132
12927TIP3    H260273   3.838   0.713  15.992 -0.0758 -1.9682 -3.1303
12928TIP3   OH260274   1.074   5.046  15.284 -0.0829  0.1981  0.1067
12928TIP3    H160275   1.036   4.969  15.243  0.6690 -0.1229 -0.0097
12928TIP3    H260276   1.014   5.068  15.355 -1.4905  0.8638 -1.2530
12929TIP3   OH260277   3.690   3.925  11.494  0.6677  0.0544  0.2634
12929TIP3    H160278   3.656   3.963  11.413 -0.7507  0.1187  0.8487
12929TIP3    H260279   3.612   3.895  11.540  1.3794  0.5842  1.8813
12930TIP3   OH260280   5.028   5.035  12.656 -0.3619 -0.3022 -0.2650
12930TIP3    H160281   4.991   4.971  12.717  2.4397 -1.4099  0.4474
12930TIP3    H260282   5.039   5.114  12.707 -1.1455 -0.1403 -0.3306
12931TIP3   OH260283   2.098   4.939  13.812  0.4913 -0.0056 -0.0478
12931TIP3    H160284   2.107   4.867  13.874 -1.0986  0.8692  1.2705
12931TIP3    H260285   2.034   4.908  13.748 -1.0177  0.5767  1.1272
12932TIP3   OH260286   6.507   1.864   6.445 -0.1490  0.0553  0.0972
12932TIP3    H160287   6.509   1.924   6.520  0.2040 -0.1136  0.2307
12932TIP3    H260288   6.549   1.784   6.479 -2.2779 -0.9520  0.5060
12933TIP3   OH260289   1.422   5.537   0.157 -0.3525  0.2592 -0.0680
12933TIP3    H160290   1.504   5.550   0.205  0.5255 -1.3175 -1.0265
12933TIP3    H260291   1.448   5.536   0.064 -1.2577 -1.2847 -0.3476
12934TIP3   OH260292   2.418   6.279   0.221  0.1377 -0.5707 -0.2492
12934TIP3    H160293   2.495   6.333   0.237  0.0419  0.0222 -1.5936
12934TIP3    H260294   2.453   6.193   0.198  0.3704 -0.5065 -0.1333
12935TIP3   OH260295   3.926   0.947  14.245  0.3058  0.0411  0.3918
12935TIP3    H160296   3.974   1.007  14.189  0.0781 -0.5694 -0.4866
12935TIP3    H260297   3.864   0.904  14.186 -0.0304 -0.5211  1.1416
12936TIP3   OH260298   4.914   1.056   5.397  0.6862  0.5991 -0.4332
12936TIP3    H160299   4.916   1.084   5.305  0.9531  1.0119 -0.3082
12936TIP3    H260300   4.987   1.103   5.437 -0.2726  1.5061  0.2979
12937TIP3   OH260301   0.258   6.319  12.982  0.3302 -0.4949 -0.3862
12937TIP3    H160302   0.176   6.271  12.968 -0.0602  0.2459 -0.7045
12937TIP3    H260303   0.310   6.299  12.904  0.1486 -0.3684 -0.5424
12938TIP3   OH260304   5.786   1.785   3.127  0.2508 -0.5347  0.2627
12938TIP3    H160305   5.839   1.716   3.166  0.9050 -0.4072 -0.3740
12938TIP3    H260306   5.817   1.790   3.036 -1.4767 -1.0930 -0.4142
12939TIP3   OH260307   2.802   1.587   2.374 -0.0100  0.0092 -0.2906
12939TIP3    H160308   2.892   1.555   2.372  0.1690  0.4470  0.3714
12939TIP3    H260309   2.764   1.546   2.451  0.5480  2.1599  1.2172
12940TIP3   OH260310   1.225   5.807   3.028  0.7132  0.0927  0.0363
12940TIP3    H160311   1.142   5.822   3.075  0.1586 -0.6862 -0.6591
12940TIP3    H260312   1.198   5.796   2.937  1.5398 -0.6252 -0.1318
12941TIP3   OH260313   1.060   2.197  12.239 -0.5267  0.0236  0.1988
12941TIP3    H160314   1.105   2.131  12.186 -0.3913 -1.0656  1.6257
12941TIP3    H260315   1.103   2.193  12.324 -0.8148  1.6599  0.4629
12942TIP3   OH260316   0.675   1.226  12.288  0.6444  0.0801 -0.1519
12942TIP3    H160317   0.628   1.254  12.366 -0.7981 -0.1075 -0.9080
12942TIP3    H260318   0.695   1.133  12.304 -1.4262 -0.5339 -0.7650
12943TIP3   OH260319   5.838   1.408   3.312  0.1050 -0.0138  0.1858
12943TIP3    H160320   5.823   1.316   3.291 -1.2692  0.6294 -1.9484
12943TIP3    H260321   5.838   1.453   3.228 -0.4643  2.1128  1.2346
12944TIP3   OH260322   1.035   2.517   6.402  0.5021 -0.5280 -0.1383
12944TIP3    H160323   1.075   2.598   6.434 -1.0338  0.3842 -0.4239
12944TIP3    H260324   1.011   2.470   6.482 -0.7746  0.4451  0.0970
12945TIP3   OH260325   5.658   5.902   0.383  0.4668 -0.2032  0.9907
12945TIP3    H160326   5.570   5.915   0.347  0.4050  0.2419  1.2989
12945TIP3    H260327   5.712   5.881   0.307 -0.5401 -4.0884  1.1106
12946TIP3   OH260328   3.429   4.083  14.133  0.0482 -0.3296  0.2192
12946TIP3    H160329   3.381   4.085  14.215  1.3280 -0.9053  1.0067
12946TIP3    H260330   3.366   4.051  14.069 -0.9953  0.2260  0.9397
12947TIP3   OH260331   4.089   6.107   1.367  0.7562 -0.8529 -0.1963
12947TIP3    H160332   4.021   6.041   1.353  0.6165 -0.8997  0.6695
12947TIP3    H260333   4.169   6.064   1.338  0.4608 -0.8758 -1.0199
12948TIP3   OH260334   0.041   1.203   0.372 -0.0552 -0.1102  0.2982
12948TIP3    H160335   0.029   1.124   0.319  1.7755  0.4582 -1.0643
12948TIP3    H260336   0.132   1.199   0.401 -0.1714  1.0971  0.8815
12949TIP3   OH260337   3.733   3.438  12.511 -0.0485 -0.3324  0.1641
12949TIP3    H160338   3.649   3.474  12.540  1.0485  0.6940  2.2447
12949TIP3    H260339   3.755   3.372  12.576  0.7293 -0.6638 -0.4147
12950TIP3   OH260340   3.649   3.908  13.077 -0.0517  0.0699 -0.0333
12950TIP3    H160341   3.646   4.003  13.089 -0.4147 -0.0656  1.0709
12950TIP3    H260342   3.736   3.883  13.110 -0.4916 -0.1315  1.0191
12951TIP3   OH260343   0.196   2.150  17.254  0.1110  0.3729  0.5494
12951TIP3    H160344   0.270   2.184  17.203  1.2117  0.5906  2.2097
12951TIP3    H260345   0.128   2.216  17.245 -0.0736 -0.0144 -1.3426
12952TIP3   OH260346   1.114   0.045  15.399  0.3664 -0.1991 -0.3386
12952TIP3    H160347   1.069   0.095  15.331 -1.0947 -2.0505 -0.7769
12952TIP3    H260348   1.076   0.077  15.481  1.5105  1.4030 -0.3627
12953TIP3   OH260349   2.331   4.288  16.534  0.0003 -0.1558  0.0731
12953TIP3    H160350   2.267   4.345  16.576  0.7877  1.0384 -0.2742
12953TIP3    H260351   2.296   4.200  16.545 -1.7805  0.4677 -0.2624
12954TIP3   OH260352   1.005   4.290   3.300  0.0118 -0.1123 -0.3903
12954TIP3    H160353   1.058   4.312   3.376 -1.7262 -0.1566  0.9086
12954TIP3    H260354   1.050   4.216   3.259 -0.1428 -1.5989  1.9343
12955TIP3   OH260355   3.466   1.145  13.068 -0.6950  0.2588  0.6213
12955TIP3    H160356   3.442   1.116  12.980  0.3036 -0.0685  0.4497
12955TIP3    H260357   3.441   1.237  13.070 -1.9782 -0.0537  0.4685
12956TIP3   OH260358   4.092   5.307  14.932 -0.0861 -0.4725  0.0902
12956TIP3    H160359   4.133   5.237  14.982  1.2605 -0.2632 -0.6753
12956TIP3    H260360   4.134   5.387  14.965 -0.3742 -0.1869 -0.2336
12957TIP3   OH260361   2.696   5.899  16.034 -0.8884 -0.0807 -0.2836
12957TIP3    H160362   2.731   5.854  15.957 -0.8778  0.0689 -0.3653
12957TIP3    H260363   2.625   5.843  16.065  0.0807 -0.9269  0.4878
12958TIP3   OH260364   0.655   2.559   4.501  0.6554 -0.4277  0.0411
12958TIP3    H160365   0.714   2.624   4.538  2.0549 -1.3711 -0.4830
12958TIP3    H260366   0.704   2.476   4.504 -0.5257 -1.1866 -0.6585
12959TIP3   OH260367   4.261   2.543   5.912  0.1198 -0.2593 -0.5396
12959TIP3    H160368   4.222   2.620   5.871  2.0111  2.1854  1.8649
12959TIP3    H260369   4.210   2.529   5.991  1.6014  0.4976  0.5902
12960TIP3   OH260370   3.078   5.468  13.159 -0.0455 -0.2190  0.2551
12960TIP3    H160371   3.057   5.561  13.152 -0.7312 -0.4731 -2.1656
12960TIP3    H260372   2.999   5.424  13.128  1.6434 -1.4121 -2.8657
12961TIP3   OH260373   5.312   2.782   5.777  0.2592  0.2104 -0.4016
12961TIP3    H160374   5.397   2.801   5.737  0.4612 -0.4140 -0.2752
12961TIP3    H260375   5.298   2.854   5.838 -0.0961  1.2367 -1.6529
12962TIP3   OH260376   5.181   2.330   0.721  0.1072  0.3507  0.4796
12962TIP3    H160377   5.137   2.253   0.685  0.6010  0.2152  0.1688
12962TIP3    H260378   5.131   2.351   0.800  0.0866 -0.3962  0.6649
12963TIP3   OH260379   2.626   5.029  12.723 -1.1504  0.8078  0.4806
12963TIP3    H160380   2.579   5.078  12.655 -0.7471 -0.3047 -0.6447
12963TIP3    H260381   2.563   5.023  12.795 -2.5948 -0.1812 -0.7819
12964TIP3   OH260382   3.250   3.237   5.805  0.6807 -0.4718 -0.0806
12964TIP3    H160383   3.229   3.196   5.889  2.5281  0.9241  1.1325
12964TIP3    H260384   3.338   3.205   5.785  0.4747 -0.3411 -1.2147
12965TIP3   OH260385   5.008   6.774   0.100 -0.1103 -0.1745 -0.6557
12965TIP3    H160386   5.070   6.842   0.125  1.0186 -1.6243  0.7040
12965TIP3    H260387   4.935   6.785   0.162  0.1425 -0.2999 -0.3351
12966TIP3   OH260388   1.964   5.848  17.227 -0.3793  0.2650 -0.2841
12966TIP3    H160389   2.001   5.935  17.209  1.2508 -0.1177  1.0027
12966TIP3    H260390   1.875   5.853  17.192 -0.4171  2.5359 -0.0382
12967TIP3   OH260391   6.053   1.644  17.217  0.6909 -0.2291  0.1702
12967TIP3    H160392   6.053   1.590  17.138 -0.3908 -1.5895  1.0647
12967TIP3    H260393   6.048   1.734  17.184 -3.7498 -0.7953 -1.3800
12968TIP3   OH260394   0.797   5.962   2.703 -0.0805 -0.2318  0.4142
12968TIP3    H160395   0.836   5.955   2.790  1.4206  0.9451 -0.1178
12968TIP3    H260396   0.872   5.971   2.644 -1.0987 -0.1344 -0.9145
12969TIP3   OH260397   2.442   6.465  14.840 -0.3302  0.2905 -0.0020
12969TIP3    H160398   2.524   6.502  14.808  0.6478 -2.1391 -0.5524
12969TIP3    H260399   2.374   6.521  14.802  1.0158  2.4636  0.5959
12970TIP3   OH260400   6.035   6.562   2.360  1.0566  0.5215  0.0537
12970TIP3    H160401   6.119   6.555   2.405  0.5633 -0.0894  0.8966
12970TIP3    H260402   6.040   6.497   2.289  1.1096  0.1531  0.3945
12971TIP3   OH260403   4.390   2.224   4.001  0.0037  0.4535 -0.0069
12971TIP3    H160404   4.430   2.216   4.087 -0.9500 -0.2792  0.3855
12971TIP3    H260405   4.440   2.164   3.945  0.5871  0.8898  0.0444
12972TIP3   OH260406   3.478   1.577  16.926  0.4141 -0.3559  0.0625
12972TIP3    H160407   3.513   1.541  17.007  1.2622  2.2002  0.9166
12972TIP3    H260408   3.544   1.641  16.897 -0.3685 -0.4200 -2.0894
12973TIP3   OH260409   6.711   5.387   3.640 -0.4978  0.0817  0.0742
12973TIP3    H160410   6.704   5.472   3.596  0.5277 -0.6341 -1.5525
12973TIP3    H260411   6.780   5.400   3.706 -0.0606  0.4070 -0.4395
12974TIP3   OH260412   1.356   1.375  12.274 -0.1964  0.0127 -0.0145
12974TIP3    H160413   1.293   1.304  12.263 -0.1881 -0.2084  1.1927
12974TIP3    H260414   1.431   1.349  12.221 -0.8445 -0.0605 -0.9125
12975TIP3   OH260415   1.256   4.717  17.205 -0.1321 -0.5895  0.6031
12975TIP3    H160416   1.347   4.742  17.191 -0.2368  1.2289  2.7948
12975TIP3    H260417   1.257   4.665  17.285 -0.7573 -2.7117 -0.6748
12976TIP3   OH260418   3.627   1.913  12.703  0.2148  0.0222 -0.1456
12976TIP3    H160419   3.651   1.846  12.767  1.7662  0.8988  0.2518
12976TIP3    H260420   3.665   1.883  12.621 -0.7382 -0.5095 -0.4008
12977TIP3   OH260421   2.009   3.505   3.877 -0.5332  0.5474 -0.0873
12977TIP3    H160422   2.023   3.546   3.963 -0.1763  0.3537 -0.0532
12977TIP3    H260423   2.053   3.563   3.815  2.3636 -1.1333  0.2276
12978TIP3   OH260424   3.670   0.176  12.409  0.7714  0.1800 -0.2774
12978TIP3    H160425   3.733   0.203  12.343  1.5490 -0.9997 -0.0677
12978TIP3    H260426   3.723   0.129  12.474 -0.2984 -0.7551 -0.0404
12979TIP3   OH260427   2.511   1.981   5.192  0.6883 -0.3215  0.2853
12979TIP3    H160428   2.449   1.986   5.264 -0.8750 -1.9284 -0.8511
12979TIP3    H260429   2.590   1.943   5.231 -0.0546 -0.9656  1.2088
12980TIP3   OH260430   2.773   3.880  11.643  1.0103  0.2156 -0.2696
12980TIP3    H160431   2.774   3.817  11.570  2.5719  0.0208 -0.1200
12980TIP3    H260432   2.817   3.834  11.715 -0.9926  0.1954  1.0169
12981TIP3   OH260433   1.868   3.321  13.980 -0.2688 -0.1950 -0.4609
12981TIP3    H160434   1.936   3.295  13.918  0.7449  0.1762  0.4693
12981TIP3    H260435   1.841   3.239  14.021 -0.3199 -0.3301 -0.7605
12982TIP3   OH260436   0.393   3.139   0.353 -0.1826 -0.6386  0.0216
12982TIP3    H160437   0.306   3.099   0.349 -0.2801 -0.6090  1.3569
12982TIP3    H260438   0.442   3.097   0.281 -1.2352 -0.7699 -0.6483
12983TIP3   OH260439   4.997   0.017  15.612  1.1822 -0.1259  0.8488
12983TIP3    H160440   5.006   0.026  15.517  0.5361 -1.7919  0.5987
12983TIP3    H260441   5.018   0.104  15.646 -0.2862  1.0245 -0.9414
12984TIP3   OH260442   3.033   5.280  11.652  0.6055 -0.2415  0.8251
12984TIP3    H160443   3.124   5.292  11.680  1.1780  1.3283 -1.4625
12984TIP3    H260444   2.983   5.340  11.707  0.9325 -0.9032  1.8961
12985TIP3   OH260445   1.144   6.774  12.627 -0.0020 -0.4166 -0.5049
12985TIP3    H160446   1.076   6.747  12.690  0.8487 -0.4364  0.4318
12985TIP3    H260447   1.107   6.752  12.542 -1.5601  0.4271 -0.0885
12986TIP3   OH260448   3.257   6.131  15.286 -0.2051  0.1955  0.0476
12986TIP3    H160449   3.224   6.145  15.197 -0.6379 -0.3487  0.1161
12986TIP3    H260450   3.352   6.135  15.277 -0.1972 -1.0961 -0.6746
12987TIP3   OH260451   4.709   2.390  13.455 -0.6253 -0.1123 -0.1860
12987TIP3    H160452   4.728   2.328  13.384 -2.8763 -1.1756  0.0578
12987TIP3    H260453   4.698   2.474  13.410 -1.2715 -0.6267 -1.0400
12988TIP3   OH260454   5.551   4.024  12.614 -0.3218 -0.1327 -0.9056
12988TIP3    H160455   5.595   4.055  12.694  2.1145 -0.3633 -2.0755
12988TIP3    H260456   5.498   4.098  12.585  0.7230  0.8224 -0.4172
12989TIP3   OH260457   1.755   6.049   4.294 -0.4262  0.3871 -0.2669
12989TIP3    H160458   1.668   6.081   4.271 -0.8188 -0.6365 -0.2644
12989TIP3    H260459   1.777   6.095   4.375 -0.5856  1.2921 -0.7224
12990TIP3   OH260460   6.175   6.649   4.805 -0.4898  0.5736 -0.1845
12990TIP3    H160461   6.182   6.559   4.773 -0.2816  0.3371  0.5227
12990TIP3    H260462   6.258   6.690   4.781 -0.3610  0.4179  0.0004
12991TIP3   OH260463   1.313   1.639  15.038  0.2838  0.8156 -0.2715
12991TIP3    H160464   1.297   1.673  14.950  1.2729  0.6054 -0.5488
12991TIP3    H260465   1.242   1.576  15.052 -0.8391  2.0366 -0.2426
12992TIP3   OH260466   4.368   6.582   1.056 -0.4698  0.4827  0.2350
12992TIP3    H160467   4.334   6.626   0.978 -0.1491 -0.3527 -0.3933
12992TIP3    H260468   4.328   6.495   1.054  0.5756 -0.0163  0.2635
12993TIP3   OH260469   4.327   0.167  13.880 -0.6242  0.4603 -0.3605
12993TIP3    H160470   4.320   0.161  13.785 -3.0871  0.4044 -0.2208
12993TIP3    H260471   4.363   0.082  13.907  0.1022  0.4800 -1.2034
12994TIP3   OH260472   1.152   6.253  12.890  0.2294  0.5185  0.4415
12994TIP3    H160473   1.216   6.182  12.888 -1.0811 -0.8200  2.2598
12994TIP3    H260474   1.068   6.210  12.872 -0.2892  2.1312 -1.3251
12995TIP3   OH260475   6.661   5.310   3.965  0.6514 -0.8767  0.0860
12995TIP3    H160476   6.730   5.347   3.910 -1.2472 -1.6338 -3.0550
12995TIP3    H260477   6.709   5.260   4.032  3.1144  0.5030 -0.4989
12996TIP3   OH260478   0.370   2.766  14.415 -0.2959  0.3396 -0.6778
12996TIP3    H160479   0.384   2.820  14.493  1.1137 -0.2016 -0.5333
12996TIP3    H260480   0.296   2.808  14.370 -0.0712  1.6238  0.0941
12997TIP3   OH260481   0.143   5.341  11.713  0.3062 -0.0450 -0.1111
12997TIP3    H160482   0.153   5.408  11.644 -1.4793 -0.3100 -0.6726
12997TIP3    H260483   0.219   5.285  11.702  1.8553  1.8566  0.3570
12998TIP3   OH260484   0.000   1.372  11.554 -0.3847  0.0209  0.0447
12998TIP3    H160485   0.038   1.306  11.495 -1.4177  0.4400 -1.1411
12998TIP3    H260486   0.059   1.375  11.629  2.2468  0.9791 -1.9096
12999TIP3   OH260487   1.857   4.710   2.560  0.4641  0.0133 -0.9203
12999TIP3    H160488   1.944   4.712   2.600 -0.2822  0.2370  0.7712
12999TIP3    H260489   1.872   4.675   2.472  2.3376  0.6691 -0.9067
13000TIP3   OH260490   2.087   4.770   2.124  0.0423 -0.0510  0.4892
13000TIP3    H160491   2.135   4.744   2.203 -2.1240  1.5989  2.4894
13000TIP3    H260492   2.100   4.864   2.118 -0.0557 -0.1077 -1.0442
13001TIP3   OH260493   5.743   0.575   1.030 -0.4880  0.3380 -0.2318
13001TIP3    H160494   5.791   0.493   1.038 -0.3013  0.5659  1.1127
13001TIP3    H260495   5.656   0.549   0.998 -0.6497 -0.4540  0.8122
13002TIP3   OH260496   1.995   3.645   1.758 -0.3258  0.1385 -0.1933
13002TIP3    H160497   2.085   3.627   1.731 -0.2060 -0.7705  0.7872
13002TIP3    H260498   1.956   3.559   1.771 -0.8830  0.5356  0.8390
13003TIP3   OH260499   5.679   3.833  16.405  0.5249 -0.2096 -0.4733
13003TIP3    H160500   5.670   3.925  16.426 -1.4383 -0.5571  0.4126
13003TIP3    H260501   5.611   3.817  16.340  1.3208 -0.9001 -1.1674
13004TIP3   OH260502   0.043   2.278   3.570 -0.4099 -0.1125  0.1990
13004TIP3    H160503  -0.009   2.356   3.589 -2.0774 -0.5506 -2.1398
13004TIP3    H260504   0.036   2.225   3.649 -0.3977  1.4654  1.3101
13005TIP3   OH260505   3.176   4.601   6.227  0.2043 -0.2447 -0.1036
13005TIP3    H160506   3.147   4.518   6.188  1.3772 -1.6294  1.7939
13005TIP3    H260507   3.154   4.593   6.320  1.6684  0.9594  0.3835
13006TIP3   OH260508   2.800   6.354  16.925  0.0509 -0.5189 -0.1174
13006TIP3    H160509   2.734   6.422  16.917 -1.0100 -1.6367 -1.4450
13006TIP3    H260510   2.883   6.398  16.904 -0.3660  0.7147  0.7576
13007TIP3   OH260511   2.370   0.929   3.983 -0.2533  0.1856 -0.3644
13007TIP3    H160512   2.372   0.983   3.904 -0.9012  0.8755  0.0755
13007TIP3    H260513   2.303   0.970   4.038  0.3890 -0.1152  0.6638
13008TIP3   OH260514   6.216   0.601   3.190 -0.0617  0.1308  0.7882
13008TIP3    H160515   6.151   0.671   3.194 -1.5544 -1.2279  1.2446
13008TIP3    H260516   6.165   0.522   3.170  1.7060 -0.6712 -0.8956
13009TIP3   OH260517   6.351   3.923   4.861 -0.0219  0.2924 -0.4075
13009TIP3    H160518   6.409   3.855   4.894 -0.5713  1.0888  2.4076
13009TIP3    H260519   6.406   3.976   4.803  1.0509 -1.0320 -0.6596
13010TIP3   OH260520   6.139   0.753  11.424  0.0422  0.4302 -0.7607
13010TIP3    H160521   6.142   0.848  11.427  2.5174  0.4307 -1.3294
13010TIP3    H260522   6.126   0.727  11.516 -1.6600  1.2732 -0.7240
13011TIP3   OH260523   5.723   6.622   1.094  0.4037  0.2765  0.0596
13011TIP3    H160524   5.818   6.610   1.099  0.3331 -0.1848  0.4432
13011TIP3    H260525   5.689   6.534   1.076  0.1512  0.7175 -1.8614
13012TIP3   OH260526   2.434   1.884  12.924  0.2459 -0.0585  0.3040
13012TIP3    H160527   2.466   1.969  12.894 -1.3079  0.4797  0.0432
13012TIP3    H260528   2.362   1.905  12.984 -1.5783 -1.1534 -1.3678
13013TIP3   OH260529   5.009   0.682   0.286 -0.6089  0.3973  0.0137
13013TIP3    H160530   5.041   0.756   0.235 -0.1557 -0.0114 -0.3040
13013TIP3    H260531   5.060   0.607   0.255 -0.4609  0.1001  0.9344
13014TIP3   OH260532   5.888   4.704  13.531  0.4554 -0.2371 -0.9471
13014TIP3    H160533   5.818   4.724  13.593 -0.1513 -0.6266 -1.4979
13014TIP3    H260534   5.909   4.788  13.490  0.4705 -0.0817 -0.6247
13015TIP3   OH260535   2.793   3.773  15.046  0.2603  0.4282 -0.2580
13015TIP3    H160536   2.721   3.822  15.008 -1.6434 -0.9761  1.3084
13015TIP3    H260537   2.820   3.825  15.122 -0.8420 -0.2216  0.6108
13016TIP3   OH260538   4.727   4.424   5.351 -0.2810  0.1432 -0.3030
13016TIP3    H160539   4.808   4.386   5.385  1.0922  0.3696 -3.0166
13016TIP3    H260540   4.666   4.351   5.349  0.4299 -0.4806  0.1287
13017TIP3   OH260541   4.803   2.684  12.233  0.4695 -0.0683 -0.3711
13017TIP3    H160542   4.724   2.641  12.200  0.2775  0.3953 -0.5251
13017TIP3    H260543   4.858   2.695  12.156  0.4658  0.0732 -0.3532
13018TIP3   OH260544   5.732   2.632  16.660 -0.3775 -0.5195 -0.3899
13018TIP3    H160545   5.810   2.579  16.676 -0.8375 -0.2549  4.0374
13018TIP3    H260546   5.766   2.713  16.621  1.1591 -1.4237 -1.0375
13019TIP3   OH260547   5.512   0.293  15.546  0.2499  1.0231  0.3558
13019TIP3    H160548   5.477   0.233  15.613  0.1457 -1.8257 -2.0372
13019TIP3    H260549   5.475   0.378  15.569 -3.3108 -0.6351  1.4970
13020TIP3   OH260550   0.146   0.600  13.106  0.0012 -0.0652 -0.3080
13020TIP3    H160551   0.203   0.677  13.098 -1.2241  1.1611  1.7601
13020TIP3    H260552   0.137   0.568  13.017  1.1375  1.7730 -1.1538
13021TIP3   OH260553   6.634   2.775   1.864  0.7230  0.6972 -0.5867
13021TIP3    H160554   6.656   2.683   1.873  0.4000  0.6070 -0.6787
13021TIP3    H260555   6.558   2.776   1.805  0.8304  1.0327 -0.7258
13022TIP3   OH260556   2.700   3.294   2.852  0.4872  0.1469  0.4362
13022TIP3    H160557   2.652   3.327   2.928  0.8338  1.0203  0.2890
13022TIP3    H260558   2.791   3.295   2.879  0.4910 -0.9220  0.4981
13023TIP3   OH260559   6.385   5.414   2.246  0.2477 -0.5733  0.0299
13023TIP3    H160560   6.419   5.366   2.321 -0.5799  1.2614  1.6706
13023TIP3    H260561   6.363   5.346   2.182  1.0668 -2.1941  1.3945
13024TIP3   OH260562   3.295   4.091  12.636 -0.2925  0.4231  0.0146
13024TIP3    H160563   3.316   4.118  12.725  1.7403 -0.2957 -0.1931
13024TIP3    H260564   3.263   4.001  12.644  1.8297 -0.4041 -0.0969
13025TIP3   OH260565   1.019   0.672  12.351  0.0915 -0.2503  0.2633
13025TIP3    H160566   0.996   0.580  12.363 -0.1080  0.0243  2.4678
13025TIP3    H260567   1.114   0.672  12.347  0.0647 -0.6272 -0.9312
13026TIP3   OH260568   1.048   1.200   4.564  0.6270  0.1243  0.8035
13026TIP3    H160569   0.982   1.240   4.508  1.4035  1.8129  1.0360
13026TIP3    H260570   1.003   1.185   4.647  0.3823  0.8087  0.8030
13027TIP3   OH260571   4.397   3.244  12.938 -0.3232 -0.3625 -0.4485
13027TIP3    H160572   4.321   3.192  12.963  0.1050 -0.6479  0.2786
13027TIP3    H260573   4.472   3.186  12.952  0.1698  0.4536  0.4538
13028TIP3   OH260574   1.472   3.768   4.211  0.0738 -0.0981  0.2939
13028TIP3    H160575   1.385   3.728   4.211  0.5024 -1.0671 -0.5152
13028TIP3    H260576   1.518   3.726   4.139  1.4279 -0.0816  1.1119
13029TIP3   OH260577   2.042   6.385  12.300 -0.1372  0.1131 -0.1815
13029TIP3    H160578   2.094   6.384  12.220 -0.7885  0.3585 -0.6117
13029TIP3    H260579   2.097   6.432  12.363  0.5570 -0.4437 -0.3462
13030TIP3   OH260580   4.372   3.037   3.862  0.0562  0.0456  0.1301
13030TIP3    H160581   4.357   2.954   3.908  0.1532  1.2976  2.6199
13030TIP3    H260582   4.294   3.050   3.809  0.6483 -2.2693 -1.4632
13031TIP3   OH260583   2.679   3.756   3.899 -0.0726 -0.2174  0.9477
13031TIP3    H160584   2.767   3.770   3.864 -0.1437 -0.7179  0.5610
13031TIP3    H260585   2.686   3.672   3.946 -0.2156 -0.0096  1.3435
13032TIP3   OH260586   0.042   1.932  15.583  0.1399 -0.6165 -0.2070
13032TIP3    H160587   0.093   1.914  15.662 -0.9708 -0.3194  0.6063
13032TIP3    H260588  -0.026   1.993  15.612  0.0408 -0.0693 -1.5177
13033TIP3   OH260589   3.424   3.581  11.617 -0.0912 -0.3237 -0.9452
13033TIP3    H160590   3.428   3.534  11.700  0.4199  1.0785 -0.1424
13033TIP3    H260591   3.332   3.577  11.592 -0.3161 -0.4483 -0.1307
13034TIP3   OH260592   6.288   2.036   1.239 -0.1601 -0.2286 -0.5289
13034TIP3    H160593   6.261   2.004   1.325  0.6560 -0.5219 -0.3758
13034TIP3    H260594   6.208   2.072   1.201 -0.8450 -1.3806 -0.2284
13035TIP3   OH260595   5.691   5.877  13.902 -0.4352 -0.0854  0.3797
13035TIP3    H160596   5.631   5.850  13.971 -0.8781 -1.2147 -0.4308
13035TIP3    H260597   5.650   5.848  13.820 -1.0809  3.1980 -0.6403
13036TIP3   OH260598   2.446   3.977  10.978 -0.3654  0.3396 -0.6561
13036TIP3    H160599   2.522   4.035  10.969 -0.9360  0.7720 -3.3053
13036TIP3    H260600   2.396   3.989  10.897 -1.3342 -2.7089 -0.6304
13037TIP3   OH260601   6.517   3.120   2.964 -0.4924  0.1022 -0.3299
13037TIP3    H160602   6.426   3.131   2.939 -1.0527  0.3988  1.6362
13037TIP3    H260603   6.527   3.175   3.042  1.0985 -0.7206  0.0978
13038TIP3   OH260604   0.039   2.764   2.577 -0.1981  0.5730 -0.2300
13038TIP3    H160605  -0.022   2.698   2.544  0.9553 -0.5373 -0.2249
13038TIP3    H260606   0.089   2.718   2.645  0.7427  1.3960 -0.3468
13039TIP3   OH260607   0.339   5.303  15.239  0.0022  0.4658  0.3010
13039TIP3    H160608   0.425   5.342  15.250  0.0057  1.1659 -1.7375
13039TIP3    H260609   0.348   5.214  15.273  1.9001  0.1274 -0.9792
13040TIP3   OH260610   3.001   3.732   2.459 -0.4179 -0.2295 -0.7110
13040TIP3    H160611   3.013   3.767   2.547 -0.2823 -0.7596 -0.5113
13040TIP3    H260612   2.999   3.637   2.472  0.7659 -0.3640 -1.4006
13041TIP3   OH260613   1.629   5.098  11.428  0.3545  0.2078  0.1075
13041TIP3    H160614   1.587   5.066  11.508  1.7590 -0.3526  0.6575
13041TIP3    H260615   1.702   5.151  11.459  0.9840 -0.1146 -0.7981
13042TIP3   OH260616   2.006   0.909   0.040 -0.1490  0.1833 -0.1965
13042TIP3    H160617   2.099   0.899   0.017  0.8977  2.1789  2.7215
13042TIP3    H260618   1.964   0.930  -0.043  2.4533  1.8169 -1.2300
13043TIP3   OH260619   5.362   4.861  13.902 -0.1820  0.7670  0.5240
13043TIP3    H160620   5.379   4.914  13.980  0.5150  1.2311  0.0552
13043TIP3    H260621   5.364   4.923  13.829 -1.0309  0.3698  0.1403
13044TIP3   OH260622   6.286   2.944   5.158  0.1221  0.1257 -0.6961
13044TIP3    H160623   6.206   2.893   5.169 -0.6237  1.7425  2.3495
13044TIP3    H260624   6.287   2.967   5.065 -2.5457 -0.5276 -0.9717
13045TIP3   OH260625   2.493   5.243   5.474  0.3082  0.5794  0.3607
13045TIP3    H160626   2.585   5.261   5.493  0.6218  0.1881 -0.6607
13045TIP3    H260627   2.489   5.148   5.462 -0.0181  0.6929 -0.5593
13046TIP3   OH260628   3.704   1.991   5.233  0.1644  0.4074 -0.3168
13046TIP3    H160629   3.695   2.030   5.146 -0.7877  0.8013 -0.0521
13046TIP3    H260630   3.640   2.037   5.287  2.3260  1.8122  1.2088
13047TIP3   OH260631   6.742   6.472   6.558 -0.1331 -0.1634 -0.4034
13047TIP3    H160632   6.799   6.451   6.485 -1.6276 -0.3686 -1.5669
13047TIP3    H260633   6.753   6.566   6.571 -0.1241 -0.0594 -1.1416
13048TIP3   OH260634   5.748   5.598   3.591 -0.5857  1.0310 -0.3395
13048TIP3    H160635   5.770   5.665   3.526  0.9193 -0.2533 -1.2193
13048TIP3    H260636   5.832   5.561   3.618 -1.2794  0.5017  1.2543
13049TIP3   OH260637   3.906   0.490  13.500 -0.1760 -0.0481 -0.3439
13049TIP3    H160638   3.857   0.439  13.435 -0.4941 -0.9670  0.5981
13049TIP3    H260639   3.849   0.565  13.518 -1.2295 -1.0234  0.6215
13050TIP3   OH260640   5.128   2.345   4.674 -0.5922  0.5823  0.3397
13050TIP3    H160641   5.104   2.312   4.587  0.8873  0.1570  0.0580
13050TIP3    H260642   5.051   2.392   4.705 -2.1744 -1.6565  0.0038
13051TIP3   OH260643   3.925   1.915   1.638 -0.2411  0.4716  0.2366
13051TIP3    H160644   4.007   1.950   1.674 -0.1389  1.4739 -0.9360
13051TIP3    H260645   3.864   1.989   1.640 -1.1652 -0.2727  1.1275
13052TIP3   OH260646   3.830   4.253  11.409 -0.2300  0.0791 -0.3085
13052TIP3    H160647   3.865   4.235  11.496  0.6268  0.3721 -0.5803
13052TIP3    H260648   3.788   4.171  11.382  1.4041 -0.7168 -0.5102
13053TIP3   OH260649   3.703   5.228   3.344 -0.3568 -1.1792 -0.2633
13053TIP3    H160650   3.631   5.165   3.343 -0.5016 -1.0133 -0.7463
13053TIP3    H260651   3.760   5.198   3.414 -0.9339 -1.2710  0.1807
13054TIP3   OH260652   6.813   4.645  16.225 -0.0807  0.1496 -0.6483
13054TIP3    H160653   6.815   4.715  16.159 -0.8527 -0.4093 -1.2855
13054TIP3    H260654   6.842   4.687  16.306  3.0355  0.3830 -1.7480
13055TIP3   OH260655   3.814   3.443   1.248  0.3283 -0.6883  0.1884
13055TIP3    H160656   3.890   3.437   1.190 -0.1334  2.1334 -0.8953
13055TIP3    H260657   3.770   3.524   1.221 -0.7469 -0.0079  3.5141
13056TIP3   OH260658   5.696   2.727   3.464  0.2678 -0.6111 -0.7240
13056TIP3    H160659   5.694   2.675   3.383  0.4231 -1.0379 -0.4560
13056TIP3    H260660   5.787   2.726   3.492 -0.0535 -1.9549  0.3989
13057TIP3   OH260661   2.958   5.711  16.967 -0.0105 -0.6705 -0.3968
13057TIP3    H160662   3.031   5.771  16.982 -0.6036 -0.4396  1.9394
13057TIP3    H260663   2.965   5.687  16.875  1.7643  0.9663 -0.7449
13058TIP3   OH260664   5.763   0.229  15.459  0.2749  0.0230  0.5416
13058TIP3    H160665   5.769   0.133  15.457  0.5907  0.0418 -1.7457
13058TIP3    H260666   5.685   0.247  15.513 -0.3407 -1.5496  0.2308
13059TIP3   OH260667   0.598   3.466  15.182 -0.6731 -0.5512 -0.3523
13059TIP3    H160668   0.624   3.536  15.122 -1.8845  2.0792  1.9629
13059TIP3    H260669   0.511   3.440  15.150 -0.3291 -0.8350 -1.0805
13060TIP3   OH260670   3.539   4.544  10.330 -0.3347 -0.2821 -0.0890
13060TIP3    H160671   3.502   4.551  10.418 -0.7130  0.8203 -0.3227
13060TIP3    H260672   3.606   4.612  10.327  1.7565 -2.2139  0.3046
13061TIP3   OH260673   1.994   3.370   5.241  0.4624  0.8040  0.0467
13061TIP3    H160674   2.037   3.346   5.159 -1.5627  0.1490 -0.8836
13061TIP3    H260675   2.049   3.331   5.309  2.1126  1.2552 -0.9592
13062TIP3   OH260676   6.691   6.133  13.533 -0.3696 -0.1249  0.1932
13062TIP3    H160677   6.733   6.048  13.540  0.4414  0.1536 -0.8782
13062TIP3    H260678   6.638   6.127  13.453  0.0230  0.4932 -0.1220
13063TIP3   OH260679   2.825   1.827   5.604 -0.2166  0.0113  0.5485
13063TIP3    H160680   2.746   1.798   5.559  0.9132 -0.2588 -1.3582
13063TIP3    H260681   2.808   1.920   5.624 -0.7922  0.1100 -0.3576
13064TIP3   OH260682   1.044   2.036   1.472 -0.2043  0.0113 -0.0919
13064TIP3    H160683   1.004   1.961   1.427 -0.0380  0.1953 -0.5498
13064TIP3    H260684   1.090   1.997   1.546 -0.0619 -0.3508 -0.3653
13065TIP3   OH260685   6.548   6.751  14.626  0.6348 -0.4607  0.8866
13065TIP3    H160686   6.551   6.770  14.720  0.8033  0.4900  0.6929
13065TIP3    H260687   6.639   6.737  14.601  0.5367 -1.3026  0.9754
13066TIP3   OH260688   4.005   1.013   5.519 -0.1126 -0.1973 -0.1822
13066TIP3    H160689   4.073   0.960   5.561 -1.3380 -1.0835  0.7549
13066TIP3    H260690   3.942   1.030   5.589 -1.0190  0.3442 -1.1063
13067TIP3   OH260691   5.108   3.719  11.335 -0.0512  0.9367 -0.3331
13067TIP3    H160692   5.139   3.794  11.283 -2.3708  1.5855 -0.8796
13067TIP3    H260693   5.130   3.643  11.282  3.1564  1.0287  0.6214
13068TIP3   OH260694   2.060   6.156  17.123 -0.3279  0.6589  0.0728
13068TIP3    H160695   2.130   6.105  17.165 -0.6259  0.9344  0.9179
13068TIP3    H260696   2.090   6.167  17.032 -0.2756 -1.0534 -0.1577
13069TIP3   OH260697   1.739   3.597   0.112 -0.4245  0.0304 -0.2002
13069TIP3    H160698   1.676   3.656   0.155 -2.6617 -2.5422  0.2884
13069TIP3    H260699   1.825   3.628   0.143 -1.5340  2.2626  0.9444
13070TIP3   OH260700   3.979   6.479  13.515  0.7784 -0.7045  0.1307
13070TIP3    H160701   3.951   6.446  13.600  1.7986  1.0112  1.1944
13070TIP3    H260702   3.901   6.519  13.477  0.1707 -2.0108 -0.0329
13071TIP3   OH260703   3.841   1.293   5.876 -0.5412 -0.0013  0.1324
13071TIP3    H160704   3.802   1.292   5.963 -1.5529 -0.1159 -0.3131
13071TIP3    H260705   3.890   1.375   5.873 -0.7988  0.1748  0.6780
13072TIP3   OH260706   1.666   6.603  14.679 -0.1028  0.5053  0.1384
13072TIP3    H160707   1.719   6.589  14.757 -0.0095  2.4146  0.4796
13072TIP3    H260708   1.577   6.616  14.713 -0.0301  1.5353 -0.0183
13073TIP3   OH260709   5.844   6.171   3.877  0.1761  0.1677  0.1646
13073TIP3    H160710   5.777   6.204   3.937 -0.0319 -0.9448  0.5648
13073TIP3    H260711   5.920   6.227   3.893 -0.2736  0.6761  0.5682
13074TIP3   OH260712   2.664   0.497   2.815 -0.6448 -0.3404  0.3308
13074TIP3    H160713   2.757   0.477   2.816 -0.5534  0.0722  0.1372
13074TIP3    H260714   2.636   0.478   2.725  0.1098  3.3607 -0.8340
13075TIP3   OH260715   2.333   2.963  11.621 -0.1451  0.5844 -0.7074
13075TIP3    H160716   2.334   2.867  11.611 -1.5865  0.4862 -0.2490
13075TIP3    H260717   2.412   2.983  11.670 -0.0562 -0.4435 -0.3972
13076TIP3   OH260718   2.822   5.941  14.043  0.3819  0.5877 -0.3202
13076TIP3    H160719   2.737   5.909  14.072  0.3887  0.8545 -0.0073
13076TIP3    H260720   2.810   6.035  14.033  1.1700  0.9398  1.6167
13077TIP3   OH260721   4.760   2.138  16.639  0.0416 -0.3631 -0.1093
13077TIP3    H160722   4.743   2.068  16.702 -0.9453 -0.7449 -0.7771
13077TIP3    H260723   4.693   2.204  16.658  0.2155 -0.1386 -0.2668
13078TIP3   OH260724   5.401   0.212  15.301 -0.3258  0.1907 -0.1451
13078TIP3    H160725   5.340   0.148  15.337 -0.4734  0.7295  0.5972
13078TIP3    H260726   5.443   0.250  15.378 -0.1933  0.9357 -0.5754
13079TIP3   OH260727   2.442   1.807  16.460 -0.2327 -0.1844  0.0670
13079TIP3    H160728   2.505   1.846  16.399  2.0648 -3.5032  0.0169
13079TIP3    H260729   2.449   1.860  16.540  0.2055  1.4145 -0.9916
13080TIP3   OH260730   5.612   3.326  14.879 -0.3766 -0.0539  0.5817
13080TIP3    H160731   5.600   3.244  14.831 -0.6563  0.4516 -0.2347
13080TIP3    H260732   5.530   3.337  14.928 -0.5235 -0.0345  0.3348
13081TIP3   OH260733   0.654   0.510   0.593  0.3063 -0.0720 -0.4844
13081TIP3    H160734   0.724   0.521   0.657  1.1821  0.5288 -1.5238
13081TIP3    H260735   0.696   0.470   0.517 -0.2161  1.3086 -1.5426
13082TIP3   OH260736   2.086   3.514   0.451 -0.1400 -0.1453 -0.4225
13082TIP3    H160737   2.131   3.475   0.376  1.0853 -0.5274  0.4824
13082TIP3    H260738   2.085   3.445   0.517 -1.8829 -0.0697 -0.3208
13083TIP3   OH260739   4.230   1.286   4.951  0.0468  0.3832 -0.2617
13083TIP3    H160740   4.167   1.289   5.023 -0.1772  1.0416 -0.4805
13083TIP3    H260741   4.297   1.225   4.980 -1.2817 -1.2737 -0.5045
13084TIP3   OH260742   0.709   2.796   2.106 -0.1488 -0.0665 -0.0315
13084TIP3    H160743   0.802   2.797   2.127 -0.2700  0.1454  0.4999
13084TIP3    H260744   0.667   2.762   2.184 -0.6913  1.6637  0.4841
13085TIP3   OH260745   1.285   0.057   3.809  0.6612 -0.1433 -0.5778
13085TIP3    H160746   1.373   0.033   3.781  0.6287 -1.6802  0.5095
13085TIP3    H260747   1.299   0.114   3.885  0.7117  0.2575 -0.8843
13086TIP3   OH260748   6.232   4.934  10.306  0.4689 -0.0765 -0.0939
13086TIP3    H160749   6.189   4.956  10.389  1.4473  0.6705  0.2493
13086TIP3    H260750   6.282   4.855  10.325  0.8189  0.1823  0.0954
13087TIP3   OH260751   4.094   5.029  15.090  0.1666 -0.4347  0.5959
13087TIP3    H160752   4.014   5.025  15.143  1.1317 -3.8618  2.0564
13087TIP3    H260753   4.165   5.032  15.155  1.3120  0.7673 -0.6545
13088TIP3   OH260754   0.846   5.345   4.667 -0.9322  0.2528 -0.0865
13088TIP3    H160755   0.909   5.299   4.611 -1.6320  0.2901 -0.9298
13088TIP3    H260756   0.873   5.437   4.662  0.0260  0.0584  1.0170
13089TIP3   OH260757   6.602   1.415  14.798  0.4526  0.1034 -0.2355
13089TIP3    H160758   6.623   1.489  14.741 -1.0894  1.2916  0.6560
13089TIP3    H260759   6.659   1.426  14.874  0.6467  0.0272 -0.3689
13090TIP3   OH260760   1.582   6.300  13.776 -0.2188  0.3526  0.0587
13090TIP3    H160761   1.540   6.324  13.859 -0.8032  0.0781 -0.1512
13090TIP3    H260762   1.595   6.205  13.782  0.4480  0.4426  0.1494
13091TIP3   OH260763   3.077   5.216  16.859 -0.3747  0.1447  0.0333
13091TIP3    H160764   3.064   5.258  16.774 -1.1854 -1.2412 -0.5567
13091TIP3    H260765   3.158   5.165  16.849  0.0126  0.6738  0.3953
13092TIP3   OH260766   0.111   0.922  13.286  0.1141 -0.2286  0.4759
13092TIP3    H160767   0.029   0.957  13.319  1.6418  1.8741  2.3266
13092TIP3    H260768   0.125   0.967  13.203  0.1709  0.6701  0.9614
13093TIP3   OH260769   6.058   3.353  11.985 -0.0020 -0.2390 -0.4185
13093TIP3    H160770   6.022   3.440  11.965 -1.1819 -0.2948  1.2568
13093TIP3    H260771   5.981   3.296  11.990  0.4662 -0.7839  1.2272
13094TIP3   OH260772   6.574   0.561   2.856  0.0860  0.0245  0.0282
13094TIP3    H160773   6.618   0.555   2.772 -1.1877  0.4544 -0.6847
13094TIP3    H260774   6.631   0.617   2.909 -0.5594  2.2681 -1.5186
13095TIP3   OH260775   2.676   1.681   0.355 -0.4014  0.1356  0.2793
13095TIP3    H160776   2.698   1.769   0.384 -0.3692  0.6924 -1.3473
13095TIP3    H260777   2.580   1.681   0.347 -0.3341  0.3278 -0.6079
13096TIP3   OH260778   5.213   6.087  15.597  0.1790 -0.6503 -0.0139
13096TIP3    H160779   5.137   6.070  15.652  1.3992 -0.2943  1.8587
13096TIP3    H260780   5.249   6.000  15.578  0.4345 -0.7175  0.7647
13097TIP3   OH260781   6.556   2.404  14.162 -0.0521 -0.2860 -0.1182
13097TIP3    H160782   6.633   2.347  14.151 -1.6088 -2.2838 -1.5893
13097TIP3    H260783   6.537   2.401  14.256  1.4828  0.0361  0.2308
13098TIP3   OH260784   2.667   1.618  12.178  0.0688  0.2476  0.2037
13098TIP3    H160785   2.669   1.714  12.183  0.3936  0.2140  0.7306
13098TIP3    H260786   2.603   1.592  12.245 -0.3171  0.1111 -0.2105
13099TIP3   OH260787   6.237   2.356  16.016 -0.2933  0.0665 -0.2921
13099TIP3    H160788   6.227   2.442  15.975  2.8431  0.0957 -1.3156
13099TIP3    H260789   6.223   2.293  15.945  1.3769 -0.0385 -0.5732
13100TIP3   OH260790   0.630   4.274  11.230 -0.7008  0.3301 -0.3113
13100TIP3    H160791   0.666   4.297  11.316 -1.7928 -0.4909  0.3853
13100TIP3    H260792   0.707   4.266  11.173  0.0663  0.4787  0.6832
13101TIP3   OH260793   5.902   0.917   6.087  0.1927 -0.0506 -0.3687
13101TIP3    H160794   5.991   0.947   6.069  0.5381 -0.7152  0.1635
13101TIP3    H260795   5.883   0.949   6.175 -0.4399  0.8367 -0.8101
13102TIP3   OH260796   0.375   0.139  13.503  0.5393  0.2104  0.2977
13102TIP3    H160797   0.452   0.196  13.496  1.1394 -0.0468  3.4388
13102TIP3    H260798   0.408   0.059  13.543 -0.8869 -1.0815 -1.0144
13103TIP3   OH260799   3.346   6.239  14.192  0.0665 -0.2088  0.2880
13103TIP3    H160800   3.276   6.296  14.221 -0.1595 -0.5808  0.4793
13103TIP3    H260801   3.425   6.275  14.232  0.7213  2.6260 -3.0154
13104TIP3   OH260802   6.154   4.313   3.148 -0.1483 -0.1786  0.2536
13104TIP3    H160803   6.111   4.397   3.135 -0.8152 -0.5483  0.0549
13104TIP3    H260804   6.222   4.331   3.212 -0.1472  0.5586  0.0553
13105TIP3   OH260805   4.451   0.282  16.797 -0.8839 -0.6622  0.5279
13105TIP3    H160806   4.366   0.237  16.801  0.6730 -4.0839 -0.9097
13105TIP3    H260807   4.515   0.212  16.789  2.0597  1.8247  0.4640
13106TIP3   OH260808   4.559   3.701   1.587  0.6103 -0.4253 -0.1465
13106TIP3    H160809   4.638   3.672   1.633  0.7261 -1.2588 -0.8330
13106TIP3    H260810   4.542   3.789   1.620 -0.3470 -1.6031  2.8011
13107TIP3   OH260811   5.902   2.926  11.488 -0.3050 -0.0846 -0.4434
13107TIP3    H160812   5.833   2.880  11.440 -1.1866 -0.0897  0.7915
13107TIP3    H260813   5.957   2.963  11.419 -2.0691  0.7157 -1.5087
13108TIP3   OH260814   0.391   5.570  14.562 -0.1918  0.1170 -0.1780
13108TIP3    H160815   0.398   5.533  14.474  0.6692 -1.4210  0.4850
13108TIP3    H260816   0.302   5.547  14.591 -0.3862  0.4030 -0.5373
13109TIP3   OH260817   0.087   3.228  15.873 -0.5216 -0.3166 -0.4245
13109TIP3    H160818   0.140   3.175  15.814  1.5848 -0.8411  1.7664
13109TIP3    H260819   0.131   3.313  15.876 -0.5129 -0.3392  0.4616
13110TIP3   OH260820   1.481   6.210   3.993  0.5154  0.2438 -0.2109
13110TIP3    H160821   1.548   6.187   3.929 -0.7794 -0.9753 -1.1768
13110TIP3    H260822   1.398   6.202   3.946 -0.3963  0.6752  1.2461
13111TIP3   OH260823   2.519   4.366   6.168  0.2236  0.2755 -0.3022
13111TIP3    H160824   2.587   4.404   6.224  0.6892 -1.4826  0.3792
13111TIP3    H260825   2.535   4.272   6.171 -0.5284  0.0329 -2.4159
13112TIP3   OH260826   0.602   5.380   5.433  0.2376 -0.0143  0.3830
13112TIP3    H160827   0.663   5.453   5.448 -2.3324  2.3876  0.0315
13112TIP3    H260828   0.630   5.342   5.350  1.6611  0.5503  0.5828
13113TIP3   OH260829   0.647   6.558  11.372 -0.2456 -0.4803  0.1673
13113TIP3    H160830   0.680   6.576  11.460 -1.4656 -1.8472  0.9553
13113TIP3    H260831   0.642   6.644  11.330  1.7231  0.0469  0.8911
13114TIP3   OH260832   2.369   6.616  11.950  0.6752 -0.2314  0.5063
13114TIP3    H160833   2.411   6.582  11.871  0.6515  0.9755 -0.0548
13114TIP3    H260834   2.322   6.694  11.920 -2.2036 -1.6228  1.0479
13115TIP3   OH260835   0.961   1.985   4.777  0.2343  0.7341 -0.0622
13115TIP3    H160836   0.947   1.949   4.864 -1.0473 -0.0527 -0.5630
13115TIP3    H260837   0.873   2.003   4.744  0.5896 -0.2830 -1.7141
13116TIP3   OH260838   1.745   0.487   4.709 -0.0256 -0.6026  0.1253
13116TIP3    H160839   1.795   0.553   4.758  1.8846 -0.9320 -1.2593
13116TIP3    H260840   1.660   0.527   4.695  0.3795  0.7045  1.1270
13117TIP3   OH260841   2.515   1.565  14.328 -0.2926 -0.1100  0.1994
13117TIP3    H160842   2.437   1.601  14.370 -1.6031 -1.6869 -0.7715
13117TIP3    H260843   2.483   1.489  14.279  1.8442 -0.7312 -0.3270
13118TIP3   OH260844   4.975   0.236  12.391 -0.0871  0.4766  0.3761
13118TIP3    H160845   4.961   0.158  12.444 -1.9678 -0.1624 -0.9448
13118TIP3    H260846   4.949   0.210  12.303  0.5929  2.1980 -0.3809
13119TIP3   OH260847   0.417   2.254  14.004 -0.3225  0.5643 -0.3526
13119TIP3    H160848   0.472   2.315  13.954 -0.1752  0.4749 -0.3008
13119TIP3    H260849   0.448   2.262  14.094 -1.0300  1.2136 -0.1539
13120TIP3   OH260850   0.134   4.768  14.581 -0.3476 -0.4531 -0.1221
13120TIP3    H160851   0.181   4.775  14.664  0.5893 -2.1076 -0.4580
13120TIP3    H260852   0.201   4.738  14.519 -1.5789 -1.7540 -0.8823
13121TIP3   OH260853   0.922   0.245  13.189 -0.0427 -0.6351  0.4755
13121TIP3    H160854   0.892   0.293  13.266 -1.2820  0.3442 -0.5683
13121TIP3    H260855   0.844   0.203  13.155  0.4303 -0.8062 -0.4230
13122TIP3   OH260856   0.665   2.111  11.437  0.1110  0.2027 -0.0978
13122TIP3    H160857   0.627   2.026  11.418 -1.0620  0.7604 -0.3018
13122TIP3    H260858   0.658   2.120  11.532 -0.5901  0.4393 -0.1653
13123TIP3   OH260859   0.442   4.533   4.866  0.2650  0.4687 -0.2073
13123TIP3    H160860   0.423   4.607   4.923 -0.8786  0.2275 -0.2666
13123TIP3    H260861   0.432   4.568   4.777 -0.2392  0.2532 -0.2360
13124TIP3   OH260862   2.276   2.337   4.474 -0.2279 -0.1335 -0.4072
13124TIP3    H160863   2.350   2.394   4.451  1.1132 -1.4610  0.4594
13124TIP3    H260864   2.259   2.286   4.394 -2.0362  1.9914 -1.5000
13125TIP3   OH260865   6.219   5.448   0.958  0.1142 -0.8150 -0.0604
13125TIP3    H160866   6.307   5.416   0.978  0.1919 -0.5867 -0.0386
13125TIP3    H260867   6.198   5.410   0.873  0.0829 -1.1805  0.1099
13126TIP3   OH260868   3.418   6.425  13.414 -0.1480  0.2729 -0.2113
13126TIP3    H160869   3.369   6.466  13.485  1.4014  0.7128  0.6592
13126TIP3    H260870   3.501   6.399  13.454  0.2378 -0.6857 -1.5596
13127TIP3   OH260871   3.547   1.409  15.847 -0.3659  0.1583  0.1921
13127TIP3    H160872   3.598   1.388  15.926 -2.0008 -1.1184  0.9525
13127TIP3    H260873   3.614   1.430  15.781  1.2215 -2.0953  0.9486
13128TIP3   OH260874   1.007   4.750   5.293 -0.4218 -0.4637  0.0419
13128TIP3    H160875   0.936   4.702   5.336 -1.0981 -2.7630 -3.2517
13128TIP3    H260876   0.985   4.842   5.307 -1.2934 -1.0203  3.2405
13129TIP3   OH260877   2.438   4.440  10.592  0.2247 -0.3173 -0.1028
13129TIP3    H160878   2.355   4.394  10.606 -0.2063  0.7909  1.3626
13129TIP3    H260879   2.490   4.418  10.669  1.6923 -1.7095 -1.4256
13130TIP3   OH260880   3.857   6.135  15.462 -0.0766  0.6216 -0.2084
13130TIP3    H160881   3.853   6.049  15.419 -0.8484  0.5296  0.0355
13130TIP3    H260882   3.945   6.167  15.441  0.6490 -0.7076  0.5998
13131TIP3   OH260883   2.446   2.033  11.542 -0.3104 -0.7026 -0.0366
13131TIP3    H160884   2.469   2.017  11.450  0.0116  1.7105 -0.4236
13131TIP3    H260885   2.502   2.105  11.569 -0.9993 -0.8069  1.8129
13132TIP3   OH260886   3.064   5.428   3.782  0.0767  1.0663 -0.0915
13132TIP3    H160887   3.151   5.391   3.766 -0.3858 -0.7643  1.3204
13132TIP3    H260888   3.004   5.363   3.744 -0.7162  1.7492 -0.0293
13133TIP3   OH260889   4.617   4.612  14.625  0.1066 -0.2695  0.4259
13133TIP3    H160890   4.694   4.643  14.578  0.8346  0.7458  2.1936
13133TIP3    H260891   4.622   4.516  14.620  0.4891 -0.1999 -0.9603
13134TIP3   OH260892   1.323   0.415   2.789  0.3841  0.1868 -0.2506
13134TIP3    H160893   1.311   0.405   2.694 -0.9587  2.1380 -0.3572
13134TIP3    H260894   1.349   0.507   2.800  1.8086 -0.3512  1.1979
13135TIP3   OH260895   6.698   5.376  11.503 -0.3357 -0.0274  0.0571
13135TIP3    H160896   6.685   5.406  11.413  1.0126 -0.8340 -0.4382
13135TIP3    H260897   6.790   5.396  11.521 -1.1964  2.6910  2.2689
13136TIP3   OH260898   3.405   6.379   5.986  0.1785  0.3660 -0.2404
13136TIP3    H160899   3.487   6.420   6.013  0.3088 -1.1511  1.9533
13136TIP3    H260900   3.431   6.293   5.953 -0.4651  0.0609  0.0159
13137TIP3   OH260901   4.785   3.828  14.272 -0.2673  0.6546 -0.7569
13137TIP3    H160902   4.712   3.790  14.222 -0.7271  0.8411 -0.2365
13137TIP3    H260903   4.828   3.752  14.312  0.4140  0.4561 -1.8319
13138TIP3   OH260904   3.519   3.644   4.928  0.2271 -0.0312 -0.3488
13138TIP3    H160905   3.500   3.634   4.835  0.8126 -2.7700 -0.2551
13138TIP3    H260906   3.438   3.620   4.973  0.5053 -0.6590 -0.1587
13139TIP3   OH260907   4.702   1.968  14.669  0.0303  0.3166  1.0316
13139TIP3    H160908   4.672   1.949  14.580  0.3152  1.1932  0.7446
13139TIP3    H260909   4.643   1.917  14.725 -0.2405 -0.1304  0.3503
13140TIP3   OH260910   0.884   1.993   0.467  0.0812  0.2659  0.0481
13140TIP3    H160911   0.974   1.963   0.458 -0.5773 -2.0358  0.2621
13140TIP3    H260912   0.886   2.055   0.540  1.5057  0.3157 -0.0167
13141TIP3   OH260913   2.063   3.022  15.194  0.0975  0.3987  0.4959
13141TIP3    H160914   2.106   3.067  15.121 -0.0473  0.2511  0.3171
13141TIP3    H260915   1.969   3.038  15.180  0.1477  2.1127  1.7940
13142TIP3   OH260916   6.545   2.786   6.018 -0.0542 -0.1415  0.0288
13142TIP3    H160917   6.513   2.758   5.932 -0.4040  0.9979 -0.2271
13142TIP3    H260918   6.640   2.791   6.008 -0.0252 -0.8127 -0.0443
13143TIP3   OH260919   0.850   2.172   1.612  0.3770  0.6850  0.0879
13143TIP3    H160920   0.911   2.145   1.543  1.8550  2.2582  0.6988
13143TIP3    H260921   0.772   2.118   1.598  1.3455 -0.3548 -1.6399
13144TIP3   OH260922   4.776   5.243   2.746 -0.3626  0.8881  0.2094
13144TIP3    H160923   4.750   5.195   2.825  1.7999 -0.8135 -0.0073
13144TIP3    H260924   4.823   5.319   2.780 -1.4964  1.4616  0.5451
13145TIP3   OH260925   2.077   1.155   6.418 -0.3198  0.6103  0.2572
13145TIP3    H160926   2.163   1.195   6.432 -0.2794  0.1606  1.3789
13145TIP3    H260927   2.088   1.102   6.339  0.0100  1.7122 -0.4610
13146TIP3   OH260928   2.760   0.817  17.167  0.0550 -0.0557 -0.3887
13146TIP3    H160929   2.716   0.856  17.243  0.9072 -0.3166  0.2535
13146TIP3    H260930   2.736   0.874  17.094  0.7493  1.3200  0.4122
13147TIP3   OH260931   0.261   4.273  10.107  0.1035  0.3935 -0.1906
13147TIP3    H160932   0.198   4.336  10.073  0.3155 -0.4777 -2.3768
13147TIP3    H260933   0.209   4.211  10.157 -0.3289  1.3029  0.5214
13148TIP3   OH260934   4.592   1.619   4.595 -0.3770  0.1363  0.1587
13148TIP3    H160935   4.651   1.694   4.581 -0.0661 -0.1315  0.0087
13148TIP3    H260936   4.629   1.550   4.539 -1.2058  0.1593 -0.4292
13149TIP3   OH260937   5.681   5.238  16.882 -0.1547 -0.1695 -0.1204
13149TIP3    H160938   5.706   5.318  16.928 -1.2247 -0.4065  0.9003
13149TIP3    H260939   5.760   5.213  16.834  1.1432 -0.1557  1.9244
13150TIP3   OH260940   4.103   4.288  13.015 -0.2490 -0.5048  0.3650
13150TIP3    H160941   4.063   4.204  13.038 -0.9067  0.0622  1.3881
13150TIP3    H260942   4.168   4.303  13.083  0.4941 -0.5946 -0.3142
13151TIP3   OH260943   4.199   5.879  14.172 -0.8277  0.3192  0.3565
13151TIP3    H160944   4.146   5.874  14.092  0.2253  0.1874 -0.3597
13151TIP3    H260945   4.261   5.950  14.156  1.7028 -1.8601 -0.4583
13152TIP3   OH260946   3.185   6.644   3.030  0.6120 -0.2818  0.3122
13152TIP3    H160947   3.129   6.622   3.104 -0.1028 -1.5674 -0.5819
13152TIP3    H260948   3.274   6.636   3.064  0.2899 -0.5383  1.1146
13153TIP3   OH260949   4.729   6.490  13.176 -0.3640 -0.2330  0.3044
13153TIP3    H160950   4.704   6.580  13.195  0.9153  0.1228  0.4217
13153TIP3    H260951   4.717   6.481  13.081  0.3013  0.3371  0.1614
13154TIP3   OH260952   2.786   1.926   3.224  0.2895  0.2050  0.1170
13154TIP3    H160953   2.833   2.009   3.218 -0.5138  0.7001  0.4166
13154TIP3    H260954   2.756   1.923   3.315  3.0711 -1.9872  1.1095
13155TIP3   OH260955   0.970   5.578   5.939 -0.1247 -0.3548 -0.5243
13155TIP3    H160956   1.035   5.562   6.008  0.4384 -0.7797 -1.1400
13155TIP3    H260957   0.890   5.536   5.970 -0.7746  1.9389  1.2359
13156TIP3   OH260958   0.752   0.141   1.398  0.6866 -0.1710  0.2272
13156TIP3    H160959   0.669   0.095   1.387  0.3766  0.2631  0.7240
13156TIP3    H260960   0.784   0.153   1.308  0.7486 -1.2818  0.0836
13157TIP3   OH260961   0.424   6.034  16.120  0.3387  0.7225  0.4579
13157TIP3    H160962   0.386   6.056  16.205  1.7577 -0.6656  1.5254
13157TIP3    H260963   0.353   5.994  16.070 -0.0157 -0.4268  1.8338
13158TIP3   OH260964   1.159   6.373   2.872 -0.2096 -0.1029  0.0055
13158TIP3    H160965   1.194   6.322   2.799  0.2806  1.6897 -1.0908
13158TIP3    H260966   1.184   6.324   2.950  2.1632 -0.4540 -0.8934
13159TIP3   OH260967   3.634   3.012   2.384  0.3702 -0.2344  0.5693
13159TIP3    H160968   3.595   2.974   2.463 -0.4198 -0.4653  0.0755
13159TIP3    H260969   3.587   2.971   2.311 -0.0856  1.2425  0.0022
13160TIP3   OH260970   5.062   5.100  11.011 -0.3466 -0.5834  0.1021
13160TIP3    H160971   5.131   5.033  11.003 -0.2059 -0.7459  2.1296
13160TIP3    H260972   5.003   5.082  10.937  1.9860 -0.1074 -2.0299
13161TIP3   OH260973   5.673   2.098  16.274 -0.3744  0.3184  0.4664
13161TIP3    H160974   5.600   2.127  16.220 -0.0515 -1.5668 -1.0906
13161TIP3    H260975   5.693   2.010  16.242  0.7381 -0.3430  2.7852
13162TIP3   OH260976   2.587   1.389   3.792 -0.1402  0.0791 -0.2237
13162TIP3    H160977   2.595   1.394   3.697 -0.5427  1.7727 -0.2083
13162TIP3    H260978   2.635   1.466   3.823 -1.0341  0.2062  0.8725
13163TIP3   OH260979   4.194   3.999  16.880  0.3468 -0.2352  0.0718
13163TIP3    H160980   4.147   3.957  16.808  0.7548 -1.4655  0.4889
13163TIP3    H260981   4.126   4.027  16.941  0.0928 -1.8496  0.5895
13164TIP3   OH260982   2.894   6.152  16.389 -0.2933  0.5945  0.0927
13164TIP3    H160983   2.844   6.123  16.313 -1.8184  1.9031  0.5326
13164TIP3    H260984   2.949   6.078  16.411 -0.8185 -0.3094 -1.4514
13165TIP3   OH260985   1.160   0.020   5.324  0.1436  0.1703  0.3501
13165TIP3    H160986   1.083   0.078   5.329  0.9396  1.2797  0.2102
13165TIP3    H260987   1.153  -0.022   5.239 -0.5675 -0.1078  0.5438
13166TIP3   OH260988   2.556   2.404  10.134  0.1461 -0.2696 -0.2833
13166TIP3    H160989   2.540   2.476  10.073  1.6431 -1.0567 -1.6794
13166TIP3    H260990   2.619   2.348  10.089 -0.5705 -2.1833  0.9914
13167TIP3   OH260991   6.250   5.834  11.161 -0.4444  0.0877 -0.2007
13167TIP3    H160992   6.172   5.791  11.197 -0.7378 -0.1890 -1.1316
13167TIP3    H260993   6.313   5.764  11.150  0.8874  0.6615  2.8499
13168TIP3   OH260994   6.745   0.185  16.662 -0.1906  0.0867  0.6674
13168TIP3    H160995   6.789   0.243  16.600 -1.0049  1.6024  1.4404
13168TIP3    H260996   6.652   0.210  16.655 -0.4717 -0.7102  1.4580
13169TIP3   OH260997   5.990   1.415   2.624 -0.6555 -0.2901 -0.5901
13169TIP3    H160998   5.996   1.510   2.609 -1.4978 -0.4499 -2.1035
13169TIP3    H260999   5.935   1.407   2.703 -0.9596  0.4745 -0.7109
13170TIP3   OH261000   6.581   5.132  15.370 -0.7527  0.0518  0.3313
13170TIP3    H161001   6.542   5.152  15.455  0.6409  1.8745  0.6137
13170TIP3    H261002   6.576   5.214  15.321  1.6270  0.0940  0.0061
13171TIP3   OH261003   1.428   1.199   2.070 -0.1855 -0.1915 -0.8694
13171TIP3    H161004   1.472   1.116   2.051 -0.6939 -0.8450  0.6644
13171TIP3    H261005   1.361   1.176   2.134  0.9606  1.7191  1.1206
13172TIP3   OH261006   3.031   2.972  16.571  0.7231  0.4148  0.1398
13172TIP3    H161007   2.937   2.972  16.551  1.0676  0.0407 -1.6120
13172TIP3    H261008   3.050   3.063  16.595 -0.3513  0.1977  2.0637
13173TIP3   OH261009   5.542   1.018   3.099 -0.1061 -0.4925  0.2455
13173TIP3    H161010   5.461   0.967   3.097 -0.0320 -0.6259  0.6892
13173TIP3    H261011   5.603   0.965   3.150  0.0739 -0.1081  0.4298
13174TIP3   OH261012   1.001   0.445  16.024 -0.6306  0.2147  0.2785
13174TIP3    H161013   0.946   0.369  16.043 -1.9380  1.1176  0.2365
13174TIP3    H261014   1.028   0.478  16.110 -1.0324  0.3755  0.3475
13175TIP3   OH261015   6.043   6.557  12.816 -0.5787 -0.0854  1.1513
13175TIP3    H161016   6.051   6.653  12.813  0.5394 -0.0868 -3.6009
13175TIP3    H261017   5.952   6.540  12.791  0.0506 -0.1177 -1.4265
13176TIP3   OH261018   4.541   1.834   5.144 -0.2025  0.5109 -0.0098
13176TIP3    H161019   4.629   1.800   5.130  0.3714  1.6033  0.7601
13176TIP3    H261020   4.525   1.822   5.238 -0.9827  0.0770 -0.1905
13177TIP3   OH261021   0.492   4.554  16.760 -0.1500  0.3641  0.0228
13177TIP3    H161022   0.427   4.526  16.824 -0.7588  0.3670 -0.5802
13177TIP3    H261023   0.512   4.644  16.785 -2.8421  1.5703 -1.6700
13178TIP3   OH261024   4.592   4.163  16.734  0.6639 -0.6330  0.0004
13178TIP3    H161025   4.552   4.100  16.794  0.5303  0.5366  1.2003
13178TIP3    H261026   4.680   4.177  16.771  0.4795  0.3112  0.0959
13179TIP3   OH261027   5.514   0.535   5.121  0.0426  0.3631  0.0530
13179TIP3    H161028   5.569   0.588   5.063 -1.4486  2.5968  0.5576
13179TIP3    H261029   5.457   0.486   5.061 -0.1795  1.1571 -0.3900
13180TIP3   OH261030   5.747   0.928   5.095 -0.1353 -0.1497 -0.5882
13180TIP3    H161031   5.805   0.872   5.044  2.0346  1.5048 -0.0646
13180TIP3    H261032   5.738   0.884   5.179 -0.4237 -0.8747 -0.9909
13181TIP3   OH261033   5.457   4.274  12.130  0.1726 -0.2618  0.1347
13181TIP3    H161034   5.372   4.253  12.092 -0.3884  0.9777  0.6275
13181TIP3    H261035   5.507   4.314  12.058  0.4337 -1.1981 -0.2140
13182TIP3   OH261036   4.759   3.799  16.636 -0.1864 -0.7554 -0.0244
13182TIP3    H161037   4.738   3.807  16.543  1.3296  0.3939 -0.3025
13182TIP3    H261038   4.817   3.723  16.640  0.2944 -0.3892 -0.1103
13183TIP3   OH261039   2.665   1.083  16.426  0.3620  0.0615  0.7742
13183TIP3    H161040   2.749   1.038  16.431  0.8918  0.5005 -2.4810
13183TIP3    H261041   2.682   1.171  16.460  2.8114  1.9710 -4.3986
13184TIP3   OH261042   3.832   1.008  15.787  0.0942  0.2155  0.2585
13184TIP3    H161043   3.796   0.924  15.759 -0.2950  0.1478  0.9522
13184TIP3    H261044   3.870   0.990  15.873 -1.1003  1.0270  0.9845
13185TIP3   OH261045   1.733   5.911   6.390  0.5739 -0.1305  0.2340
13185TIP3    H161046   1.807   5.857   6.416  0.8406  0.3978  0.5959
13185TIP3    H261047   1.684   5.857   6.329  1.8144 -0.1137 -0.8222
13186TIP3   OH261048   0.614   5.516  16.804 -0.0161 -0.0959  0.5314
13186TIP3    H161049   0.526   5.524  16.767  0.7775 -0.3488 -1.6083
13186TIP3    H261050   0.600   5.489  16.894 -2.1338  0.6113  0.4753
13187TIP3   OH261051   0.422   5.265   2.837 -0.4490 -0.6229  0.5869
13187TIP3    H161052   0.446   5.277   2.745 -0.8961 -0.1398  0.5277
13187TIP3    H261053   0.364   5.339   2.856 -1.5150 -1.4914  0.8463
13188TIP3   OH261054   4.357   6.392   3.163 -0.3006  0.0830 -0.6434
13188TIP3    H161055   4.435   6.400   3.217 -0.8098 -1.6113  0.4178
13188TIP3    H261056   4.287   6.431   3.215 -0.4001  0.4258 -1.0305
13189TIP3   OH261057   1.401   1.969   5.370  0.1121 -0.3741  0.9513
13189TIP3    H161058   1.326   1.933   5.322 -0.5922  1.3099  0.7402
13189TIP3    H261059   1.363   2.035   5.427  1.6708  2.5649 -1.1750
13190TIP3   OH261060   2.276   1.406  12.551 -0.1365  0.0895  0.1638
13190TIP3    H161061   2.329   1.425  12.628 -0.0863  1.3487 -0.1648
13190TIP3    H261062   2.185   1.409  12.582 -0.1266  0.8256  0.1373
13191TIP3   OH261063   3.464   6.132  11.693  0.1941  0.4275 -0.4170
13191TIP3    H161064   3.477   6.178  11.609  2.5926 -0.1071 -0.4270
13191TIP3    H261065   3.536   6.069  11.696 -1.3262 -1.3415  0.9225
13192TIP3   OH261066   1.134   2.683   3.556  0.5102  0.0619  0.3294
13192TIP3    H161067   1.066   2.741   3.522  1.3781  1.0221  0.1741
13192TIP3    H261068   1.087   2.620   3.610 -0.7033 -0.4043 -1.1909
13193TIP3   OH261069   0.172   4.399   2.326  0.0495 -0.2656  0.7116
13193TIP3    H161070   0.167   4.348   2.245  0.2635 -0.8970  1.0985
13193TIP3    H261071   0.179   4.490   2.295  1.1832 -0.5709 -0.0065
13194TIP3   OH261072   3.237   4.818   3.165 -0.0038 -0.3760 -0.2368
13194TIP3    H161073   3.195   4.771   3.237 -1.8427 -0.0023 -0.9976
13194TIP3    H261074   3.237   4.910   3.193  0.2198 -0.3620 -0.2797
13195TIP3   OH261075   1.347   5.748  16.156 -0.0618  0.2093  0.3597
13195TIP3    H161076   1.432   5.728  16.119 -0.8965 -2.9883 -0.0853
13195TIP3    H261077   1.348   5.709  16.243 -1.2518 -0.3906  0.1246
13196TIP3   OH261078   3.310   0.118   1.071  0.2483 -0.6247  0.1294
13196TIP3    H161079   3.264   0.053   1.124  0.8812  0.4505  2.0775
13196TIP3    H261080   3.398   0.082   1.060 -0.3542 -1.6454 -1.7176
13197TIP3   OH261081   2.869   2.372  14.665 -0.3805 -0.3594  0.0753
13197TIP3    H161082   2.890   2.307  14.732  0.8504 -0.1558 -0.0773
13197TIP3    H261083   2.894   2.331  14.582 -0.7337 -0.1513 -0.1350
13198TIP3   OH261084   4.108   4.010  11.504 -0.3985 -0.1357 -0.3263
13198TIP3    H161085   4.065   4.001  11.419 -0.3881 -1.1134 -0.2429
13198TIP3    H261086   4.192   4.051  11.485 -0.9994  0.9968 -0.6001
13199TIP3   OH261087   6.261   6.571   5.918  0.4725  0.6102  0.0540
13199TIP3    H161088   6.212   6.566   5.836 -1.5709  1.0666  1.1900
13199TIP3    H261089   6.198   6.549   5.986  0.9615  4.0724  1.8645
13200TIP3   OH261090   4.706   1.555   0.602  0.4530  0.2580  0.0207
13200TIP3    H161091   4.785   1.594   0.564  2.3785 -1.0076  2.4250
13200TIP3    H261092   4.736   1.515   0.683 -2.8050  0.1141  1.2902
13201TIP3   OH261093   3.022   2.541  14.283 -0.3110 -0.0398 -0.3500
13201TIP3    H161094   2.940   2.590  14.288  0.4629  1.4119 -1.3181
13201TIP3    H261095   3.065   2.573  14.204  1.7558  0.1407  0.7747
13202TIP3   OH261096   1.320   6.627   2.997  0.2047 -0.0290  0.4803
13202TIP3    H161097   1.293   6.545   3.038 -2.0534  0.5009  0.1732
13202TIP3    H261098   1.292   6.695   3.059  2.3904  0.5778  0.9214
13203TIP3   OH261099   6.786   1.053   1.287  0.2926  0.3369  0.0555
13203TIP3    H161100   6.812   1.116   1.220  1.4376  0.7438  0.8484
13203TIP3    H261101   6.701   1.020   1.257  0.8161  0.4209 -1.6319
13204TIP3   OH261102   4.525   6.471  15.108  0.5250 -0.1289 -0.2471
13204TIP3    H161103   4.529   6.563  15.083  1.0260  0.0974  0.5974
13204TIP3    H261104   4.432   6.450  15.111  0.3835  0.5329  0.1761
13205TIP3   OH261105   0.855   0.989   5.841  0.2522  0.1655 -0.5484
13205TIP3    H161106   0.849   0.899   5.807  1.1416 -0.1590  0.1004
13205TIP3    H261107   0.811   0.986   5.926  0.6641  0.2269 -0.3291
13206TIP3   OH261108   0.345   2.473  12.358 -0.0733  0.0539 -0.0380
13206TIP3    H161109   0.294   2.477  12.277 -0.5915 -0.6992  0.2439
13206TIP3    H261110   0.366   2.380  12.369  0.6439  0.2459  0.2976
13207TIP3   OH261111   6.796   4.839  12.603  0.3285  0.4155 -0.2876
13207TIP3    H161112   6.773   4.758  12.556  0.7980  0.9343 -1.4637
13207TIP3    H261113   6.790   4.907  12.536  3.7457  0.8217 -0.3447
13208TIP3   OH261114   6.711   2.572  16.879  0.2077  0.5073  0.4073
13208TIP3    H161115   6.623   2.551  16.911 -0.2413  0.0548 -1.0202
13208TIP3    H261116   6.764   2.496  16.904 -0.6821 -0.9817 -1.9003
13209TIP3   OH261117   2.597   5.729   0.876  0.0647 -0.0846  0.6985
13209TIP3    H161118   2.670   5.783   0.845  0.3898 -0.4657  0.7979
13209TIP3    H261119   2.625   5.699   0.963  0.2272 -1.0524  0.3261
13210TIP3   OH261120   3.960   5.760   5.472  0.2804  0.1336 -0.4528
13210TIP3    H161121   3.871   5.789   5.448  0.6941  0.3260 -1.8725
13210TIP3    H261122   4.004   5.747   5.388  1.2823 -0.9908  0.2097
13211TIP3   OH261123   6.811   5.822  11.185 -0.3611  0.3168 -0.7733
13211TIP3    H161124   6.835   5.850  11.273 -0.5859 -0.6380 -0.3987
13211TIP3    H261125   6.718   5.840  11.177 -0.6797 -0.9975 -0.2495
13212TIP3   OH261126   3.884   0.169   4.359  0.3655  0.5035  0.2654
13212TIP3    H161127   3.849   0.114   4.429 -1.0992  1.2394  0.1484
13212TIP3    H261128   3.973   0.135   4.344 -0.3042 -1.4915  0.5326
13213TIP3   OH261129   4.868   0.982  14.836 -0.2651  0.4219 -0.4989
13213TIP3    H161130   4.799   1.046  14.853 -0.3182  0.0498  0.8444
13213TIP3    H261131   4.870   0.928  14.915  0.5878 -0.4823 -1.1173
13214TIP3   OH261132   6.769   3.070  14.601  0.1894  0.7656  1.0896
13214TIP3    H161133   6.700   3.086  14.536  1.4421 -4.1034 -1.9458
13214TIP3    H261134   6.844   3.120  14.567  1.1020 -2.3793 -2.1787
13215TIP3   OH261135   3.897   3.958   4.506 -0.2801 -0.6110  0.0943
13215TIP3    H161136   3.835   3.975   4.576 -0.8390 -0.1899 -0.5012
13215TIP3    H261137   3.843   3.946   4.428  0.4351  1.6610 -0.8262
13216TIP3   OH261138   5.545   3.078  15.636  0.3463  0.1536 -0.3642
13216TIP3    H161139   5.465   3.099  15.589  0.2851  1.6843  0.3723
13216TIP3    H261140   5.571   3.160  15.677  0.6895 -0.9886  1.8370
13217TIP3   OH261141   2.929   3.931   5.275  0.4340  0.4747  0.2930
13217TIP3    H161142   2.995   3.932   5.207  1.2882  0.5177  1.1039
13217TIP3    H261143   2.930   3.841   5.309  1.1509  0.8545  1.3179
13218TIP3   OH261144   2.784   1.678  17.148  0.0618 -0.5227  0.1416
13218TIP3    H161145   2.817   1.732  17.219  2.6582 -0.4447 -1.0256
13218TIP3    H261146   2.859   1.625  17.120 -0.5819  0.0236 -3.0496
13219TIP3   OH261147   0.968   6.341  14.278 -0.0293  0.7693  0.4362
13219TIP3    H161148   1.000   6.401  14.211  0.3127  0.5082  0.3676
13219TIP3    H261149   0.921   6.273  14.230 -0.3288  0.9221  0.5071
13220TIP3   OH261150   3.671   4.739  15.514  0.2720 -0.0131 -0.1604
13220TIP3    H161151   3.591   4.687  15.508  0.5433 -0.6091  1.0965
13220TIP3    H261152   3.742   4.676  15.503  0.5895  0.1997  0.5506
13221TIP3   OH261153   4.102   3.337   0.039  0.2318 -0.1928 -0.5578
13221TIP3    H161154   4.035   3.321   0.105  0.5459 -3.1731 -0.8040
13221TIP3    H261155   4.142   3.420   0.064 -2.3877  0.8582  0.5416
13222TIP3   OH261156   0.238   1.836   1.611 -0.0501 -0.4441 -0.3197
13222TIP3    H161157   0.270   1.831   1.521 -1.9934  0.0761 -1.1070
13222TIP3    H261158   0.219   1.745   1.635  1.3871 -0.6919 -0.0449
13223TIP3   OH261159   1.436   0.088  17.171 -0.2744  0.5422  0.1285
13223TIP3    H161160   1.520   0.110  17.129 -0.3829 -0.4004 -0.6285
13223TIP3    H261161   1.408   0.007  17.127 -2.1226  1.4146 -0.4073
13224TIP3   OH261162   5.920   3.026   4.751  0.4720 -0.2514  0.2694
13224TIP3    H161163   5.972   2.949   4.772 -0.7215 -0.8029  1.3238
13224TIP3    H261164   5.963   3.098   4.797  0.5928 -0.6065  0.7153
13225TIP3   OH261165   1.213   1.806   1.110 -0.2337 -0.3991  0.2389
13225TIP3    H161166   1.170   1.726   1.080  1.0489 -1.5268  1.2978
13225TIP3    H261167   1.297   1.777   1.145 -0.4058  1.1900  2.1806
13226TIP3   OH261168   4.752   2.102   0.815  0.0013 -0.1867  0.6498
13226TIP3    H161169   4.726   2.174   0.758 -0.6907 -1.7368 -1.1164
13226TIP3    H261170   4.735   2.134   0.904 -1.5931  1.3236 -0.1321
13227TIP3   OH261171   5.354   4.336  15.690  1.0994 -0.3793  0.0630
13227TIP3    H161172   5.323   4.338  15.780  0.2990  1.3499 -0.2122
13227TIP3    H261173   5.281   4.300  15.640  2.1279 -2.9422  0.2464
13228TIP3   OH261174   2.246   5.718   5.129  0.7115  0.1788  0.1215
13228TIP3    H161175   2.306   5.776   5.083 -1.1295  1.3838 -0.8849
13228TIP3    H261176   2.255   5.634   5.085  0.4657  0.7804 -1.1224
13229TIP3   OH261177   6.177   6.637  16.915  0.5077  0.2510  0.1721
13229TIP3    H161178   6.102   6.620  16.972  1.5712 -0.4551  1.4022
13229TIP3    H261179   6.138   6.658  16.830 -1.0689 -2.3998  0.1506
13230TIP3   OH261180   3.128   3.170  14.422 -0.4986 -0.0082  0.2890
13230TIP3    H161181   3.099   3.095  14.369 -0.4797  0.1164  0.1010
13230TIP3    H261182   3.194   3.133  14.482  1.2825  0.2841 -1.3903
13231TIP3   OH261183   0.786   0.331   4.706 -0.1327 -0.3388  0.5082
13231TIP3    H161184   0.721   0.302   4.769 -1.0813  0.2847 -0.1517
13231TIP3    H261185   0.816   0.415   4.740  0.2024 -0.5445  0.7224
13232TIP3   OH261186   5.232   1.191  17.046 -0.0963  0.2588 -0.2894
13232TIP3    H161187   5.249   1.163  16.956  0.3972 -0.2304 -0.0509
13232TIP3    H261188   5.222   1.286  17.041 -0.0712  0.2300 -0.8580
13233TIP3   OH261189   2.027   4.092   2.371  0.3563  0.3323 -0.4466
13233TIP3    H161190   2.060   4.174   2.334 -0.7300 -0.4362 -3.3695
13233TIP3    H261191   1.989   4.046   2.297  0.3829 -2.5848  1.2136
13234TIP3   OH261192   5.049   0.312   0.031  0.3296 -0.1589 -0.3479
13234TIP3    H161193   5.001   0.337   0.110 -0.3269  1.5614 -1.2470
13234TIP3    H261194   4.994   0.341  -0.042  1.2680 -1.0233 -1.4508
13235TIP3   OH261195   5.411   4.775  16.070  0.2245 -0.3752 -0.7172
13235TIP3    H161196   5.499   4.809  16.056  0.0656  1.0368  1.2920
13235TIP3    H261197   5.424   4.688  16.107  0.7723 -0.2089 -0.5190
13236TIP3   OH261198   1.254   5.262   3.541  0.5115 -0.1965 -0.5034
13236TIP3    H161199   1.331   5.319   3.548  0.5510 -0.3438  0.4092
13236TIP3    H261200   1.182   5.320   3.517  0.9228 -0.0789 -1.5277
13237TIP3   OH261201   2.770   1.547  14.959 -0.4629  0.2661  0.1125
13237TIP3    H161202   2.851   1.537  15.009  0.0971 -1.9514 -1.0959
13237TIP3    H261203   2.701   1.520  15.019  0.1639 -2.0323 -0.1006
13238TIP3   OH261204   1.839   3.610   3.486 -0.4076 -0.2973 -0.0162
13238TIP3    H161205   1.744   3.626   3.483 -0.4120 -0.4655 -0.9255
13238TIP3    H261206   1.847   3.523   3.525 -0.7551 -1.2462 -1.9557
13239TIP3   OH261207   6.205   0.504  12.415  0.1203  0.4967 -0.1680
13239TIP3    H161208   6.127   0.450  12.427  0.7915 -0.4816 -0.1408
13239TIP3    H261209   6.268   0.469  12.477  1.0814  0.3139 -1.2182
13240TIP3   OH261210   6.122   1.594  11.765  0.1221 -0.6125 -0.1696
13240TIP3    H161211   6.105   1.644  11.685  1.2315 -1.1463 -0.7598
13240TIP3    H261212   6.204   1.631  11.798 -0.6485  0.0354  1.0922
13241TIP3   OH261213   0.583   5.285   1.649 -0.4087 -1.1287  0.3356
13241TIP3    H161214   0.503   5.240   1.676 -0.0191 -1.3782  1.1040
13241TIP3    H261215   0.555   5.374   1.629 -1.3516 -1.8819 -2.0551
13242TIP3   OH261216   0.567   0.754  10.779 -0.3820 -0.4137  0.0504
13242TIP3    H161217   0.475   0.779  10.781 -0.1007  1.1651 -2.0431
13242TIP3    H261218   0.612   0.823  10.828 -0.3077 -1.3799  1.3911
13243TIP3   OH261219   5.289   1.279  15.196  0.0515 -0.0169  0.2430
13243TIP3    H161220   5.222   1.235  15.247  0.1237 -1.2109 -0.6394
13243TIP3    H261221   5.273   1.251  15.106  0.7214  0.9921 -0.2116
13244TIP3   OH261222   0.377   1.744  13.474 -0.2194  0.3478  0.5974
13244TIP3    H161223   0.428   1.683  13.527 -2.6232 -1.3999  1.0424
13244TIP3    H261224   0.395   1.830  13.513  1.5579 -0.2952  1.3285
13245TIP3   OH261225   1.779   4.195   4.623  0.4550 -0.8294 -0.2876
13245TIP3    H161226   1.838   4.270   4.626  1.7189 -1.6970 -1.6697
13245TIP3    H261227   1.794   4.148   4.704 -0.5688  0.5179  0.7330
13246TIP3   OH261228   4.228   0.784   2.471  0.4495 -0.1306 -0.2034
13246TIP3    H161229   4.289   0.767   2.543 -0.4957 -0.4465  0.5365
13246TIP3    H261230   4.277   0.760   2.392  0.5592 -2.4943  0.5129
13247TIP3   OH261231   2.195   5.445  13.785 -0.5732  0.2933  0.6080
13247TIP3    H161232   2.251   5.508  13.831  1.0411 -0.9747  0.4621
13247TIP3    H261233   2.228   5.360  13.812  0.2822 -0.5319 -2.6043
13248TIP3   OH261234   0.901   0.739   2.028 -0.2594 -0.1884  0.0032
13248TIP3    H161235   0.902   0.780   2.114  2.4556 -0.1055  0.0078
13248TIP3    H261236   0.980   0.685   2.025  0.5452  0.9369 -2.9124
13249TIP3   OH261237   2.687   5.339   4.340 -0.4936  0.1726 -0.4138
13249TIP3    H161238   2.715   5.365   4.427 -3.9173 -0.2357  0.9791
13249TIP3    H261239   2.624   5.268   4.355 -0.9795 -0.1316 -3.2516
13250TIP3   OH261240   6.376   2.524   3.836 -0.0885  0.4734  0.1281
13250TIP3    H161241   6.345   2.538   3.926 -0.7174  0.1671 -0.0334
13250TIP3    H261242   6.305   2.556   3.781  0.4000  0.8887 -0.2659
13251TIP3   OH261243   4.636   4.425   0.101  0.1762 -0.2981  0.4120
13251TIP3    H161244   4.586   4.491   0.148 -0.4648  1.1450 -2.0880
13251TIP3    H261245   4.724   4.429   0.139 -0.2001  1.0548  1.1917
13252TIP3   OH261246   2.171   5.741  12.852 -0.4029 -0.2622 -0.2823
13252TIP3    H161247   2.119   5.820  12.868 -0.1006 -0.3798  1.5235
13252TIP3    H261248   2.224   5.763  12.775 -1.6563  0.5954 -0.9341
13253TIP3   OH261249   5.563   1.078   4.368  0.0436  0.7986 -0.1240
13253TIP3    H161250   5.529   0.999   4.327  1.4366 -0.8826  1.7492
13253TIP3    H261251   5.587   1.135   4.295 -0.8594 -0.5356 -1.5331
13254TIP3   OH261252   3.959   3.298  12.360  0.1541  0.2342  0.0541
13254TIP3    H161253   3.874   3.334  12.386 -0.2350  0.5259 -1.4738
13254TIP3    H261254   3.941   3.206  12.341 -0.9112  1.0757 -4.2189
13255TIP3   OH261255   0.202   2.828   5.302  0.4447 -0.0940  0.0883
13255TIP3    H161256   0.108   2.811   5.308  0.8090 -2.9762 -0.7383
13255TIP3    H261257   0.211   2.882   5.224 -0.4371 -1.0364 -0.7040
13256TIP3   OH261258   2.111   3.423   3.056  0.2291  0.5667  0.0304
13256TIP3    H161259   2.207   3.424   3.056  0.2309  1.5778  0.6489
13256TIP3    H261260   2.088   3.455   3.143 -0.6843  2.0934 -0.7473
13257TIP3   OH261261   0.525   2.017   4.180  0.6180  0.3200 -0.1598
13257TIP3    H161262   0.555   2.016   4.271  1.9853 -0.6689 -0.5952
13257TIP3    H261263   0.555   2.101   4.145  1.4690  0.0300 -0.1315
13258TIP3   OH261264   6.531   2.654   4.651  0.1160  0.4171 -0.0279
13258TIP3    H161265   6.438   2.675   4.652 -0.5725 -2.1793 -1.5563
13258TIP3    H261266   6.559   2.671   4.561  0.7295 -0.3197  0.0153
13259TIP3   OH261267   4.250   4.164   0.507 -0.0773 -0.4277  0.2934
13259TIP3    H161268   4.327   4.175   0.450 -1.7329  0.5247 -1.9325
13259TIP3    H261269   4.228   4.254   0.534  0.3088 -0.8138  1.9978
13260TIP3   OH261270   5.678   3.277  15.887  0.0561  0.3799 -0.4987
13260TIP3    H161271   5.756   3.285  15.942 -0.0515 -0.2204 -0.2542
13260TIP3    H261272   5.704   3.316  15.803 -0.4876  3.4696  0.6447
13261TIP3   OH261273   5.140   2.703   3.415  0.7219  0.2335 -0.5549
13261TIP3    H161274   5.110   2.617   3.444 -1.0650  1.1033  0.2933
13261TIP3    H261275   5.230   2.709   3.447  0.9628 -1.3995 -0.8436
13262TIP3   OH261276   5.608   0.297  11.897 -0.3336  0.4654  0.1970
13262TIP3    H161277   5.672   0.272  11.964 -0.0550 -0.5372 -0.4263
13262TIP3    H261278   5.660   0.334  11.826 -0.5682  0.8576  0.2227
13263TIP3   OH261279   0.979   2.901   1.041  0.4885 -0.0974  0.0947
13263TIP3    H161280   0.956   2.972   0.981 -0.2075 -0.2297  0.1949
13263TIP3    H261281   0.937   2.824   1.002  1.7159 -0.5816 -0.3354
13264TIP3   OH261282   4.373   3.587  17.110  0.0954 -0.2258 -0.2938
13264TIP3    H161283   4.426   3.663  17.090  1.0120  0.1912  3.0398
13264TIP3    H261284   4.323   3.613  17.188 -0.5992 -2.5574  0.1194
13265TIP3   OH261285   2.425   2.213   2.063 -0.1806  0.4167 -0.2755
13265TIP3    H161286   2.421   2.308   2.052  2.9726  0.7404  0.3885
13265TIP3    H261287   2.410   2.198   2.156  0.8987  0.4662 -0.0779
13266TIP3   OH261288   6.031   2.726   5.344 -0.0510  0.7209  0.2782
13266TIP3    H161289   6.124   2.715   5.325  0.1951  2.6309  0.2608
13266TIP3    H261290   6.020   2.691   5.432  0.6661  0.4512  0.2658
13267TIP3   OH261291   0.215   5.622   0.908 -0.1657  0.4594 -0.0195
13267TIP3    H161292   0.158   5.632   0.833  0.6117  0.5564 -0.6131
13267TIP3    H261293   0.216   5.528   0.926  2.5422 -0.1211 -2.5010
13268TIP3   OH261294   1.047   0.231  14.710  0.1776 -0.9195 -0.6745
13268TIP3    H161295   1.054   0.273  14.795 -1.5388 -0.5559 -0.6704
13268TIP3    H261296   1.062   0.303  14.647 -3.8179  0.1255 -0.6837
13269TIP3   OH261297   4.464   1.475  11.356  0.2645  0.0891  0.1011
13269TIP3    H161298   4.408   1.547  11.385 -0.9916 -0.3641 -1.0546
13269TIP3    H261299   4.548   1.516  11.336 -0.0711  1.0293  0.5692
13270TIP3   OH261300   1.800   2.337   0.250  0.2370  0.3216 -0.1733
13270TIP3    H161301   1.786   2.328   0.344 -0.1943  0.8421 -0.1844
13270TIP3    H261302   1.852   2.260   0.226  0.0755  0.0184  0.4314
13271TIP3   OH261303   4.613   4.230  15.305 -0.0361 -0.1658  0.4553
13271TIP3    H161304   4.641   4.276  15.384 -2.5914  2.1073  0.1760
13271TIP3    H261305   4.645   4.141  15.316  0.8054  0.4087  3.4224
13272TIP3   OH261306   3.467   0.463  12.176 -0.4182 -1.2300  0.1844
13272TIP3    H161307   3.449   0.369  12.173  0.2648 -1.5115  2.7102
13272TIP3    H261308   3.562   0.469  12.165 -0.2908 -0.9695  1.3281
13273TIP3   OH261309   4.905   1.982  14.906  0.1157  0.6094 -0.5804
13273TIP3    H161310   4.828   1.995  14.961  0.0434  0.0282 -0.5341
13273TIP3    H261311   4.978   2.013  14.960 -0.2430  2.7952 -1.2886
13274TIP3   OH261312   1.643   6.778  11.595 -0.1718 -0.1152 -0.2271
13274TIP3    H161313   1.629   6.851  11.536 -0.4100  0.9273  1.0823
13274TIP3    H261314   1.588   6.797  11.671 -0.3135 -1.7045  0.1052
13275TIP3   OH261315   5.954   0.219   0.174 -0.2069  0.0152  0.1937
13275TIP3    H161316   6.028   0.162   0.155 -0.3318 -0.4036  0.9359
13275TIP3    H261317   5.958   0.286   0.106  0.5708 -0.2680 -0.0548
13276TIP3   OH261318   3.197   4.181   1.048  0.3837 -0.3798  0.0011
13276TIP3    H161319   3.186   4.133   1.130 -1.3380  2.2412  1.4325
13276TIP3    H261320   3.111   4.177   1.007  1.3212 -1.9993 -1.9816
13277TIP3   OH261321   3.106   0.126   3.841 -0.3614 -0.1613 -0.2968
13277TIP3    H161322   3.145   0.198   3.792  0.3708 -0.5732 -0.3399
13277TIP3    H261323   3.018   0.117   3.806  0.1224 -0.3982 -1.4811
13278TIP3   OH261324   6.156   3.902   2.596  0.4701 -1.1938 -0.3812
13278TIP3    H161325   6.152   3.818   2.640 -0.3418 -2.0168 -1.9436
13278TIP3    H261326   6.107   3.962   2.654 -2.1989 -2.6444 -0.9557
13279TIP3   OH261327   0.791   3.654  13.654  0.9734 -0.0718  0.4971
13279TIP3    H161328   0.834   3.727  13.608  0.7800 -0.6091 -0.5634
13279TIP3    H261329   0.708   3.691  13.685  0.5699 -0.0032 -0.6220
13280TIP3   OH261330   1.736   2.144  17.238  0.1576 -0.1678  0.3122
13280TIP3    H161331   1.780   2.177  17.160  1.2787 -2.6075 -0.2010
13280TIP3    H261332   1.799   2.081  17.275 -1.6036 -1.3627  1.4046
13281TIP3   OH261333   1.911   2.279   5.936 -0.4314 -0.2190  0.0170
13281TIP3    H161334   1.950   2.220   5.871  1.6462  1.7038 -0.6254
13281TIP3    H261335   1.816   2.272   5.920 -0.4484 -4.2224  0.8551
13282TIP3   OH261336   6.106   0.926   6.689 -0.3157 -0.2147  0.6009
13282TIP3    H161337   6.164   0.990   6.731 -0.0405  1.3212 -1.8998
13282TIP3    H261338   6.165   0.855   6.663 -0.0998 -0.1253  0.8352
13283TIP3   OH261339   6.818   2.766  14.427 -0.5212 -0.1789 -0.1774
13283TIP3    H161340   6.727   2.780  14.400 -0.4886  0.7892  0.1631
13283TIP3    H261341   6.869   2.815  14.363 -0.1530 -1.6308 -1.0289
13284TIP3   OH261342   4.140   5.442  16.514  0.5416  0.3102  0.4192
13284TIP3    H161343   4.121   5.373  16.450  0.9675  0.6340 -0.0632
13284TIP3    H261344   4.054   5.474  16.541  0.2146 -1.9376  2.3928
13285TIP3   OH261345   4.213   2.792  16.614  0.3912  0.7591 -0.0208
13285TIP3    H161346   4.139   2.827  16.565 -0.8276  0.1696  1.3303
13285TIP3    H261347   4.252   2.868  16.657 -0.5493  0.8352  0.7089
13286TIP3   OH261348   5.856   4.555  16.674 -0.3363  0.1863  0.0956
13286TIP3    H161349   5.810   4.472  16.662  0.3455  0.0703 -2.1082
13286TIP3    H261350   5.922   4.536  16.741 -1.0881 -0.6353  0.6206
13287TIP3   OH261351   6.575   0.319   3.425  0.1987  0.3919  0.2273
13287TIP3    H161352   6.623   0.389   3.379 -2.8473  1.8916 -0.9289
13287TIP3    H261353   6.558   0.254   3.357 -1.1616  0.8999  0.0405
13288TIP3   OH261354   6.220   0.788   4.008  0.5240  0.1866 -0.5695
13288TIP3    H161355   6.192   0.765   4.096 -1.3973 -0.2136 -1.2397
13288TIP3    H261356   6.260   0.709   3.973 -0.2511 -0.1818 -0.6345
13289TIP3   OH261357   1.734   0.108  14.109  0.1288  0.1367  0.5968
13289TIP3    H161358   1.656   0.157  14.083  0.5847  0.6953  0.2527
13289TIP3    H261359   1.788   0.105  14.029  0.1503 -0.8398  0.6449
13290TIP3   OH261360   4.587   1.235   0.895 -0.7746  0.0122 -0.6643
13290TIP3    H161361   4.547   1.321   0.912 -0.2056  0.1790 -0.1159
13290TIP3    H261362   4.641   1.218   0.972  1.4609  0.5326 -1.9897
13291TIP3   OH261363   1.061   1.069   3.841 -0.0110 -0.8939  0.8421
13291TIP3    H161364   0.975   1.100   3.814  0.3734 -0.8376 -0.3938
13291TIP3    H261365   1.072   1.102   3.930 -1.0583 -0.4866  0.8269
13292TIP3   OH261366   4.341   5.699  12.726  0.3843  0.4434  0.3436
13292TIP3    H161367   4.259   5.690  12.678  0.1544 -0.0491  0.8284
13292TIP3    H261368   4.315   5.727  12.813  0.7678  0.7845  0.3530
13293TIP3   OH261369   0.934   6.104   1.020 -0.0013 -0.3715 -0.3060
13293TIP3    H161370   0.963   6.182   0.973  1.5042 -0.8121 -0.1523
13293TIP3    H261371   0.867   6.066   0.963  0.1246  0.3609 -0.9644
13294TIP3   OH261372   4.077   4.137   3.654 -0.4974  0.4945 -0.2458
13294TIP3    H161373   3.997   4.187   3.640 -1.4968 -0.5423  1.3807
13294TIP3    H261374   4.133   4.196   3.705 -1.7122  0.0285  1.7671
13295TIP3   OH261375   4.769   3.187  11.263  0.3642 -0.6681 -0.1807
13295TIP3    H161376   4.730   3.224  11.342 -0.2471 -1.0507 -0.3025
13295TIP3    H261377   4.780   3.094  11.283  1.2630 -0.5633 -0.1303
13296TIP3   OH261378   5.463   1.337  13.018 -0.2135  0.2369 -0.2025
13296TIP3    H161379   5.440   1.249  12.989  2.4851 -0.5638 -0.2260
13296TIP3    H261380   5.441   1.338  13.111  0.8889 -0.9782  0.1081
13297TIP3   OH261381   0.489   5.484  13.574 -0.1686 -1.3264  0.0466
13297TIP3    H161382   0.439   5.541  13.632 -1.5097 -1.5511 -0.8501
13297TIP3    H261383   0.488   5.398  13.617  0.4554 -1.0693  0.5926
13298TIP3   OH261384   0.118   1.164  15.004  0.0468  0.0246 -0.3969
13298TIP3    H161385   0.108   1.108  14.926  0.5448  1.0627 -1.2260
13298TIP3    H261386   0.048   1.229  14.996  1.5057  1.5423 -1.2228
13299TIP3   OH261387   4.540   4.924  11.245  0.3544  0.2971  0.7892
13299TIP3    H161388   4.527   4.836  11.280  1.6408 -0.3323 -0.2179
13299TIP3    H261389   4.597   4.911  11.169  0.0956  1.9426  0.2823
13300TIP3   OH261390   4.476   4.681   1.764  0.0481 -0.6844 -0.6736
13300TIP3    H161391   4.380   4.671   1.764  0.0798 -1.0711  0.0678
13300TIP3    H261392   4.509   4.598   1.731  0.1891 -1.6224  1.6335
13301TIP3   OH261393   3.110   4.813  17.206 -0.5022 -0.4059  0.6219
13301TIP3    H161394   3.085   4.774  17.122  1.4882  0.7160 -0.5784
13301TIP3    H261395   3.093   4.744  17.270 -1.3466 -1.5803 -0.7956
13302TIP3   OH261396   1.632   5.462  13.902  0.7012 -0.4523  0.3185
13302TIP3    H161397   1.663   5.484  13.814  0.5594  0.2211  0.4315
13302TIP3    H261398   1.711   5.462  13.956  0.9179 -1.7187  0.0433
13303TIP3   OH261399   3.219   4.426   0.919 -0.3384 -0.4024  0.7537
13303TIP3    H161400   3.158   4.437   0.992  0.5819 -0.6119  1.5769
13303TIP3    H261401   3.263   4.342   0.937  1.9656  0.8935  1.5449
13304TIP3   OH261402   4.858   1.735  16.980  0.6334 -0.3745  0.8625
13304TIP3    H161403   4.780   1.763  17.029 -1.1303  0.8925 -2.3464
13304TIP3    H261404   4.843   1.642  16.963 -0.6743  0.0178 -0.3744
13305TIP3   OH261405   6.069   4.697  12.691 -0.0843 -0.2578 -0.0481
13305TIP3    H161406   6.082   4.640  12.766  0.9843  0.8688  0.6639
13305TIP3    H261407   6.155   4.706  12.651 -0.7787 -1.5732 -2.0175
13306TIP3   OH261408   3.095   3.216  11.542  0.3648  1.1474  0.2026
13306TIP3    H161409   3.125   3.133  11.505 -0.2598  1.6595 -1.5676
13306TIP3    H261410   3.038   3.191  11.615  2.3994  0.1190  1.5138
13307TIP3   OH261411   6.448   3.953  15.746 -0.3790  0.2951 -0.1509
13307TIP3    H161412   6.355   3.970  15.733 -0.5507  0.3780  1.1466
13307TIP3    H261413   6.457   3.935  15.839  0.2101 -4.0056 -0.8155
13308TIP3   OH261414   6.110   4.758   5.539  0.2173  0.1682  0.0752
13308TIP3    H161415   6.108   4.688   5.473 -1.9821 -0.9225  1.1981
13308TIP3    H261416   6.018   4.781   5.552  0.3238 -1.0458  4.1040
13309TIP3   OH261417   0.228   0.433  13.673  0.0174 -0.3277 -0.0649
13309TIP3    H161418   0.167   0.443  13.600  0.2900  1.0686 -0.1160
13309TIP3    H261419   0.228   0.339  13.691 -1.1479 -0.5110 -0.9172
13310TIP3   OH261420   2.493   2.794   3.124  0.3746 -0.3803 -0.5765
13310TIP3    H161421   2.426   2.775   3.059 -0.8204  0.9517  0.1960
13310TIP3    H261422   2.549   2.859   3.082 -1.8041  2.3764  0.4095
13311TIP3   OH261423   4.037   3.790  17.182  0.0821 -0.0372  0.5483
13311TIP3    H161424   4.054   3.697  17.168 -1.0313 -0.0690 -0.8597
13311TIP3    H261425   3.986   3.793  17.263 -0.6615 -0.7547  0.1229
13312TIP3   OH261426   6.054   4.143  11.160  0.0909  0.4730  0.3950
13312TIP3    H161427   6.035   4.060  11.203 -0.4559  1.0600  1.3223
13312TIP3    H261428   6.030   4.210  11.225  0.9132  1.3465 -0.1751
13313TIP3   OH261429   0.426   4.336  15.386 -0.2845  0.2640 -0.2984
13313TIP3    H161430   0.369   4.260  15.373  1.3946 -1.0374 -0.4218
13313TIP3    H261431   0.498   4.302  15.439 -0.0437  2.0773  0.5968
13314TIP3   OH261432   2.773   4.155   1.873 -0.1633 -0.2061 -0.5142
13314TIP3    H161433   2.777   4.083   1.935  0.2784 -0.3892 -0.7473
13314TIP3    H261434   2.795   4.232   1.924  2.4141 -0.6300 -0.8500
13315TIP3   OH261435   0.418   6.587  12.232 -0.4875  0.0228 -0.5006
13315TIP3    H161436   0.487   6.590  12.298 -0.2461 -1.9268 -0.6010
13315TIP3    H261437   0.464   6.596  12.148 -0.4006 -0.6619 -0.5355
13316TIP3   OH261438   6.600   1.228   4.034 -0.0665  0.3251 -0.3244
13316TIP3    H161439   6.506   1.210   4.031 -0.1098  0.6984 -1.8176
13316TIP3    H261440   6.627   1.199   4.122 -1.8840  1.8271  0.7998
13317TIP3   OH261441   4.744   5.733   4.519 -0.2062  0.0985 -0.3748
13317TIP3    H161442   4.760   5.660   4.459  1.9194  0.2209 -0.0426
13317TIP3    H261443   4.664   5.709   4.565 -1.1980 -0.5962 -2.3423
13318TIP3   OH261444   6.167   3.180  13.609 -0.0853 -0.1773 -0.3480
13318TIP3    H161445   6.234   3.217  13.667  0.4460 -1.4603 -0.1131
13318TIP3    H261446   6.193   3.210  13.522  1.6111 -1.7261 -0.4381
13319TIP3   OH261447   2.672   4.781  12.620 -0.3248 -0.5185 -0.0001
13319TIP3    H161448   2.659   4.793  12.526  0.1446  0.3396  0.0285
13319TIP3    H261449   2.682   4.870  12.654  1.8318 -0.8857  0.4991
13320TIP3   OH261450   4.997   3.461   4.914  0.0653 -0.0852  0.3811
13320TIP3    H161451   4.981   3.372   4.884 -0.1336 -0.7383  2.2542
13320TIP3    H261452   4.909   3.497   4.929  0.1571 -0.1352  1.0910
13321TIP3   OH261453   0.274   2.821  16.356  0.1148 -0.6642  0.0337
13321TIP3    H161454   0.252   2.791  16.268  2.0233  1.1484 -1.1575
13321TIP3    H261455   0.193   2.857  16.391 -0.4266 -0.4052 -1.4379
13322TIP3   OH261456   3.831   2.572  13.165  0.6173  0.1884  0.4418
13322TIP3    H161457   3.817   2.484  13.200 -0.9060  0.8726  1.6313
13322TIP3    H261458   3.790   2.630  13.228  1.6799  1.7919 -0.2762
13323TIP3   OH261459   1.792   1.120  13.435  0.3430 -0.5277  0.3843
13323TIP3    H161460   1.780   1.052  13.369 -1.7997 -0.0437  0.1806
13323TIP3    H261461   1.779   1.075  13.518  1.2454 -0.7988  0.3824
13324TIP3   OH261462   6.299   5.128   5.494  0.3178  0.3312  0.5701
13324TIP3    H161463   6.313   5.215   5.455  0.7070 -0.0530 -0.1689
13324TIP3    H261464   6.216   5.098   5.457  0.0292  0.5097  1.0636
13325TIP3   OH261465   5.651   2.631  11.556  0.1972 -0.0271 -0.0127
13325TIP3    H161466   5.563   2.593  11.563  0.1367 -0.0860 -0.9551
13325TIP3    H261467   5.670   2.631  11.463  1.7356 -1.2194  0.2541
13326TIP3   OH261468   4.023   0.405   5.395  0.0188 -0.5999 -0.3611
13326TIP3    H161469   4.038   0.383   5.303  0.0817  0.6582 -0.6575
13326TIP3    H261470   3.982   0.491   5.394  0.3844 -0.3874  0.7978
13327TIP3   OH261471   2.492   1.319  15.173 -0.4294  0.2124 -0.0872
13327TIP3    H161472   2.499   1.407  15.137 -0.2026  0.4608  0.5505
13327TIP3    H261473   2.401   1.312  15.203 -0.3285  0.3789  0.2512
13328TIP3   OH261474   2.007   2.970  13.227 -0.2634  0.2453 -0.0708
13328TIP3    H161475   2.040   2.954  13.138  0.9295 -0.8392  0.5265
13328TIP3    H261476   2.062   3.041  13.260  1.7787 -1.6799  0.9880
13329TIP3   OH261477   6.404   2.230  13.421 -0.2302  0.3078  0.2396
13329TIP3    H161478   6.481   2.274  13.458  0.7749  0.6440 -2.0138
13329TIP3    H261479   6.330   2.282  13.450  0.4221  0.2577  2.0997
13330TIP3   OH261480   3.772   2.889   2.689  0.1821 -0.2240  0.1708
13330TIP3    H161481   3.798   2.980   2.669 -1.6939  0.9223  2.4863
13330TIP3    H261482   3.855   2.841   2.690  1.6230  2.0838  1.7450
13331TIP3   OH261483   3.406   6.158   2.618  0.2865 -0.2904 -0.1702
13331TIP3    H161484   3.384   6.251   2.609  0.7007 -0.1984 -0.2232
13331TIP3    H261485   3.481   6.145   2.560  1.2664 -0.3053  1.0574
13332TIP3   OH261486   2.991   5.423   1.873 -0.3417  0.3488  0.6158
13332TIP3    H161487   2.994   5.375   1.955 -0.7743  0.4305  0.6822
13332TIP3    H261488   3.078   5.462   1.865  0.0484 -0.5350  0.4994
13333TIP3   OH261489   4.832   4.798   2.100 -0.5138 -0.0447 -0.2307
13333TIP3    H161490   4.865   4.836   2.019  0.8455 -1.5332 -0.4261
13333TIP3    H261491   4.744   4.767   2.077 -0.2738 -0.1558 -1.0427
13334TIP3   OH261492   2.960   5.689  16.704  0.5245  0.0051  0.2472
13334TIP3    H161493   3.005   5.771  16.723 -1.2028  0.7759  1.3598
13334TIP3    H261494   2.901   5.710  16.632 -0.8855  0.1626  1.3979
13335TIP3   OH261495   0.330   2.243   3.851  0.2698 -0.8345  0.3367
13335TIP3    H161496   0.309   2.206   3.937  0.6580  0.5689  1.0613
13335TIP3    H261497   0.420   2.274   3.859  0.1252 -0.1861 -0.4028
13336TIP3   OH261498   3.272   6.183  15.736  0.2272 -0.6524 -0.3048
13336TIP3    H161499   3.181   6.157  15.720  0.3106 -1.2851  0.2334
13336TIP3    H261500   3.306   6.206  15.649  0.0175 -1.9454 -0.7422
13337TIP3   OH261501   1.894   6.098   5.473  0.4426  0.1862  0.6785
13337TIP3    H161502   1.982   6.087   5.437  0.5338  0.4024  0.8351
13337TIP3    H261503   1.889   6.190   5.497  0.0920  0.2250  0.4607
13338TIP3   OH261504   1.338   4.058  14.580 -0.4154 -0.4739  0.1463
13338TIP3    H161505   1.297   3.986  14.532 -0.3966  0.3808 -1.2141
13338TIP3    H261506   1.431   4.053  14.556 -0.4981  0.3036 -0.4083
13339TIP3   OH261507   3.723   3.764  14.404 -0.4136  0.0742 -0.7334
13339TIP3    H161508   3.699   3.680  14.442  2.2489  0.6369  2.7430
13339TIP3    H261509   3.678   3.829  14.459  1.4925  0.9038 -0.0572
13340TIP3   OH261510   4.073   6.424   5.826 -0.3108 -0.4898 -0.8240
13340TIP3    H161511   4.109   6.513   5.822  0.8995 -0.8497  0.8286
13340TIP3    H261512   4.132   6.372   5.771  0.8899 -0.8079  0.7076
13341TIP3   OH261513   2.736   5.841   0.018 -0.3067 -0.4960 -0.0712
13341TIP3    H161514   2.800   5.892  -0.031  0.2290 -1.7454 -0.7231
13341TIP3    H261515   2.759   5.853   0.110  0.5359 -0.4935 -0.2772
13342TIP3   OH261516   3.884   4.398  13.188 -0.0044  0.0219  0.1619
13342TIP3    H161517   3.827   4.461  13.146 -0.6783 -0.2655  0.6223
13342TIP3    H261518   3.970   4.411  13.147 -0.2122  0.9924  0.0160
13343TIP3   OH261519   5.921   3.363   4.783  0.2966 -0.3095  0.5722
13343TIP3    H161520   5.971   3.334   4.707  1.0927  1.7352  0.2608
13343TIP3    H261521   5.975   3.338   4.858  0.8254  0.0722  0.3271
13344TIP3   OH261522   0.321   2.500   2.107  0.0622 -0.3022 -0.9833
13344TIP3    H161523   0.338   2.430   2.043  0.4823  1.3839 -2.7872
13344TIP3    H261524   0.406   2.542   2.120 -0.5183  1.0596 -1.4088
13345TIP3   OH261525   2.886   2.905  12.094 -0.2187 -0.1928  0.0101
13345TIP3    H161526   2.899   2.812  12.109  0.5499 -0.2550 -0.9196
13345TIP3    H261527   2.959   2.948  12.138  0.6847 -0.2128 -1.3919
13346TIP3   OH261528   4.411   3.366  10.627 -0.0556 -0.3424  0.1710
13346TIP3    H161529   4.479   3.432  10.615  0.8287 -1.3101 -0.3062
13346TIP3    H261530   4.457   3.282  10.621 -1.1749 -1.0159  0.5899
13347TIP3   OH261531   4.133   6.816   4.551 -0.0442 -0.1171 -0.1244
13347TIP3    H161532   4.104   6.817   4.460  1.1863 -0.2809 -0.5383
13347TIP3    H261533   4.070   6.760   4.596 -0.9930  0.4265 -0.7517
13348TIP3   OH261534   3.510   4.345  11.606  0.3706  0.5553 -0.4566
13348TIP3    H161535   3.583   4.398  11.576  1.4217 -0.0152  0.9532
13348TIP3    H261536   3.550   4.261  11.631 -0.4305  0.8069  1.9833
13349TIP3   OH261537   6.535   6.152  16.144 -0.0576 -0.3635  0.1718
13349TIP3    H161538   6.505   6.080  16.089  0.2167 -0.2776 -0.0933
13349TIP3    H261539   6.536   6.228  16.086 -2.3352  0.3336  0.9486
13350TIP3   OH261540   0.863   1.474   1.665 -0.6108  0.0724 -0.3719
13350TIP3    H161541   0.901   1.554   1.701 -0.4096  0.6873 -1.8526
13350TIP3    H261542   0.839   1.498   1.575 -1.8799 -1.1295 -0.3740
13351TIP3   OH261543   1.851   6.304  11.231  0.2970  0.1316  0.1210
13351TIP3    H161544   1.764   6.329  11.200  0.6565 -0.9972 -2.0414
13351TIP3    H261545   1.904   6.382  11.218  0.1798  0.0184 -1.1684
13352TIP3   OH261546   4.323   5.825  14.985  0.1796 -0.2894  0.0174
13352TIP3    H161547   4.350   5.916  14.985 -0.8598  0.0619 -1.6255
13352TIP3    H261548   4.227   5.828  14.990 -0.0101 -1.1570 -2.0163
13353TIP3   OH261549   0.057   0.257   4.738  0.3426  0.0707  0.4190
13353TIP3    H161550   0.020   0.172   4.713  0.5717  0.1272 -0.1269
13353TIP3    H261551   0.037   0.265   4.831  0.0202 -0.4297  0.3991
13354TIP3   OH261552   1.039   0.979  12.912  0.0684 -0.2541 -0.4955
13354TIP3    H161553   1.024   0.894  12.871  2.2900 -0.7815 -0.3340
13354TIP3    H261554   1.114   1.016  12.865  0.0738  0.9607  0.4102
13355TIP3   OH261555   5.786   1.944   3.707  0.0402  0.1640  0.2367
13355TIP3    H161556   5.819   2.017   3.654 -0.6608  0.8087  0.6644
13355TIP3    H261557   5.865   1.895   3.732  0.4296  0.1936 -0.8886
13356TIP3   OH261558   2.147   3.921  16.805  0.1015 -0.7011  0.3374
13356TIP3    H161559   2.064   3.915  16.851 -1.6628 -1.5098 -2.6621
13356TIP3    H261560   2.214   3.912  16.874 -2.2688 -1.6973  2.6779
13357TIP3   OH261561   4.579   5.165   5.030 -0.1703 -0.1050  0.1139
13357TIP3    H161562   4.536   5.080   5.045 -0.2730 -0.2597 -0.9614
13357TIP3    H261563   4.669   5.142   5.007 -0.3815  0.0206 -0.8930
13358TIP3   OH261564   4.787   5.731  11.960 -0.2756  0.2558  0.0896
13358TIP3    H161565   4.780   5.787  11.883 -2.3103 -0.8723 -0.6181
13358TIP3    H261566   4.746   5.781  12.030 -1.0888  0.1181 -0.2773
13359TIP3   OH261567   6.564   0.280   5.907 -0.1364 -0.0593  0.5290
13359TIP3    H161568   6.646   0.289   5.955 -0.8453 -2.3805  2.3957
13359TIP3    H261569   6.509   0.351   5.940  0.9291  1.2673 -0.4451
13360TIP3   OH261570   3.142   3.266   3.391 -0.0502 -0.0929 -0.1050
13360TIP3    H161571   3.112   3.226   3.309  2.6635  0.3379 -1.4192
13360TIP3    H261572   3.160   3.192   3.449 -1.0071 -0.4499 -0.2454
13361TIP3   OH261573   4.268   6.286  12.910  0.4636  0.2055 -0.1781
13361TIP3    H161574   4.306   6.337  12.839  0.0762  0.2062 -0.3870
13361TIP3    H261575   4.311   6.318  12.989  1.7757 -0.6265 -0.5277
13362TIP3   OH261576   6.545   4.026   1.332 -0.2349  0.3617  0.3535
13362TIP3    H161577   6.640   4.026   1.342 -0.1646 -0.0034 -0.2604
13362TIP3    H261578   6.527   3.953   1.273 -1.0221 -0.4087  1.5050
13363TIP3   OH261579   4.731   4.116   5.214 -0.3345  0.2602 -0.0926
13363TIP3    H161580   4.676   4.120   5.293 -1.0738  1.5928 -0.6392
13363TIP3    H261581   4.792   4.044   5.230 -1.4724 -0.4805  1.0470
13364TIP3   OH261582   1.430   1.350   5.076 -0.4802 -0.8411  0.3960
13364TIP3    H161583   1.475   1.283   5.129 -0.2700 -1.4904 -0.5705
13364TIP3    H261584   1.361   1.383   5.133  1.2499  0.2567  1.9812
13365TIP3   OH261585   2.645   0.340  12.513  0.4080  0.3050 -0.5234
13365TIP3    H161586   2.728   0.379  12.539 -0.2561  0.1109  2.2027
13365TIP3    H261587   2.582   0.372  12.578 -1.4407 -0.3772 -1.8888
13366TIP3   OH261588   5.982   3.453   4.379  0.0375  0.3698 -0.2888
13366TIP3    H161589   6.071   3.487   4.375  0.1137  0.2680  0.3900
13366TIP3    H261590   5.926   3.530   4.388 -0.0390  0.5108 -1.7521
13367TIP3   OH261591   2.848   1.852   2.282 -0.5082  0.1132  0.0905
13367TIP3    H161592   2.825   1.767   2.320 -2.0682  0.4648 -0.0047
13367TIP3    H261593   2.906   1.830   2.209 -1.5148 -0.9429 -0.4298
13368TIP3   OH261594   4.694   3.720  12.310  0.2112  0.4798  0.1190
13368TIP3    H161595   4.673   3.626  12.309  1.0140  0.2828  0.9738
13368TIP3    H261596   4.783   3.724  12.343  0.3244  1.5309 -0.2979
13369TIP3   OH261597   2.949   2.384   0.745  0.3752 -0.2811  0.6059
13369TIP3    H161598   2.947   2.346   0.832 -0.6213 -1.3992  0.1187
13369TIP3    H261599   2.970   2.311   0.687  2.5580  0.7287  0.0211
13370TIP3   OH261600   2.257   5.447   1.413 -0.5720  0.2964 -0.4892
13370TIP3    H161601   2.228   5.400   1.491  2.4983  2.3627  2.1462
13370TIP3    H261602   2.325   5.391   1.376  1.1659  1.2932  1.0632
13371TIP3   OH261603   6.093   5.494   4.164  0.8037 -0.3776 -0.2388
13371TIP3    H161604   6.112   5.581   4.131  0.7546  0.7633  2.4360
13371TIP3    H261605   5.997   5.492   4.173  0.9560  0.6824  2.8119
13372TIP3   OH261606   6.024   3.902  12.748 -0.1455 -0.0498 -0.4371
13372TIP3    H161607   6.054   3.993  12.755  0.6792 -0.3610  0.3069
13372TIP3    H261608   6.088   3.860  12.691  0.6107 -0.6125  0.7873
13373TIP3   OH261609   3.041   5.151  15.615 -0.1738  0.1807  0.2621
13373TIP3    H161610   3.038   5.217  15.546  0.8940  1.0127  0.9817
13373TIP3    H261611   3.108   5.182  15.675  0.2870 -1.5154  0.6733
13374TIP3   OH261612   0.663   1.780  16.108  0.0289 -0.2530 -0.0620
13374TIP3    H161613   0.736   1.758  16.050  0.0202  1.6189 -0.8508
13374TIP3    H261614   0.604   1.705  16.102  1.2494 -1.2162 -0.4443
13375TIP3   OH261615   0.967   2.390  11.908 -0.2659 -0.5412 -0.4616
13375TIP3    H161616   0.884   2.342  11.901 -0.7669  0.4672 -2.0388
13375TIP3    H261617   1.031   2.333  11.866 -0.3497 -0.9115 -0.0941
13376TIP3   OH261618   0.019   3.851  12.870  0.1785  0.1056 -0.5416
13376TIP3    H161619   0.077   3.883  12.801 -1.7564  1.7819 -1.5062
13376TIP3    H261620  -0.069   3.865  12.836 -0.9208  1.9194  2.5995
13377TIP3   OH261621   3.254   0.629  13.218 -0.6000  0.0709 -0.2790
13377TIP3    H161622   3.219   0.589  13.138 -1.5022  0.3849 -0.0490
13377TIP3    H261623   3.272   0.720  13.193  2.3113 -0.5942 -1.0680
13378TIP3   OH261624   3.755   3.519   3.207 -0.4819 -0.1556  0.4150
13378TIP3    H161625   3.726   3.567   3.285 -1.4830 -0.2240  0.0908
13378TIP3    H261626   3.680   3.464   3.183  0.4943 -1.6376  0.5704
13379TIP3   OH261627   4.630   0.844   0.270  0.3485 -0.1426  0.7893
13379TIP3    H161628   4.624   0.922   0.326 -5.0156  0.1708  0.3407
13379TIP3    H261629   4.610   0.876   0.182  1.3362 -1.6459 -0.0267
13380TIP3   OH261630   6.254   1.006   1.856  0.2029  0.0183 -0.3675
13380TIP3    H161631   6.314   0.937   1.882 -0.2564 -0.1009  0.4261
13380TIP3    H261632   6.190   0.962   1.800  0.5494  0.0415 -0.7904
13381TIP3   OH261633   2.557   1.363  15.991 -0.0659 -0.4573 -0.1376
13381TIP3    H161634   2.472   1.329  16.020 -0.5492  0.7333 -0.1381
13381TIP3    H261635   2.621   1.309  16.038 -0.8246  0.4026  1.9719
13382TIP3   OH261636   4.557   2.768   0.366  0.3661 -0.2131 -0.2362
13382TIP3    H161637   4.582   2.829   0.297  0.4533 -1.5417 -1.4150
13382TIP3    H261638   4.625   2.778   0.433  0.2906  1.0682 -0.3109
13383TIP3   OH261639   3.872   2.138  11.567 -0.5680 -0.7876 -0.7939
13383TIP3    H161640   3.805   2.113  11.503  0.8649 -3.3296 -1.4314
13383TIP3    H261641   3.952   2.146  11.515 -0.3347  2.5537 -0.1160
13384TIP3   OH261642   0.088   6.014  13.395 -0.1704  0.1306 -0.4635
13384TIP3    H161643   0.070   6.097  13.350 -0.9642  0.1658 -0.0991
13384TIP3    H261644   0.036   5.949  13.347 -0.0045 -0.0574 -0.3900
13385TIP3   OH261645   1.597   3.275  11.234 -0.1326 -0.3481 -0.3016
13385TIP3    H161646   1.680   3.260  11.279 -0.3681 -0.9736 -0.0593
13385TIP3    H261647   1.610   3.237  11.147 -0.3829 -1.0575 -0.0365
13386TIP3   OH261648   2.421   2.239   6.528 -0.1651  0.3544  0.0606
13386TIP3    H161649   2.395   2.164   6.582 -1.3676 -0.3185 -1.3548
13386TIP3    H261650   2.427   2.312   6.589  2.7085 -1.1605  1.7847
13387TIP3   OH261651   3.953   6.236   0.197  0.0240  0.0412 -0.0876
13387TIP3    H161652   3.891   6.289   0.247 -1.7249  0.0024 -2.0855
13387TIP3    H261653   3.935   6.146   0.226 -0.7486  0.0485 -0.5174
13388TIP3   OH261654   4.135   2.766  10.961  0.3148  0.2341  0.2723
13388TIP3    H161655   4.049   2.731  10.984  0.0377 -0.4536 -1.6397
13388TIP3    H261656   4.140   2.758  10.866  2.2121  0.9495  0.2619
13389TIP3   OH261657   6.019   1.404   5.233 -0.1714  0.1026 -0.0554
13389TIP3    H161658   6.012   1.475   5.170 -0.6805 -1.2368 -1.5900
13389TIP3    H261659   6.038   1.326   5.180 -0.3116 -1.0400  1.4784
13390TIP3   OH261660   5.345   6.817  15.125  0.6658 -0.2885 -0.0881
13390TIP3    H161661   5.336   6.913  15.126 -0.3252 -0.3635  1.5666
13390TIP3    H261662   5.332   6.791  15.216  1.6740 -1.9545 -0.3883
13391TIP3   OH261663   3.686   5.551   3.771 -0.1177 -0.4325 -0.3128
13391TIP3    H161664   3.681   5.594   3.857 -3.5145  1.2539 -1.1665
13391TIP3    H261665   3.659   5.619   3.709 -2.0905 -2.7488 -2.2073
13392TIP3   OH261666   0.387   0.018  14.163 -0.1489  0.1815  0.3889
13392TIP3    H161667   0.336   0.090  14.126 -0.8017 -0.8481 -0.8342
13392TIP3    H261668   0.414  -0.033  14.086  1.6701 -0.0035  1.1079
13393TIP3   OH261669   2.492   3.034  12.259 -0.1162 -0.1748 -0.1337
13393TIP3    H161670   2.476   3.027  12.353 -1.7259  1.5478 -0.2214
13393TIP3    H261671   2.453   2.956  12.222  0.5884 -0.9041  0.6075
13394TIP3   OH261672   5.332   5.022  14.119  0.1851 -0.0730 -0.2379
13394TIP3    H161673   5.332   5.116  14.133  1.8380 -0.1706  0.7136
13394TIP3    H261674   5.327   4.984  14.207  0.0324 -0.8771 -0.5774
13395TIP3   OH261675   6.404   6.160   4.902 -0.2483  0.0625 -1.0300
13395TIP3    H161676   6.412   6.255   4.889  3.4168 -0.1657 -1.4230
13395TIP3    H261677   6.458   6.122   4.833  1.6768 -2.0976  1.4743
13396TIP3   OH261678   5.784   1.892   0.589  0.0346  0.4098  0.2135
13396TIP3    H161679   5.787   1.808   0.544 -1.5658  0.2800  0.2719
13396TIP3    H261680   5.743   1.873   0.674 -2.1456  1.4866 -0.5103
13397TIP3   OH261681   6.757   6.029   6.058  0.0851  0.0797  0.0859
13397TIP3    H161682   6.722   6.101   6.007  0.1610  0.8713  1.1140
13397TIP3    H261683   6.697   6.022   6.133  1.3359  0.5547  1.1582
13398TIP3   OH261684   1.071   4.502   4.181  0.1634 -0.3707 -0.3313
13398TIP3    H161685   1.069   4.411   4.153  0.2852 -0.7289  0.7924
13398TIP3    H261686   1.096   4.499   4.273  2.5690  0.9269 -0.8557
13399TIP3   OH261687   4.528   6.311   6.049 -0.6043  0.1104  0.8316
13399TIP3    H161688   4.599   6.262   6.009 -0.0061  1.9867 -0.5150
13399TIP3    H261689   4.454   6.249   6.049  0.4624 -1.2218  0.4690
13400TIP3   OH261690   6.316   0.392  11.914 -0.2191 -0.1854 -0.3765
13400TIP3    H161691   6.256   0.318  11.909 -1.2498  0.6570 -1.0544
13400TIP3    H261692   6.326   0.409  12.008 -1.1295 -0.2858 -0.2539
13401TIP3   OH261693   5.612   1.933   2.026 -0.6459  0.4416 -0.3934
13401TIP3    H161694   5.554   1.870   2.068 -1.6107  0.4002 -1.7454
13401TIP3    H261695   5.689   1.881   2.000 -1.0973 -0.0176 -0.8158
13402TIP3   OH261696   0.049   5.053   1.819 -0.4681 -0.0596 -0.5000
13402TIP3    H161697   0.030   5.073   1.911 -1.7511 -0.5637 -0.6412
13402TIP3    H261698   0.109   4.979   1.822  0.5291  0.7366 -0.0618
13403TIP3   OH261699   4.144   0.403  13.604 -0.0426 -0.3810  0.0021
13403TIP3    H161700   4.060   0.424  13.562 -0.7627  1.4114  2.0992
13403TIP3    H261701   4.122   0.396  13.697  1.6674 -2.9428  0.3022
13404TIP3   OH261702   1.138   3.913   0.130 -0.2840  0.1529  0.1554
13404TIP3    H161703   1.101   3.972   0.064  1.2802  0.4430 -0.5099
13404TIP3    H261704   1.073   3.912   0.200 -1.6837  0.3736 -1.0754
13405TIP3   OH261705   2.500   3.505  16.741  0.5271 -0.4295 -0.4570
13405TIP3    H161706   2.591   3.477  16.750  0.5012 -0.4204 -0.1415
13405TIP3    H261707   2.462   3.444  16.678  0.6681 -0.6391 -0.3407
13406TIP3   OH261708   6.207   1.221  13.230  0.6491  0.3444 -0.5457
13406TIP3    H161709   6.249   1.150  13.182  1.6995  0.7309 -0.2263
13406TIP3    H261710   6.205   1.191  13.321  0.9571  0.6636 -0.4327
13407TIP3   OH261711   5.292   4.726   0.039  0.0831 -0.2290  0.5216
13407TIP3    H161712   5.256   4.811   0.065 -1.2078 -0.1763 -1.2460
13407TIP3    H261713   5.264   4.715  -0.052  0.8158 -2.2498  0.4903
13408TIP3   OH261714   6.326   2.562   6.714  0.4076 -0.1214  0.2541
13408TIP3    H161715   6.231   2.568   6.709  0.1937 -1.8839  1.4100
13408TIP3    H261716   6.353   2.642   6.759 -0.3672  1.0591 -1.2988
13409TIP3   OH261717   6.823   6.360  16.893 -0.4710  0.5341  0.0328
13409TIP3    H161718   6.764   6.309  16.949  0.0802  2.4819  2.5760
13409TIP3    H261719   6.764   6.416  16.842 -0.9045  0.9874  1.0150
13410TIP3   OH261720   0.562   3.443  16.651  0.0701  0.4250 -0.1358
13410TIP3    H161721   0.472   3.426  16.680 -0.1686 -0.6605 -1.4361
13410TIP3    H261722   0.616   3.410  16.722 -0.5100 -1.7737 -0.6393
13411TIP3   OH261723   3.810   4.774  13.416  0.1025  0.0703 -0.3710
13411TIP3    H161724   3.750   4.848  13.421 -0.5860 -0.5265  0.6070
13411TIP3    H261725   3.832   4.767  13.323  0.5495  1.7682 -0.4205
13412TIP3   OH261726   0.381   4.066  12.218  0.0854  0.7684  0.2759
13412TIP3    H161727   0.327   4.030  12.289 -0.0183 -0.3154 -0.3287
13412TIP3    H261728   0.357   4.158  12.215 -1.4575  0.4079  0.2896
13413TIP3   OH261729   4.050   4.471   2.430 -0.7989 -0.1260 -0.1812
13413TIP3    H161730   4.144   4.486   2.430 -0.6118 -1.1561 -0.9668
13413TIP3    H261731   4.016   4.529   2.498  0.6267 -1.0921  1.4319
13414TIP3   OH261732   3.766   1.253   1.571  0.1993  0.2479 -0.3836
13414TIP3    H161733   3.742   1.223   1.658  0.9734 -0.1318 -0.2898
13414TIP3    H261734   3.759   1.175   1.516  0.3720  0.3275 -0.5217
13415TIP3   OH261735   3.059   5.217  10.948 -0.1502  0.5073  0.7613
13415TIP3    H161736   2.992   5.165  10.904 -0.0990  0.7980  0.3238
13415TIP3    H261737   3.072   5.174  11.032 -1.6869  1.0873  1.3271
13416TIP3   OH261738   1.655   2.975   3.752  0.3647 -0.4074 -0.5045
13416TIP3    H161739   1.594   2.905   3.775  0.9850 -0.3683  1.5248
13416TIP3    H261740   1.633   3.046   3.812  2.2697 -0.3431  0.1967
13417TIP3   OH261741   2.510   2.676   1.529  0.1285  0.5643 -0.4062
13417TIP3    H161742   2.530   2.767   1.548  0.8370  0.4307 -0.5019
13417TIP3    H261743   2.479   2.676   1.438  1.3286  0.5419 -0.8263
13418TIP3   OH261744   6.072   1.939  15.484  0.2996  0.3107 -0.0488
13418TIP3    H161745   6.017   1.886  15.541 -0.7832  2.1168  0.6641
13418TIP3    H261746   6.039   2.028  15.495  1.1296  0.9557 -2.2608
13419TIP3   OH261747   3.530   4.838  16.141  0.8423 -0.1459  0.0318
13419TIP3    H161748   3.585   4.761  16.155  0.2862 -0.5125  0.2693
13419TIP3    H261749   3.441   4.802  16.135  0.7321  0.3043 -1.4211
13420TIP3   OH261750   1.759   2.646   4.715  0.0413  0.2747 -0.0709
13420TIP3    H161751   1.743   2.732   4.754 -0.7794 -0.3625  1.0451
13420TIP3    H261752   1.717   2.651   4.629  2.3652  1.8876 -1.2063
13421TIP3   OH261753   0.481   6.654   0.508  0.1137  0.4389 -0.2019
13421TIP3    H161754   0.501   6.573   0.462  0.4347  0.6998 -0.5261
13421TIP3    H261755   0.398   6.683   0.470 -0.3994 -0.1247  0.4482
13422TIP3   OH261756   6.130   5.910   0.655  0.2606  0.0264  0.2821
13422TIP3    H161757   6.067   5.941   0.590  0.7214 -0.4164 -0.3821
13422TIP3    H261758   6.105   5.819   0.672  1.4135 -0.5389 -0.8729
13423TIP3   OH261759   3.960   5.408  16.158  0.2486 -0.1838  0.1813
13423TIP3    H161760   4.054   5.393  16.162  0.1395 -0.8218  0.6305
13423TIP3    H261761   3.924   5.351  16.226 -0.2759  1.7768  1.6378
13424TIP3   OH261762   4.015   1.651  15.389  0.3362 -0.2634  0.1639
13424TIP3    H161763   4.086   1.704  15.353 -0.3195 -0.0965 -0.9389
13424TIP3    H261764   4.046   1.561  15.381  0.8314 -0.1329  0.6144
13425TIP3   OH261765   3.345   1.538  12.873  0.3145  0.1177 -0.4605
13425TIP3    H161766   3.289   1.545  12.795  0.6694  0.3141 -0.6997
13425TIP3    H261767   3.434   1.539  12.839  0.4768  0.3617 -0.0357
13426TIP3   OH261768   2.731   5.234  16.676 -0.5290  0.2399 -0.2203
13426TIP3    H161769   2.644   5.243  16.715  0.9405  0.2964  3.5166
13426TIP3    H261770   2.777   5.314  16.700  1.4034 -1.0184  0.5526
13427TIP3   OH261771   4.117   5.540   4.201  0.0480 -0.1618  0.7102
13427TIP3    H161772   4.198   5.503   4.165 -0.1178 -0.4459  0.6227
13427TIP3    H261773   4.078   5.468   4.251 -0.6595 -0.3406 -0.0804
13428TIP3   OH261774   1.287   3.933   4.476  0.2283 -0.3295 -0.1637
13428TIP3    H161775   1.339   3.903   4.401  0.7034 -0.2498  0.1292
13428TIP3    H261776   1.347   3.988   4.527 -0.2682  0.1068 -0.0385
13429TIP3   OH261777   1.364   0.775   4.394  0.5383  0.0080 -0.0489
13429TIP3    H161778   1.309   0.713   4.348  0.3731  0.0562  0.0845
13429TIP3    H261779   1.356   0.751   4.486  1.1495 -0.3144 -0.0759
13430TIP3   OH261780   4.098   1.661  16.440  0.1718  0.1561  0.3429
13430TIP3    H161781   4.109   1.690  16.350  1.2202  0.8962  0.6901
13430TIP3    H261782   4.156   1.585  16.447 -0.8726 -0.6965  0.0625
13431TIP3   OH261783   0.985   6.452   5.232 -0.0646  0.1801  0.2709
13431TIP3    H161784   0.934   6.396   5.174  1.5966 -0.8510 -0.2713
13431TIP3    H261785   0.932   6.461   5.311 -1.2913 -0.4118 -0.4674
13432TIP3   OH261786   1.820   0.186   2.006 -0.2871 -0.6362  0.1253
13432TIP3    H161787   1.783   0.166   1.920 -1.5705 -1.0121  0.7473
13432TIP3    H261788   1.912   0.204   1.988 -0.9215  1.2619 -1.5894
13433TIP3   OH261789   5.619   2.637   1.453 -0.1485 -0.2596  0.8807
13433TIP3    H161790   5.631   2.572   1.384  0.9588 -0.5419  1.3253
13433TIP3    H261791   5.650   2.594   1.532 -0.5213  0.4017  1.3971
13434TIP3   OH261792   0.390   6.369  11.281  0.0612  0.6830  0.0840
13434TIP3    H161793   0.419   6.454  11.249 -2.2748  1.4013 -0.2727
13434TIP3    H261794   0.387   6.314  11.202 -0.1059  0.7897  0.0139
13435TIP3   OH261795   4.164   5.339  16.892 -0.1637  0.0071 -0.3635
13435TIP3    H161796   4.096   5.406  16.879  0.9667  0.8333 -2.4746
13435TIP3    H261797   4.225   5.378  16.955 -0.9476 -0.2339  0.5784
13436TIP3   OH261798   4.375   2.503   4.030  0.0777  0.1683 -0.0820
13436TIP3    H161799   4.315   2.529   3.959  1.1629 -0.2396 -1.1860
13436TIP3    H261800   4.385   2.409   4.019  2.2815  0.4634 -1.0490
13437TIP3   OH261801   5.220   2.342  15.170 -0.3104  0.5852 -0.1844
13437TIP3    H161802   5.292   2.387  15.126 -0.6167  1.4603  0.1941
13437TIP3    H261803   5.172   2.299  15.099  0.5682 -0.0114 -0.4398
13438TIP3   OH261804   3.817   1.662  16.303 -0.2343  0.1356  0.3523
13438TIP3    H161805   3.766   1.618  16.371 -0.3888  0.8502  0.7086
13438TIP3    H261806   3.890   1.701  16.349  0.4654 -0.6004 -0.1134
13439TIP3   OH261807   1.752   1.914   2.831 -0.2818 -0.4144 -0.5939
13439TIP3    H161808   1.764   1.913   2.925 -1.2272  1.1523 -0.4215
13439TIP3    H261809   1.818   1.853   2.797  2.3044  1.4388  0.8023
13440TIP3   OH261810   3.113   2.297   4.462  0.4895 -0.5779 -0.5032
13440TIP3    H161811   3.207   2.310   4.449  1.0394 -1.8692  1.7307
13440TIP3    H261812   3.088   2.234   4.394  1.2386 -0.2711 -1.0733
13441TIP3   OH261813   2.448   5.010  13.445  0.3102  0.4313 -0.4700
13441TIP3    H161814   2.407   4.944  13.389 -1.9235  0.1669  1.3411
13441TIP3    H261815   2.541   5.005  13.424  0.1329 -2.7988 -0.9182
13442TIP3   OH261816   3.748   6.180  15.914  0.3723 -0.0130 -0.0603
13442TIP3    H161817   3.659   6.155  15.941  1.0566 -1.0526  1.3827
13442TIP3    H261818   3.794   6.096  15.906  1.7627  0.5816  1.2775
13443TIP3   OH261819   3.823   3.052  12.941 -0.6600 -0.4756  0.0508
13443TIP3    H161820   3.825   2.984  12.874  1.2077 -2.5993  2.0604
13443TIP3    H261821   3.877   3.122  12.905  2.6500 -2.6900  0.2340
13444TIP3   OH261822   0.951   3.302   5.091 -0.0405  0.6279  0.0448
13444TIP3    H161823   0.899   3.255   5.157  0.8436 -2.0066 -0.9985
13444TIP3    H261824   0.986   3.377   5.138 -0.9416 -0.1356  2.0823
13445TIP3   OH261825   5.851   5.225   1.528 -0.0300  0.6178  0.0286
13445TIP3    H161826   5.766   5.193   1.557 -0.4323  0.3017 -1.4259
13445TIP3    H261827   5.906   5.222   1.606 -1.4004  1.0340  1.0441
13446TIP3   OH261828   4.611   4.310   5.629  0.0466  0.3798  0.1908
13446TIP3    H161829   4.685   4.283   5.574  1.6180  1.3622  1.7082
13446TIP3    H261830   4.596   4.402   5.606 -0.1533  0.4202  0.4787
13447TIP3   OH261831   0.012   2.199   4.040 -0.0871  0.5454  0.3572
13447TIP3    H161832   0.073   2.160   4.103 -3.0617 -2.4211  1.7204
13447TIP3    H261833   0.015   2.140   3.965 -1.4175  0.1990  0.5606
13448TIP3   OH261834   3.247   0.422   3.137 -0.2038  0.4184 -0.8224
13448TIP3    H161835   3.195   0.472   3.073 -0.0745  1.4134 -0.1658
13448TIP3    H261836   3.244   0.474   3.217  2.1383  0.7275 -0.8622
13449TIP3   OH261837   0.349   3.164  15.726  0.6628  0.2556  0.1473
13449TIP3    H161838   0.375   3.132  15.640 -0.0456 -0.2356  0.1127
13449TIP3    H261839   0.432   3.172  15.774  0.9567 -0.6471 -0.1792
13450TIP3   OH261840   3.670   2.559  13.390 -0.1034 -0.0997 -0.8956
13450TIP3    H161841   3.626   2.483  13.427  0.6483 -0.1981 -0.1597
13450TIP3    H261842   3.602   2.606  13.343 -0.3284 -1.9023 -2.4972
13451TIP3   OH261843   0.722   6.825   3.122 -0.2730 -0.2984 -0.3909
13451TIP3    H161844   0.681   6.761   3.064 -2.7062 -0.0053  0.8424
13451TIP3    H261845   0.653   6.890   3.137  0.3913 -0.1246  2.4106
13452TIP3   OH261846   1.104   4.089  10.299 -0.0208 -0.7601 -0.1070
13452TIP3    H161847   1.047   4.131  10.363 -0.3668  0.3543 -1.1194
13452TIP3    H261848   1.109   3.998  10.328  0.2655 -0.1824  1.7927
13453TIP3   OH261849   0.990   4.805   3.311  0.4144 -0.0607 -0.2963
13453TIP3    H161850   0.923   4.815   3.243 -1.0539 -0.8906  0.9814
13453TIP3    H261851   0.946   4.758   3.382  2.1044  0.1718  0.9621
13454TIP3   OH261852   1.406   0.397   1.233  0.0595  0.3371  0.0988
13454TIP3    H161853   1.315   0.378   1.254  0.4197 -0.6389  0.8665
13454TIP3    H261854   1.411   0.389   1.138 -0.7864  1.0215 -0.0100
13455TIP3   OH261855   1.947   2.427  16.458 -0.0698  0.1648 -1.3300
13455TIP3    H161856   1.865   2.441  16.504  1.3853  0.1952  1.4616
13455TIP3    H261857   1.994   2.510  16.467  1.8079 -1.0106  0.6228
13456TIP3   OH261858   6.335   2.457  11.941  0.5294  0.6889  0.3282
13456TIP3    H161859   6.403   2.521  11.920  0.7686  0.1607 -0.5531
13456TIP3    H261860   6.260   2.511  11.967  1.8768  1.2672  3.4901
13457TIP3   OH261861   4.090   6.693  14.644 -0.0395  0.2172  0.4497
13457TIP3    H161862   4.001   6.663  14.625 -0.3665  1.5420 -0.2630
13457TIP3    H261863   4.080   6.788  14.658  1.1278  0.2324  1.2702
13458TIP3   OH261864   2.590   6.629   3.515 -0.3301 -0.1139  0.7374
13458TIP3    H161865   2.590   6.699   3.580 -0.8836  0.0204  0.5972
13458TIP3    H261866   2.560   6.552   3.563  0.5211 -0.3219  0.9532
13459TIP3   OH261867   6.012   4.056   3.217 -0.0287 -0.0787  0.0450
13459TIP3    H161868   6.069   4.118   3.170 -2.3909  1.7786 -0.6110
13459TIP3    H261869   5.984   3.994   3.149 -1.1992  0.9042 -0.4107
13460TIP3   OH261870   3.777   5.349  17.229 -0.1949 -0.2805 -0.0274
13460TIP3    H161871   3.735   5.290  17.292  0.2764 -0.6044 -0.0117
13460TIP3    H261872   3.869   5.320  17.227  0.3612  1.2731  0.9535
13461TIP3   OH261873   2.046   6.017  15.835  0.3274 -0.1428 -0.2430
13461TIP3    H161874   2.112   6.010  15.765  0.2339 -0.4971 -0.2943
13461TIP3    H261875   1.987   5.944  15.820  0.2634 -0.1765  0.1677
13462TIP3   OH261876   2.984   4.186   4.237 -0.0056  0.0852 -0.1663
13462TIP3    H161877   2.966   4.240   4.315 -0.9767 -0.5483  0.0660
13462TIP3    H261878   3.002   4.099   4.272 -1.5941 -0.4813 -0.6955
13463TIP3   OH261879   1.675   4.385   1.872 -0.0234  0.0532  0.1198
13463TIP3    H161880   1.615   4.351   1.806 -1.4394  0.2827  1.2518
13463TIP3    H261881   1.622   4.443   1.926  0.8826 -0.7683  1.9964
13464TIP3   OH261882   4.134   5.843   6.319  0.5780  0.3016 -0.0291
13464TIP3    H161883   4.120   5.839   6.224  0.1501 -1.3808  0.0771
13464TIP3    H261884   4.166   5.932   6.334 -1.0359  1.2095 -1.5170
13465TIP3   OH261885   1.624   6.623  11.290 -0.4210 -0.6088  0.2100
13465TIP3    H161886   1.689   6.639  11.221  1.0899 -2.3206  1.1219
13465TIP3    H261887   1.558   6.567  11.248  0.3506 -1.4256  0.0522
13466TIP3   OH261888   5.466   6.160  15.752  0.1631  0.2167  0.0200
13466TIP3    H161889   5.409   6.146  15.677  0.7152 -0.5949 -0.2539
13466TIP3    H261890   5.550   6.187  15.715  0.3936 -0.0409  0.3433
13467TIP3   OH261891   2.409   5.809  14.691  0.3167  0.0687 -0.3483
13467TIP3    H161892   2.373   5.726  14.721  0.1510  0.0321 -0.6452
13467TIP3    H261893   2.356   5.876  14.735  0.7078  0.0204  0.2008
13468TIP3   OH261894   2.918   5.621  16.331  0.1642  0.0225 -0.0274
13468TIP3    H161895   3.001   5.667  16.327  0.0553  0.1451 -1.5656
13468TIP3    H261896   2.863   5.674  16.389  0.3727  1.3012 -0.9631
13469TIP3   OH261897   4.124   6.198  13.617  0.5166 -0.0361 -0.2355
13469TIP3    H161898   4.137   6.292  13.627  1.0120 -0.1568  0.2740
13469TIP3    H261899   4.169   6.176  13.535 -0.0119  0.2472 -0.6082
13470TIP3   OH261900   2.457   1.725   5.032 -0.2068 -0.5375  0.3317
13470TIP3    H161901   2.487   1.792   5.094  1.8414 -0.6270 -0.5052
13470TIP3    H261902   2.399   1.773   4.973  2.8371  1.1620 -1.5517
13471TIP3   OH261903   5.490   2.434   1.927 -0.3382  0.9514  0.5631
13471TIP3    H161904   5.400   2.465   1.913 -0.5971 -0.2301 -0.6334
13471TIP3    H261905   5.481   2.339   1.938  0.9063  0.4587 -1.8052
13472TIP3   OH261906   4.653   5.395  11.793  0.0690 -0.4544 -0.3553
13472TIP3    H161907   4.623   5.483  11.815  1.2937  0.3041 -1.5881
13472TIP3    H261908   4.727   5.408  11.734 -0.0313 -2.3209 -0.9745
13473TIP3   OH261909   6.214   2.862   2.523 -0.1235  0.0815  0.2805
13473TIP3    H161910   6.275   2.787   2.519  0.5382  0.6290 -0.1379
13473TIP3    H261911   6.164   2.857   2.441  0.4880  0.5554 -0.1322
13474TIP3   OH261912   1.886   3.559   2.974  0.5666  0.3284 -0.6706
13474TIP3    H161913   1.981   3.562   2.962  0.8143  0.8720  1.1175
13474TIP3    H261914   1.860   3.651   2.970  0.2057  0.2316 -0.5149
13475TIP3   OH261915   1.408   6.003  13.612 -0.3108  0.1855  0.4020
13475TIP3    H161916   1.350   6.050  13.671  0.6480  1.4169  0.3981
13475TIP3    H261917   1.496   6.022  13.644  0.1333 -1.9973  0.6775
13476TIP3   OH261918   0.787   2.432   0.251 -0.1588 -0.4046  0.2915
13476TIP3    H161919   0.805   2.476   0.334 -4.1221  0.2145  0.9850
13476TIP3    H261920   0.717   2.370   0.270 -0.9079 -0.5701 -2.4782
13477TIP3   OH261921   6.583   6.378   1.065  0.6297  0.0279  0.1907
13477TIP3    H161922   6.662   6.325   1.077 -0.0562 -0.8326  1.0932
13477TIP3    H261923   6.615   6.460   1.026  2.1424  0.1969  1.6466
13478TIP3   OH261924   6.314   2.553  12.223  0.3908  0.4483 -0.4422
13478TIP3    H161925   6.230   2.510  12.239  1.8210 -1.9263  1.2675
13478TIP3    H261926   6.361   2.494  12.164  0.9652  1.6885 -1.2756
13479TIP3   OH261927   5.698   2.049   1.526 -0.3726 -0.3008 -0.2583
13479TIP3    H161928   5.605   2.029   1.529 -0.3481 -0.9193 -2.1680
13479TIP3    H261929   5.736   1.997   1.597 -1.4256 -0.3069  0.3224
13480TIP3   OH261930   6.673   1.755   1.183  0.1817  0.3578  0.1518
13480TIP3    H161931   6.653   1.665   1.159  0.1521  0.1819  0.8106
13480TIP3    H261932   6.741   1.782   1.121 -0.9598  0.4482 -1.1113
13481TIP3   OH261933   5.005   5.308  12.764 -0.3246  0.2947  0.2272
13481TIP3    H161934   4.949   5.341  12.834  0.8673  1.1077  0.8347
13481TIP3    H261935   5.048   5.386  12.728  2.4744 -0.4577  1.6056
13482TIP3   OH261936   5.246   2.141   3.130 -0.2626 -0.4551 -0.2843
13482TIP3    H161937   5.287   2.200   3.193 -0.5534  0.5776 -1.0325
13482TIP3    H261938   5.210   2.069   3.183 -2.3554  1.4062  0.9847
13483TIP3   OH261939   5.978   2.292   6.247  0.1952  0.0634  0.4290
13483TIP3    H161940   6.024   2.374   6.227  1.7309 -0.8078  0.2065
13483TIP3    H261941   5.887   2.308   6.222  0.8972  0.9621 -1.8192
13484TIP3   OH261942   3.424   4.746   6.194  0.3218 -0.0014 -0.2411
13484TIP3    H161943   3.335   4.713   6.177 -0.2271  0.9868  0.6112
13484TIP3    H261944   3.410   4.833   6.232  1.6868  0.4429 -0.7244
13485TIP3   OH261945   4.121   4.434  13.506 -0.1997  0.4156  0.0822
13485TIP3    H161946   4.061   4.368  13.471  0.9745 -0.0419 -1.1433
13485TIP3    H261947   4.144   4.401  13.593 -0.6006 -0.1557 -0.0215
13486TIP3   OH261948   2.337   4.819   4.432  0.3019  0.0965 -0.5635
13486TIP3    H161949   2.316   4.734   4.471 -1.1587  0.1869 -1.0592
13486TIP3    H261950   2.416   4.803   4.381 -0.0598 -1.0434 -0.8140
13487TIP3   OH261951   4.308   5.532   0.840 -0.7362 -0.5195  0.1405
13487TIP3    H161952   4.241   5.500   0.900  0.8153  1.3619  3.1664
13487TIP3    H261953   4.262   5.593   0.782 -1.9851 -0.9184  0.6985
13488TIP3   OH261954   1.717   1.488   5.240 -0.4353  0.0621  0.6235
13488TIP3    H161955   1.624   1.490   5.221 -0.1552  1.1080 -0.7855
13488TIP3    H261956   1.758   1.463   5.157  0.5757  0.1082  1.0937
13489TIP3   OH261957   0.777   1.080   2.458 -0.4990 -0.4933  0.7976
13489TIP3    H161958   0.731   1.111   2.536  0.7483  0.8243  1.0485
13489TIP3    H261959   0.862   1.123   2.462 -0.4278 -0.3434 -1.3489
13490TIP3   OH261960   2.529   3.148  16.259 -0.0159 -0.2144 -0.1586
13490TIP3    H161961   2.516   3.117  16.349  1.0699  1.1481  0.5003
13490TIP3    H261962   2.574   3.232  16.269  2.5552 -1.2314 -2.0355
13491TIP3   OH261963   4.820   1.651  11.852 -0.5700 -0.5645  0.7969
13491TIP3    H161964   4.881   1.619  11.785 -0.9754 -2.1809  1.1430
13491TIP3    H261965   4.849   1.740  11.870  0.5884 -0.6774 -0.3113
13492TIP3   OH261966   3.382   3.614   4.464  0.1143  0.7766 -0.3960
13492TIP3    H161967   3.382   3.622   4.559 -0.1513 -0.9520 -0.2228
13492TIP3    H261968   3.290   3.619   4.439 -0.3280 -2.9893 -0.0723
13493TIP3   OH261969   5.903   6.368   2.675  0.0221 -0.4946 -0.2845
13493TIP3    H161970   5.881   6.301   2.740 -1.4304  0.5399  0.3451
13493TIP3    H261971   5.864   6.337   2.594  0.5981 -1.0951 -0.3387
13494TIP3   OH261972   6.028   5.370  12.989 -0.1532  0.4833 -0.0491
13494TIP3    H161973   5.968   5.302  12.959 -0.5093  0.6533  0.2819
13494TIP3    H261974   6.111   5.349  12.945 -0.2677 -0.1416  0.0216
13495TIP3   OH261975   5.210   0.408  16.888  0.1003 -0.0250  0.3271
13495TIP3    H161976   5.209   0.325  16.936  2.5679 -1.0351 -1.1856
13495TIP3    H261977   5.132   0.405  16.833 -0.0129 -1.2084  0.5331
13496TIP3   OH261978   3.710   3.572  11.425 -0.3606 -0.0650 -0.1313
13496TIP3    H161979   3.720   3.478  11.414  0.1544  0.1006 -1.1701
13496TIP3    H261980   3.616   3.585  11.439 -0.5582 -0.6570 -0.8606
13497TIP3   OH261981   0.214   2.735  13.993  0.1996 -0.8026 -0.0927
13497TIP3    H161982   0.280   2.786  13.945 -1.4942  2.6173  0.9207
13497TIP3    H261983   0.264   2.685  14.057  1.9128  0.3793 -0.4433
13498TIP3   OH261984   5.940   0.943   2.036  0.0640  0.1307 -0.0177
13498TIP3    H161985   6.013   0.949   2.097 -0.7948 -1.6093  1.2785
13498TIP3    H261986   5.887   1.021   2.055  0.5224  0.3280  0.4814
13499TIP3   OH261987   6.087   4.564   1.184  0.3215 -0.0567  0.1525
13499TIP3    H161988   6.130   4.479   1.171 -0.9811 -0.6834 -0.2303
13499TIP3    H261989   6.093   4.579   1.278 -1.1857 -1.5866  0.5528
13500TIP3   OH261990   5.602   1.095   1.632  0.4357 -0.4984 -0.5100
13500TIP3    H161991   5.571   1.156   1.565  0.3565 -0.7204 -0.6792
13500TIP3    H261992   5.597   1.009   1.590  0.5560 -0.6207 -0.2785
13501TIP3   OH261993   2.811   6.208   2.658  0.6766 -0.0819 -0.1606
13501TIP3    H161994   2.810   6.302   2.676 -0.8222 -0.0058 -0.5248
13501TIP3    H261995   2.903   6.188   2.642  1.1581  1.1152  0.9470
13502TIP3   OH261996   1.299   0.376   2.495 -0.2931  0.2217 -0.1487
13502TIP3    H161997   1.306   0.460   2.451 -2.1431  0.1164 -0.7539
13502TIP3    H261998   1.316   0.311   2.427  0.1924  0.0971  0.0911
13503TIP3   OH261999   1.565   0.261  14.717  0.2627  0.2495 -0.4102
13503TIP3    H162000   1.629   0.198  14.751 -0.3989  0.5514  1.5529
13503TIP3    H262001   1.511   0.210  14.657  2.0211 -0.1175 -1.7755
13504TIP3   OH262002   3.742   0.494  12.172 -0.0251  0.2609  0.4478
13504TIP3    H162003   3.779   0.449  12.096  0.1543 -0.8697  1.1827
13504TIP3    H262004   3.811   0.490  12.238  0.1821  2.0468  0.4102
13505TIP3   OH262005   1.405   6.492  11.187 -0.0138  0.4517  0.2968
13505TIP3    H162006   1.358   6.495  11.104 -0.9762  1.0851  0.8523
13505TIP3    H262007   1.336   6.489  11.254  0.7366 -0.6739  1.0676
13506TIP3   OH262008   3.745   6.583  17.086  0.3170  0.4568  0.1106
13506TIP3    H162009   3.814   6.526  17.121  0.5706  1.1753  0.8095
13506TIP3    H262010   3.666   6.556  17.132 -0.0239 -0.8472 -1.2084
13507TIP3   OH262011   4.032   4.126   0.681  0.0161  0.3767 -0.2557
13507TIP3    H162012   4.108   4.182   0.669  0.9573 -0.6886  0.5160
13507TIP3    H262013   3.963   4.185   0.712  0.3564  1.4348 -1.4349
13508TIP3   OH262014   6.372   3.706  12.913  0.2563 -0.2921 -0.1515
13508TIP3    H162015   6.385   3.664  12.828 -0.2565  0.6790 -0.7193
13508TIP3    H262016   6.305   3.653  12.956  0.2112 -0.5373 -0.5181
13509TIP3   OH262017   5.878   2.400  12.615  0.4404 -0.1031 -0.5008
13509TIP3    H162018   5.881   2.386  12.521 -0.7176  1.9437 -0.8961
13509TIP3    H262019   5.786   2.390  12.639  0.6051  0.1356  0.2819
13510TIP3   OH262020   2.767   0.638   5.441 -0.8066 -0.6933 -0.1253
13510TIP3    H162021   2.735   0.696   5.373  0.3057  1.3468  0.9914
13510TIP3    H262022   2.689   0.609   5.488 -1.3418  0.7406 -0.0900
13511TIP3   OH262023   6.103   1.609  16.030  0.3539  0.2731 -0.0491
13511TIP3    H162024   6.159   1.686  16.015  2.4453 -1.1421  0.1133
13511TIP3    H262025   6.070   1.588  15.943 -1.1303  1.9369  0.0497
13512TIP3   OH262026   1.986   1.746   2.716 -0.2750  0.2722  0.6090
13512TIP3    H162027   2.068   1.699   2.703  0.9900  2.1782  1.3676
13512TIP3    H262028   1.966   1.784   2.630 -0.2086  0.0786  0.5073
13513TIP3   OH262029   3.257   6.083  12.813  0.2747  0.6050 -0.1218
13513TIP3    H162030   3.296   6.038  12.738  0.4360 -0.0836  0.3611
13513TIP3    H262031   3.323   6.076  12.882 -0.8513 -1.0281  0.8773
13514TIP3   OH262032   0.636   5.823  10.643 -0.1408 -0.0399 -0.4717
13514TIP3    H162033   0.579   5.797  10.716 -0.8293  0.9104 -0.6609
13514TIP3    H262034   0.668   5.910  10.666  1.4907 -0.6543 -0.2405
13515TIP3   OH262035   2.857   1.813  11.237 -0.0106  0.3443  0.1344
13515TIP3    H162036   2.878   1.815  11.330  0.6178  1.3760 -0.0218
13515TIP3    H262037   2.909   1.883  11.198 -2.2918  1.7324 -0.5770
13516TIP3   OH262038   3.808   6.020  14.801  0.3099  0.1663  0.2086
13516TIP3    H162039   3.867   6.092  14.823  3.7480 -2.5008  0.6905
13516TIP3    H262040   3.832   5.996  14.711 -0.4206 -0.6472  0.2094
13517TIP3   OH262041   4.632   4.345  14.750 -0.2223  0.6660  0.3843
13517TIP3    H162042   4.597   4.316  14.834 -0.0036 -0.6028  0.0535
13517TIP3    H262043   4.602   4.279  14.687  1.3702  0.4230 -0.1678
13518TIP3   OH262044   3.218   3.052   3.552  0.4543 -0.2134 -0.2241
13518TIP3    H162045   3.176   2.985   3.499 -0.5972 -0.1653  0.5275
13518TIP3    H262046   3.297   3.010   3.586 -0.8914 -1.5822  1.3818
13519TIP3   OH262047   1.578   3.143   0.868 -0.2957 -0.1337 -0.0390
13519TIP3    H162048   1.660   3.102   0.895  0.1976  0.4491 -0.6227
13519TIP3    H262049   1.605   3.216   0.812 -1.2357 -0.3845 -0.8456
13520TIP3   OH262050   0.049   1.763   5.977  0.1053  0.4120 -0.5480
13520TIP3    H162051   0.119   1.697   5.978 -0.3041 -0.0707  1.7635
13520TIP3    H262052  -0.032   1.712   5.966 -0.1560  0.5521  0.5573
13521TIP3   OH262053   3.617   4.394  14.108  0.1454 -0.1437  0.5388
13521TIP3    H162054   3.600   4.436  14.024 -1.9220  1.6097  1.7637
13521TIP3    H262055   3.573   4.309  14.102  1.5434 -0.8448 -0.7265
13522TIP3   OH262056   6.800   2.070  11.681  0.2592  0.0327  0.2490
13522TIP3    H162057   6.774   2.039  11.594  0.2417 -0.8376  0.5575
13522TIP3    H262058   6.722   2.113  11.716 -0.6259 -2.0576  0.9436
13523TIP3   OH262059   6.640   0.448   2.401  0.7519 -0.4809 -0.0032
13523TIP3    H162060   6.556   0.434   2.445  0.8411  1.0783  0.7603
13523TIP3    H262061   6.701   0.392   2.448  0.1359 -1.7872 -0.6966
13524TIP3   OH262062   3.971   2.529  14.046 -0.3961  0.7465 -0.4156
13524TIP3    H162063   4.019   2.466  13.992  0.4261 -0.1194  1.2379
13524TIP3    H262064   4.018   2.612  14.034  0.7461  0.2048  0.1644
13525TIP3   OH262065   2.511   5.873  12.131 -0.4559 -0.3043 -0.1020
13525TIP3    H162066   2.481   5.933  12.062 -1.2441  0.1669  0.6268
13525TIP3    H262067   2.556   5.803  12.084  0.0697  0.6169 -1.0076
13526TIP3   OH262068   5.194   2.461   1.027 -0.0162  0.1644 -0.3960
13526TIP3    H162069   5.214   2.505   1.110  0.3039 -0.2392 -0.2550
13526TIP3    H262070   5.279   2.445   0.987 -0.0995 -0.7103 -0.2397
13527TIP3   OH262071   1.943   5.648   5.186  0.1492 -0.5104  0.1072
13527TIP3    H162072   1.897   5.644   5.102  1.0993 -1.1250 -0.4066
13527TIP3    H262073   2.035   5.659   5.162  0.3503 -0.0041  1.0918
13528TIP3   OH262074   5.523   4.951  15.733  0.2488  0.4320 -0.1132
13528TIP3    H162075   5.482   4.868  15.711 -1.1466  0.8524  0.8164
13528TIP3    H262076   5.606   4.926  15.775 -1.0614 -0.6042  2.0439
13529TIP3   OH262077   4.215   1.358   3.693 -0.3775  0.5312 -0.0785
13529TIP3    H162078   4.242   1.328   3.780 -0.7549 -0.4168 -0.2757
13529TIP3    H262079   4.246   1.290   3.633 -4.8806 -1.8459 -0.1511
13530TIP3   OH262080   6.703   0.924   1.757  0.3589 -0.3326 -0.9480
13530TIP3    H162081   6.681   0.996   1.816  0.7974 -1.0862  0.1887
13530TIP3    H262082   6.793   0.941   1.730  0.5459 -0.5684 -0.4862
13531TIP3   OH262083   0.295   3.456  13.988 -0.8777  0.1255 -0.0240
13531TIP3    H162084   0.281   3.446  14.082  1.3553  1.1851  0.4901
13531TIP3    H262085   0.304   3.367  13.954 -0.7235 -0.2254  0.9346
13532TIP3   OH262086   2.875   2.419   5.101  0.0789 -0.9457 -0.2998
13532TIP3    H162087   2.789   2.375   5.100  0.7061 -2.2365  0.0033
13532TIP3    H262088   2.904   2.418   5.010  0.2089 -1.4429 -0.2590
13533TIP3   OH262089   5.103   5.173   6.258  0.2413  0.0908 -0.3310
13533TIP3    H162090   5.092   5.087   6.299 -0.2452 -0.0633 -0.7778
13533TIP3    H262091   5.122   5.232   6.331 -1.4236 -0.0264  0.2306
13534TIP3   OH262092   1.918   0.909  13.671  0.3106 -0.0239  0.6762
13534TIP3    H162093   1.941   0.864  13.590  0.3700 -0.4498  0.9232
13534TIP3    H262094   1.885   0.839  13.728  0.9096  0.1561  1.2601
13535TIP3   OH262095   6.204   4.657  14.907  0.1606 -0.4129  0.2849
13535TIP3    H162096   6.207   4.628  14.998 -1.0528  0.5561  0.6662
13535TIP3    H262097   6.124   4.709  14.902  1.5787  1.8034 -0.6698
13536TIP3   OH262098   5.050   5.820   5.165 -0.8408 -0.0495  0.3992
13536TIP3    H162099   5.049   5.915   5.155 -0.5700 -0.0778  0.0751
13536TIP3    H262100   5.005   5.787   5.087 -2.5934 -0.1336  1.3760
13537TIP3   OH262101   1.554   4.332  15.359 -0.0656 -0.7201  0.0400
13537TIP3    H162102   1.544   4.427  15.355 -1.5171 -0.6073  3.0295
13537TIP3    H262103   1.544   4.302  15.269 -0.4170  1.8891 -0.8560
13538TIP3   OH262104   5.663   6.429   3.428 -0.0685  0.4040 -0.3528
13538TIP3    H162105   5.603   6.430   3.503  0.5328 -1.3810  0.2107
13538TIP3    H262106   5.614   6.388   3.358 -0.0834  0.5490 -0.4271
13539TIP3   OH262107   4.872   3.454  14.076  0.1139  0.3935 -0.3322
13539TIP3    H162108   4.855   3.516  14.005  0.9135 -0.0376 -0.9219
13539TIP3    H262109   4.904   3.376  14.032  0.5213  0.0796  0.4982
13540TIP3   OH262110   2.248   3.838   0.413  0.7487 -0.4542 -0.3695
13540TIP3    H162111   2.232   3.790   0.494  3.2592 -1.5351 -0.4393
13540TIP3    H262112   2.166   3.886   0.397  0.0042 -0.5950  2.5059
13541TIP3   OH262113   0.815   2.323  13.755  0.3276  0.2475  0.3940
13541TIP3    H162114   0.829   2.311  13.849 -0.9468  0.2879  0.6062
13541TIP3    H262115   0.783   2.413  13.746  0.8846  0.4040 -0.1409
13542TIP3   OH262116   3.365   6.083  16.208  0.2926  0.3292  0.5091
13542TIP3    H162117   3.311   6.154  16.242 -0.6661 -0.3936  0.5382
13542TIP3    H262118   3.336   6.072  16.118 -0.0868 -0.5062  0.7281
13543TIP3   OH262119   6.743   0.381  14.276 -0.2442  0.1530 -0.0973
13543TIP3    H162120   6.672   0.442  14.299 -0.2820  0.2477 -0.4539
13543TIP3    H262121   6.799   0.431  14.217 -0.7402 -0.4264 -1.0883
13544TIP3   OH262122   2.471   5.507  16.931  0.5817  0.0692  0.2554
13544TIP3    H162123   2.408   5.442  16.963  1.0230  0.3039  1.6384
13544TIP3    H262124   2.494   5.559  17.008  0.5755  1.6029 -0.7321
13545TIP3   OH262125   1.976   5.920   1.389  0.0236 -1.0448 -0.2697
13545TIP3    H162126   1.954   5.843   1.441 -0.3074 -0.6398  0.1879
13545TIP3    H262127   2.007   5.884   1.305 -3.1024 -1.6545 -1.2878
13546TIP3   OH262128   5.197   1.759   5.680  0.0088  0.3414 -0.0307
13546TIP3    H162129   5.231   1.714   5.757  1.1540 -0.9916 -1.2424
13546TIP3    H262130   5.108   1.726   5.670  0.2872 -0.4619  0.0271
13547TIP3   OH262131   4.336   0.270   1.756  0.0608 -0.5770  0.3044
13547TIP3    H162132   4.299   0.280   1.844 -1.0039  0.1531 -0.2096
13547TIP3    H262133   4.266   0.228   1.705  0.9804 -1.7983  0.0049
13548TIP3   OH262134   5.256   0.761   3.852 -0.5650  0.2439  0.3691
13548TIP3    H162135   5.335   0.792   3.808  0.4827 -0.7019  1.4973
13548TIP3    H262136   5.205   0.719   3.783 -0.4546  1.5320 -0.5188
13549TIP3   OH262137   3.060   1.636  12.666 -0.4973  0.2270  0.3350
13549TIP3    H162138   3.030   1.566  12.609  1.0126 -0.7822  0.7110
13549TIP3    H262139   3.150   1.653  12.638 -0.4980  1.3106  0.9235
13550TIP3   OH262140   6.628   6.214  13.013  0.4754  0.4168  0.0708
13550TIP3    H162141   6.557   6.274  12.990  0.6223  0.3576 -0.5828
13550TIP3    H262142   6.585   6.142  13.059  0.2387  0.8159  0.4703
13551TIP3   OH262143   5.463   2.362   0.948 -0.5834 -0.1522 -0.0096
13551TIP3    H162144   5.458   2.278   0.993 -1.6711  1.0030  2.1546
13551TIP3    H262145   5.557   2.378   0.937 -0.3719 -2.0298 -1.3161
13552TIP3   OH262146   2.513   4.919  10.847 -0.0120 -0.0012  0.9927
13552TIP3    H162147   2.492   4.933  10.755  0.6594 -0.7701  0.7006
13552TIP3    H262148   2.607   4.901  10.847  0.0507  0.3001  1.8668
13553TIP3   OH262149   6.395   6.263   2.800  0.0171 -0.2603 -0.6769
13553TIP3    H162150   6.352   6.182   2.773  1.3912 -0.8785 -1.1190
13553TIP3    H262151   6.453   6.236   2.872 -0.4308  0.5793  0.0298
13554TIP3   OH262152   3.535   6.603  15.088 -0.3020 -0.6619  0.5565
13554TIP3    H162153   3.550   6.682  15.139 -1.2607  0.0276 -0.2074
13554TIP3    H262154   3.440   6.597  15.078 -0.3032 -2.3159  1.2077
13555TIP3   OH262155   1.155   2.287   1.371  0.0151 -0.6904  0.2820
13555TIP3    H162156   1.139   2.192   1.374 -0.8710 -0.6206 -0.9585
13555TIP3    H262157   1.076   2.322   1.330  0.6797  0.4981 -0.0175
13556TIP3   OH262158   3.849   3.214   5.565 -0.3187 -0.1002  0.0884
13556TIP3    H162159   3.923   3.184   5.616 -0.1855  1.2486  0.7405
13556TIP3    H262160   3.882   3.221   5.475  0.6298  1.3388  0.5191
13557TIP3   OH262161   1.633   1.949  17.029  1.1249 -0.3429  0.4921
13557TIP3    H162162   1.662   1.925  16.941  0.2458  0.5325 -0.0532
13557TIP3    H262163   1.701   1.914  17.087  2.1739 -0.1681 -0.5877
13558TIP3   OH262164   1.863   6.371   2.551  0.6497  0.5682  0.4268
13558TIP3    H162165   1.909   6.339   2.629 -1.4000 -3.8276  0.1162
13558TIP3    H262166   1.779   6.404   2.585 -0.0069 -0.8269  0.2638
13559TIP3   OH262167   6.039   1.547   5.715 -0.0650 -0.2491  0.1738
13559TIP3    H162168   6.069   1.490   5.786 -1.5423 -1.7443 -0.3424
13559TIP3    H262169   6.066   1.501   5.635 -0.0786  0.4583 -0.2398
13560TIP3   OH262170   2.235   1.236  13.274 -0.0591  0.2671  0.2576
13560TIP3    H162171   2.175   1.309  13.258 -0.8059 -0.4671 -0.4474
13560TIP3    H262172   2.314   1.258  13.226 -0.6798  0.1273 -0.8699
13561TIP3   OH262173   2.052   6.578   1.882  0.6833 -0.4822  0.0818
13561TIP3    H162174   2.074   6.661   1.925  1.3335 -0.0203 -1.0800
13561TIP3    H262175   2.038   6.517   1.954  1.8445  0.2272  0.9586
13562TIP3   OH262176   0.081   5.010  15.655 -0.3738  0.2679  0.3152
13562TIP3    H162177  -0.013   5.023  15.648 -0.3296  0.3780 -0.1151
13562TIP3    H262178   0.093   4.916  15.644 -0.3657  0.3541 -0.5519
13563TIP3   OH262179   1.075   6.704   6.180 -0.2615  0.3345 -0.9260
13563TIP3    H162180   1.148   6.666   6.132  0.3567  0.6742 -0.2694
13563TIP3    H262181   0.998   6.656   6.148  0.4882 -1.4870 -0.1473
13564TIP3   OH262182   5.447   2.609   0.106 -0.1206 -0.2797  0.1116
13564TIP3    H162183   5.382   2.539   0.095 -0.5177  0.4088 -2.3075
13564TIP3    H262184   5.454   2.649   0.020  1.9509  1.0739  0.8513
13565TIP3   OH262185   2.818   5.683   5.297  0.3557 -0.1846 -0.3797
13565TIP3    H162186   2.848   5.739   5.225 -1.2237  0.5055 -0.5268
13565TIP3    H262187   2.832   5.736   5.376 -0.4990  0.1670 -0.4551
13566TIP3   OH262188   5.777   1.583   1.143 -0.1816  0.0154  0.7410
13566TIP3    H162189   5.803   1.554   1.056  0.8873 -0.7986  1.3044
13566TIP3    H262190   5.724   1.511   1.177 -0.7974  0.4350  0.6795
13567TIP3   OH262191   4.678   3.226  16.004  0.0469  0.3311 -0.0399
13567TIP3    H162192   4.752   3.213  15.944  0.4495  0.5655  0.3957
13567TIP3    H262193   4.665   3.321  16.006  0.5726  0.4002  0.8626
13568TIP3   OH262194   3.314   2.926  10.934  0.1176  0.1429 -0.0134
13568TIP3    H162195   3.260   2.847  10.935 -0.1031  0.2896  1.0172
13568TIP3    H262196   3.379   2.909  10.866  0.4046 -1.1769  0.5382
13569TIP3   OH262197   6.494   6.763   2.034  0.0150  0.6992  0.4709
13569TIP3    H162198   6.500   6.858   2.047 -1.1465  1.3890 -2.9729
13569TIP3    H262199   6.585   6.734   2.030  0.4817  2.2018 -1.1149
13570TIP3   OH262200   5.467   6.446   0.811 -0.1180  0.4559 -0.0810
13570TIP3    H162201   5.530   6.374   0.824  0.4033  0.6327 -1.4850
13570TIP3    H262202   5.518   6.514   0.767 -0.5042  1.8701  1.5446
13571TIP3   OH262203   1.060   2.795   2.382 -0.4605 -0.3387 -0.2036
13571TIP3    H162204   1.041   2.747   2.463  0.8312  0.1327  0.3997
13571TIP3    H262205   1.018   2.880   2.393 -0.6677 -0.4352 -0.2343
13572TIP3   OH262206   3.170   1.920   1.836  0.0350  0.1303  0.0130
13572TIP3    H162207   3.113   1.990   1.868  1.2703  1.0568  0.2514
13572TIP3    H262208   3.191   1.946   1.746 -2.5118 -1.8915 -1.3385
13573TIP3   OH262209   4.786   0.238  15.915  0.3316  0.1106  0.6608
13573TIP3    H162210   4.717   0.304  15.913  0.4903  0.3994 -3.7749
13573TIP3    H262211   4.742   0.157  15.887  1.3070 -0.2618  0.1705
13574TIP3   OH262212   2.033   4.116   4.132  0.9314 -0.8072  0.0316
13574TIP3    H162213   1.949   4.070   4.132  1.2369 -1.3998 -1.4257
13574TIP3    H262214   2.019   4.191   4.190  0.0910 -2.1194  1.5995
13575TIP3   OH262215   0.986   0.007  13.594  1.2396 -0.8058  0.3045
13575TIP3    H162216   1.053  -0.000  13.662 -0.3173 -1.7122  1.8453
13575TIP3    H262217   0.908  -0.030  13.635 -0.2670  0.4254 -1.3299
13576TIP3   OH262218   4.352   3.410   0.297 -0.1409  0.7589  0.2809
13576TIP3    H162219   4.406   3.387   0.222  1.2879  1.5017  1.0326
13576TIP3    H262220   4.395   3.368   0.372 -0.0290  2.1104  1.0224
13577TIP3   OH262221   3.977   4.166  14.471  0.7487 -0.4024  0.1387
13577TIP3    H162222   3.891   4.173  14.512  0.9546  2.3433  0.3135
13577TIP3    H262223   3.959   4.171  14.377  0.7484  1.6866  0.2125
13578TIP3   OH262224   4.420   2.548   0.297  0.2435 -0.1030 -0.1848
13578TIP3    H162225   4.474   2.625   0.282 -0.1429  0.0942 -0.5521
13578TIP3    H262226   4.412   2.543   0.392  1.7290 -0.6990 -0.0682
13579TIP3   OH262227   0.673   0.502  15.658  0.4145  0.4458 -0.4108
13579TIP3    H162228   0.588   0.519  15.698  1.2847  2.8263  0.5923
13579TIP3    H262229   0.737   0.527  15.725  2.0128 -3.0929 -0.3544
13580TIP3   OH262230   1.762   1.339  16.145 -0.2229 -0.2206 -0.1103
13580TIP3    H162231   1.815   1.310  16.071 -1.2382  0.6794 -1.2306
13580TIP3    H262232   1.825   1.376  16.206  0.5497 -0.1396 -0.9306
13581TIP3   OH262233   2.652   2.355   6.293 -0.2691 -0.2611 -0.0502
13581TIP3    H162234   2.690   2.356   6.381 -0.8333 -1.3420  0.2200
13581TIP3    H262235   2.558   2.370   6.307 -0.3916 -0.6245 -0.4498
13582TIP3   OH262236   3.620   0.883  15.339 -0.1971  0.3888 -0.6999
13582TIP3    H162237   3.666   0.958  15.377  0.6022 -0.3321 -0.1942
13582TIP3    H262238   3.685   0.842  15.281  0.5868 -1.7956  1.5135
13583TIP3   OH262239   1.533   5.378  11.132  0.3949 -0.3604  0.2978
13583TIP3    H162240   1.622   5.410  11.145  0.4079 -0.8720  1.6505
13583TIP3    H262241   1.538   5.324  11.052  0.7399  1.5185 -1.0045
13584TIP3   OH262242   4.790   0.945  12.569  0.4298  0.2823  0.3133
13584TIP3    H162243   4.802   0.859  12.528  0.0258 -0.6253  1.9753
13584TIP3    H262244   4.708   0.978  12.533 -0.2080 -0.7411  0.7614
13585TIP3   OH262245   5.065   1.577   0.054 -0.0046 -0.7923  0.5279
13585TIP3    H162246   5.104   1.543  -0.026  0.9584 -1.1706  1.1399
13585TIP3    H262247   5.022   1.658   0.027  0.2283 -0.9602 -0.3851
13586TIP3   OH262248   4.349   4.464   2.493  0.4271 -0.0819  0.0274
13586TIP3    H162249   4.435   4.505   2.494  1.2727 -1.7453  0.4832
13586TIP3    H262250   4.348   4.410   2.572 -0.6415 -0.8479 -0.4799
13587TIP3   OH262251   5.020   3.411  12.654  0.0001  0.2585 -0.0016
13587TIP3    H162252   4.997   3.503  12.673 -0.7470 -0.0203  0.4897
13587TIP3    H262253   4.978   3.394  12.569 -3.9475 -0.9774  1.9561
13588TIP3   OH262254   3.270   2.851  16.585 -0.3658 -0.4080 -0.1390
13588TIP3    H162255   3.333   2.861  16.513 -2.0503 -1.6762 -1.9030
13588TIP3    H262256   3.193   2.902  16.557 -0.6918 -0.0727  1.2793
13589TIP3   OH262257   1.683   1.440  14.357  0.2356  0.0559  0.3165
13589TIP3    H162258   1.598   1.408  14.329  1.1631 -3.1165  0.6930
13589TIP3    H262259   1.733   1.450  14.276  0.1934 -0.4060  0.2274
13590TIP3   OH262260   3.865   3.905  12.339 -0.0899 -0.1645 -0.0696
13590TIP3    H162261   3.886   3.813  12.353  0.5080 -0.1712 -0.9317
13590TIP3    H262262   3.839   3.938  12.425  3.2554 -0.1869  1.0860
13591TIP3   OH262263   1.344   6.556   4.140  0.5691 -0.0930 -0.3574
13591TIP3    H162264   1.422   6.503   4.153 -0.2733 -0.7012  3.2229
13591TIP3    H262265   1.313   6.533   4.052  2.8617 -1.8683 -0.7817
13592TIP3   OH262266   4.282   6.411  11.681  0.5953 -0.0743 -0.1703
13592TIP3    H162267   4.190   6.432  11.698  0.9483  2.1837 -0.7510
13592TIP3    H262268   4.279   6.347  11.610 -0.5051  0.1851 -0.3719
13593TIP3   OH262269   0.831   1.795  17.155 -0.4387 -0.3560  0.0868
13593TIP3    H162270   0.923   1.800  17.128 -0.9148 -2.0029 -2.1743
13593TIP3    H262271   0.783   1.830  17.080 -1.7439 -1.9858  0.1219
13594TIP3   OH262272   2.447   1.264  16.619  0.0871  0.0457  0.2810
13594TIP3    H162273   2.459   1.314  16.699  2.4034  0.6018 -0.3367
13594TIP3    H262274   2.532   1.266  16.576 -0.6287 -1.6515 -1.3960
13595TIP3   OH262275   4.020   0.053  11.155  0.1216 -0.5189  0.1369
13595TIP3    H162276   3.945   0.026  11.101  0.0864 -0.9672  0.4025
13595TIP3    H262277   4.088   0.074  11.092  0.3113 -1.7252 -0.0795
13596TIP3   OH262278   6.457   4.206   1.965 -0.4336  0.2044 -0.1224
13596TIP3    H162279   6.506   4.250   2.034 -0.6123 -0.1321  0.2219
13596TIP3    H262280   6.389   4.157   2.011  0.0235 -0.7846 -0.4532
13597TIP3   OH262281   1.541   6.610  12.197 -0.6604  0.6456  0.3837
13597TIP3    H162282   1.615   6.658  12.237 -0.2785 -0.2765  0.8189
13597TIP3    H262283   1.468   6.672  12.200  0.2519  1.8319 -0.6832
13598TIP3   OH262284   5.537   5.819   1.296 -0.7198 -0.5304  0.1335
13598TIP3    H162285   5.610   5.808   1.356  0.3914 -0.7676 -1.2053
13598TIP3    H262286   5.465   5.770   1.336 -0.6335  0.9003  2.2059
13599TIP3   OH262287   1.661   3.592  16.416  0.5254 -0.0306 -0.0913
13599TIP3    H162288   1.638   3.620  16.327  0.9734 -3.8001 -1.5734
13599TIP3    H262289   1.579   3.561  16.453  0.7562 -0.6650 -0.1071
13600TIP3   OH262290   3.315   4.033   2.604  0.1198 -0.5789  0.3777
13600TIP3    H162291   3.310   4.114   2.655 -0.4071  0.5744 -1.4075
13600TIP3    H262292   3.386   4.049   2.542 -1.5881 -0.4355 -1.6506
13601TIP3   OH262293   4.585   2.937  15.944  0.4836 -0.1373  0.3172
13601TIP3    H162294   4.576   3.015  15.999  1.1640  0.9855 -1.0628
13601TIP3    H262295   4.672   2.946  15.905 -0.4744 -0.0945 -1.9955
13602TIP3   OH262296   5.015   5.726   0.717 -0.3925 -0.0031 -0.4692
13602TIP3    H162297   5.068   5.773   0.782 -2.1004  0.9368  0.2912
13602TIP3    H262298   5.027   5.633   0.739  0.1469  0.2362  0.3115
13603TIP3   OH262299   6.481   3.614   2.427  0.0620  0.5294 -0.2527
13603TIP3    H162300   6.531   3.632   2.506 -0.6278  2.2750 -0.1593
13603TIP3    H262301   6.496   3.521   2.409  0.8441  0.2864  1.4721
13604TIP3   OH262302   0.419   5.943   4.682 -0.0825  0.7565 -0.6438
13604TIP3    H162303   0.366   5.959   4.603  0.2540  1.6908 -0.6906
13604TIP3    H262304   0.461   5.858   4.665 -0.7810  0.4788 -1.0389
13605TIP3   OH262305   3.736   5.625   1.207 -0.8844  0.2104 -0.1688
13605TIP3    H162306   3.791   5.548   1.189 -0.8478  0.3388 -0.6117
13605TIP3    H262307   3.662   5.617   1.147 -1.8276 -0.4250  1.0250
13606TIP3   OH262308   1.375   3.721   0.840 -0.5325  0.1340 -0.4941
13606TIP3    H162309   1.471   3.727   0.837 -0.4759  1.6190  1.6326
13606TIP3    H262310   1.357   3.628   0.851  0.7983 -0.0340  0.6486
13607TIP3   OH262311   5.629   2.944  13.002 -0.2272 -0.2005  0.1785
13607TIP3    H162312   5.722   2.924  13.002  0.2512  1.6576 -1.2535
13607TIP3    H262313   5.608   2.960  12.910 -1.8057  0.0821  0.5554
13608TIP3   OH262314   2.219   5.136   0.369 -0.0922  0.0042  0.2712
13608TIP3    H162315   2.172   5.117   0.451  3.0564  1.4442  2.6618
13608TIP3    H262316   2.180   5.218   0.338  0.9433  1.4611  2.4798
13609TIP3   OH262317   4.386   1.259   1.255  0.1412 -0.0596  0.5589
13609TIP3    H162318   4.454   1.318   1.288 -0.0947  1.4263 -1.4380
13609TIP3    H262319   4.426   1.172   1.258  0.7733  0.2373  2.8489
13610TIP3   OH262320   4.681   3.549   0.839  0.3828 -0.4564  0.2707
13610TIP3    H162321   4.746   3.620   0.833  0.7170 -0.8748 -1.7682
13610TIP3    H262322   4.666   3.539   0.932  0.5691  2.0896  0.6446
13611TIP3   OH262323   5.288   5.842  15.495 -0.1271 -0.0511 -0.2232
13611TIP3    H162324   5.321   5.785  15.426 -0.5795  0.9098 -1.2749
13611TIP3    H262325   5.243   5.783  15.556  0.4018 -0.9345 -0.6722
13612TIP3   OH262326   1.133   2.267   0.994  0.2613 -0.2537  0.0699
13612TIP3    H162327   1.111   2.205   1.063 -0.4494 -1.0305 -0.8298
13612TIP3    H262328   1.202   2.223   0.943 -0.6636 -0.5903 -0.9277
13613TIP3   OH262329   4.147   4.915  13.760  0.5635  0.2164 -0.1459
13613TIP3    H162330   4.161   4.843  13.698  0.0466  0.4049 -0.4915
13613TIP3    H262331   4.164   4.994  13.709  1.0812  0.3425  0.2199
13614TIP3   OH262332   6.318   1.788  11.808  0.8113  0.7565 -0.7933
13614TIP3    H162333   6.278   1.845  11.742 -0.5885  0.5200 -0.1893
13614TIP3    H262334   6.403   1.828  11.826 -0.2451  2.8577 -0.1627
13615TIP3   OH262335   4.567   5.511   2.608  0.1061 -0.1302  0.0921
13615TIP3    H162336   4.531   5.586   2.561 -1.7464 -0.7868  0.4022
13615TIP3    H262337   4.599   5.452   2.539  1.0930  0.6875 -0.1694
13616TIP3   OH262338   4.582   2.573  12.069  0.4750  0.4974  0.6307
13616TIP3    H162339   4.577   2.663  12.038  2.4462  0.4830  0.1245
13616TIP3    H262340   4.596   2.521  11.989 -0.1693 -0.2003  0.9644
13617TIP3   OH262341   6.779   5.881  10.496 -0.2523  0.1543 -0.1391
13617TIP3    H162342   6.787   5.795  10.453 -0.6920 -1.6648  3.1444
13617TIP3    H262343   6.685   5.895  10.505 -0.2285  1.5851 -1.5675
13618TIP3   OH262344   5.703   5.961  12.215  0.5766  0.1014 -0.3779
13618TIP3    H162345   5.777   5.917  12.171 -1.7099 -2.4793 -2.0042
13618TIP3    H262346   5.655   6.003  12.143 -1.0672 -0.7434  0.1918
13619TIP3   OH262347   0.887   2.602  16.935 -0.0661  0.4477  0.3559
13619TIP3    H162348   0.846   2.543  16.872 -1.1927 -1.0643  2.3777
13619TIP3    H262349   0.843   2.686  16.921  1.4906  0.9172 -2.4869
13620TIP3   OH262350   1.682   4.708  15.523  0.1664 -0.2392  0.2258
13620TIP3    H162351   1.747   4.759  15.476  1.6868 -2.3251 -0.0336
13620TIP3    H262352   1.726   4.680  15.603 -0.8634 -0.5812  0.7002
13621TIP3   OH262353   1.459   3.051  16.467  0.2353  1.0029  0.4069
13621TIP3    H162354   1.370   3.072  16.440  0.7841  3.9072  0.4826
13621TIP3    H262355   1.513   3.072  16.391  0.8830 -0.7661  0.3456
13622TIP3   OH262356   2.593   2.498  14.888  0.0673 -0.1750 -0.3543
13622TIP3    H162357   2.516   2.549  14.913  0.0300 -0.2479 -0.3208
13622TIP3    H262358   2.610   2.522  14.797  0.8080  0.8621  0.0326
13623TIP3   OH262359   4.102   5.540  14.322  0.0846 -0.4025  0.6042
13623TIP3    H162360   4.079   5.620  14.273 -1.5977 -0.3243  1.4610
13623TIP3    H262361   4.028   5.481  14.307  0.7013 -1.3121  1.0692
13624TIP3   OH262362   0.565   1.200  13.654 -0.4206 -0.1459  0.2486
13624TIP3    H162363   0.509   1.133  13.693 -2.3832  1.1055 -0.2502
13624TIP3    H262364   0.504   1.270  13.630  1.2749  0.9307 -1.1346
13625TIP3   OH262365   0.082   2.255   2.065  1.0912  0.3586 -0.1475
13625TIP3    H162366   0.043   2.180   2.108  2.5895 -0.6022 -0.3891
13625TIP3    H262367   0.067   2.240   1.971 -1.1320  1.8578 -0.1137
13626TIP3   OH262368   3.178   5.816   3.305 -0.0055  0.1535 -0.4424
13626TIP3    H162369   3.164   5.829   3.211  0.5968  0.9212 -0.4362
13626TIP3    H262370   3.268   5.846   3.320 -0.3138  0.6282  0.4898
13627TIP3   OH262371   2.564   3.091   2.566 -0.2889 -0.0209  0.7580
13627TIP3    H162372   2.600   3.011   2.526 -3.5789 -2.1168  1.5213
13627TIP3    H262373   2.527   3.140   2.492  0.5467  0.1231  0.4275
13628TIP3   OH262374   2.352   4.490   2.169 -0.4806  0.1487 -0.2766
13628TIP3    H162375   2.424   4.529   2.218 -0.9167  0.8645 -0.2055
13628TIP3    H262376   2.394   4.427   2.111  0.0912 -0.3423  0.6472
13629TIP3   OH262377   4.527   5.675  11.787  0.3375  0.1319  0.3568
13629TIP3    H162378   4.544   5.714  11.701  1.7059  0.8446  0.9124
13629TIP3    H262379   4.526   5.749  11.848  0.2838 -0.4437  1.0748
13630TIP3   OH262380   3.655   6.648   2.563  0.0798  0.5879 -0.1797
13630TIP3    H162381   3.617   6.563   2.540 -0.3685  0.4400  1.0766
13630TIP3    H262382   3.607   6.676   2.641 -0.0503  2.1872 -0.7980
13631TIP3   OH262383   2.889   0.971   4.894 -0.0438 -0.1265 -0.2878
13631TIP3    H162384   2.946   1.047   4.884  0.5917 -0.4691  0.6199
13631TIP3    H262385   2.829   0.976   4.820  1.2452  0.1721 -1.3502
13632TIP3   OH262386   0.284   4.069  14.553  0.2958 -0.3584 -0.3999
13632TIP3    H162387   0.266   4.037  14.641 -1.3111  0.0770 -0.5359
13632TIP3    H262388   0.376   4.096  14.556  0.9679 -2.4957  0.4390
13633TIP3   OH262389   2.464   5.457   1.867 -0.2811 -0.1627 -0.2081
13633TIP3    H162390   2.522   5.441   1.792 -1.0323 -1.2136 -0.5868
13633TIP3    H262391   2.488   5.545   1.897  0.4850  0.0156 -1.2655
13634TIP3   OH262392   4.427   3.230  11.701  0.5082 -0.1170  0.3725
13634TIP3    H162393   4.363   3.289  11.661 -0.9025 -0.9580  1.2885
13634TIP3    H262394   4.374   3.169  11.752  2.0907 -0.4978  1.6417
13635TIP3   OH262395   4.359   4.113  11.511  0.1576  0.0464 -0.4434
13635TIP3    H162396   4.366   4.202  11.477  2.3592 -0.3856 -1.3012
13635TIP3    H262397   4.344   4.124  11.605 -1.7941  1.2717 -0.8389
13636TIP3   OH262398   5.085   3.350  11.146 -0.1617 -0.2682 -0.0080
13636TIP3    H162399   5.110   3.436  11.182 -1.6568 -0.6080  2.0542
13636TIP3    H262400   5.147   3.335  11.075 -1.1016  3.4659 -1.9119
13637TIP3   OH262401   4.256   3.061  15.353  0.0925 -0.0103 -0.6653
13637TIP3    H162402   4.350   3.057  15.372  0.4248 -0.8968 -2.2991
13637TIP3    H262403   4.219   3.112  15.425  1.7828  0.1290  0.1523
13638TIP3   OH262404   3.528   2.210   1.753  0.1252 -0.0135 -0.0392
13638TIP3    H162405   3.445   2.228   1.709 -0.0407 -1.4175 -0.3463
13638TIP3    H262406   3.503   2.177   1.839  0.2546 -2.2335 -0.7900
13639TIP3   OH262407   4.208   2.098  15.700 -0.2126  0.2432  0.7276
13639TIP3    H162408   4.232   2.165  15.764 -0.9524  0.6671  0.5784
13639TIP3    H262409   4.215   2.015  15.749  2.6903  0.1724  0.3527
13640TIP3   OH262410   5.095   4.904  12.430 -0.2261 -0.9509  0.0307
13640TIP3    H162411   5.170   4.902  12.370  0.0597 -1.3147  0.3959
13640TIP3    H262412   5.112   4.978  12.487  0.1853 -1.4257  0.5298
13641TIP3   OH262413   4.943   3.790   4.741 -0.3891 -0.0592 -0.3397
13641TIP3    H162414   5.019   3.789   4.799 -0.9969  0.9056  0.5109
13641TIP3    H262415   4.959   3.863   4.681 -0.3763 -0.2174 -0.5285
13642TIP3   OH262416   0.870   6.492  13.025 -0.0000  0.5472  0.1381
13642TIP3    H162417   0.952   6.470  13.070  0.4980  2.5754  0.3255
13642TIP3    H262418   0.808   6.427  13.056  0.7827  0.7953  2.4494
13643TIP3   OH262419   5.802   6.199   3.004  0.0914 -0.6315 -0.2958
13643TIP3    H162420   5.877   6.142   2.986  0.0359 -0.6699 -0.4077
13643TIP3    H262421   5.816   6.229   3.094 -0.5760 -1.8876  0.2442
13644TIP3   OH262422   6.032   4.333   2.291 -0.3601 -0.0531 -1.0800
13644TIP3    H162423   5.985   4.253   2.265 -0.8312  0.1465 -0.8682
13644TIP3    H262424   6.107   4.302   2.341 -0.7691 -0.3536 -0.6423
13645TIP3   OH262425   3.830   2.620   2.046  0.5811  0.2290 -0.6469
13645TIP3    H162426   3.822   2.716   2.047 -2.0382  0.0885  0.0005
13645TIP3    H262427   3.750   2.589   2.088  1.1384 -2.2892 -1.2784
13646TIP3   OH262428   5.033   1.758  15.515 -0.5270  0.5779  0.1536
13646TIP3    H162429   5.017   1.681  15.570 -0.1961  1.4327  1.4933
13646TIP3    H262430   5.013   1.728  15.426 -1.0290 -0.8644  0.7148
13647TIP3   OH262431   2.791   6.432  15.534  0.2098 -0.0734  0.3890
13647TIP3    H162432   2.720   6.496  15.538 -0.9020 -1.2351 -0.2091
13647TIP3    H262433   2.769   6.368  15.602  1.8312  0.6496  1.6715
13648TIP3   OH262434   4.062   5.072  10.847  0.0399  0.6095  0.2804
13648TIP3    H162435   3.994   5.139  10.856  0.7132  1.4627 -0.7626
13648TIP3    H262436   4.015   4.995  10.813 -0.3527  1.3251 -0.8567
13649TIP3   OH262437   5.459   3.315  16.040 -0.2796 -0.0074  0.0931
13649TIP3    H162438   5.509   3.331  16.120 -1.1392 -0.4514  0.7363
13649TIP3    H262439   5.524   3.320  15.970  0.3687  1.0859  0.7391
13650TIP3   OH262440   0.642   4.825   0.213  0.1691 -0.0280  0.0896
13650TIP3    H162441   0.681   4.876   0.143  0.9683 -1.7049 -0.7163
13650TIP3    H262442   0.681   4.860   0.293  0.8704  0.4744 -0.4639
13651TIP3   OH262443   2.669   6.138  14.415  0.7411 -0.1732  0.2441
13651TIP3    H162444   2.644   6.049  14.440 -2.4639  0.4970 -0.0820
13651TIP3    H262445   2.680   6.184  14.497 -1.6633  0.0341  0.5286
13652TIP3   OH262446   5.163   2.869  11.348  0.1824 -0.2717  0.1947
13652TIP3    H162447   5.254   2.853  11.325  0.4673  0.8859  0.4732
13652TIP3    H262448   5.164   2.950  11.400 -0.8529 -0.9329  1.3144
13653TIP3   OH262449   3.860   1.479  13.090  0.4106  0.1688  0.0599
13653TIP3    H162450   3.877   1.494  12.997  1.4501 -1.7272 -0.0933
13653TIP3    H262451   3.767   1.496  13.100 -0.6505 -3.3641 -2.2048
13654TIP3   OH262452   1.444   2.021  14.806 -0.0315 -0.0441  0.8024
13654TIP3    H162453   1.383   2.012  14.733 -1.4878 -2.3828  2.1669
13654TIP3    H262454   1.530   2.009  14.767 -0.6178  0.4884 -0.7505
13655TIP3   OH262455   4.896   1.942   2.397  0.6877 -0.2998  0.2823
13655TIP3    H162456   4.980   1.925   2.439 -0.1387 -1.9228  1.4159
13655TIP3    H262457   4.838   1.969   2.469  0.0244 -0.0720 -0.3242
13656TIP3   OH262458   5.480   0.743  14.148 -0.1091 -0.2008  0.4187
13656TIP3    H162459   5.441   0.741  14.236  1.1576 -0.7436  0.9932
13656TIP3    H262460   5.574   0.739  14.163  0.1496  0.0801 -0.9684
13657TIP3   OH262461   0.926   5.235   4.028  0.0153 -0.7211 -0.1988
13657TIP3    H162462   0.960   5.216   3.940  1.3356 -0.0287  0.1277
13657TIP3    H262463   1.002   5.270   4.075 -0.7667 -0.7496  1.1129
13658TIP3   OH262464   6.040   0.689  14.591 -0.1764 -0.3815 -0.1773
13658TIP3    H162465   5.965   0.652  14.637 -0.4290 -1.3769 -1.3370
13658TIP3    H262466   6.011   0.696  14.500  0.5116  0.9744 -0.3215
13659TIP3   OH262467   6.824   3.876  14.530  0.0637  0.3409  0.2616
13659TIP3    H162468   6.800   3.943  14.595  0.4399  0.3600  0.3825
13659TIP3    H262469   6.743   3.827  14.515 -0.3356  1.1283 -0.1871
13660TIP3   OH262470   1.423   2.637   4.888 -0.0294 -0.1907 -1.0868
13660TIP3    H162471   1.344   2.637   4.941  1.0961 -0.4852  0.6828
13660TIP3    H262472   1.393   2.614   4.800 -2.0710  1.1197 -0.8023
13661TIP3   OH262473   0.349   2.254   0.715  0.2979  0.1459 -0.4533
13661TIP3    H162474   0.268   2.234   0.668  0.6173  0.4992 -1.1714
13661TIP3    H262475   0.373   2.341   0.685  0.9397  0.0488 -0.2369
13662TIP3   OH262476   2.700   2.728   4.873  0.0827 -0.2404 -0.0867
13662TIP3    H162477   2.757   2.685   4.809  0.1145 -1.1688  0.5369
13662TIP3    H262478   2.665   2.655   4.925  0.4390  0.5279  1.2597
13663TIP3   OH262479   0.642   3.143  11.752 -0.6371 -0.3295 -0.1404
13663TIP3    H162480   0.632   3.053  11.720 -0.1626 -0.3762 -0.1722
13663TIP3    H262481   0.664   3.133  11.845  1.5288 -0.3500 -0.6042
13664TIP3   OH262482   5.482   5.738  13.307 -0.1872  0.1803 -0.1182
13664TIP3    H162483   5.424   5.701  13.241  0.7578  0.7395 -1.3009
13664TIP3    H262484   5.516   5.818  13.267 -0.6785  1.3099  1.6058
13665TIP3   OH262485   5.414   1.168   0.627 -0.2660  0.2370 -0.2558
13665TIP3    H162486   5.402   1.160   0.532 -0.7693  3.3752 -0.5539
13665TIP3    H262487   5.494   1.220   0.637 -0.5858  0.5087  1.0035
13666TIP3   OH262488   5.622   2.896  17.228  0.4735  0.5303 -0.5351
13666TIP3    H162489   5.715   2.901  17.254  0.9483  0.7997 -2.2060
13666TIP3    H262490   5.609   2.803  17.207  0.0823  0.3091  0.6027
13667TIP3   OH262491   4.895   2.822   1.799  0.7582  0.3302 -0.4089
13667TIP3    H162492   4.850   2.887   1.854  1.7738  0.4618  0.2903
13667TIP3    H262493   4.924   2.755   1.861 -0.5014 -0.9599 -1.1490
13668TIP3   OH262494   5.250   3.482  12.944  0.0971  0.2077  0.2076
13668TIP3    H162495   5.187   3.548  12.973  0.5297  0.5923  0.2908
13668TIP3    H262496   5.335   3.523  12.959  0.3604 -0.2229 -0.0996
13669TIP3   OH262497   6.536   0.249   0.447  0.6333  0.8879  0.2315
13669TIP3    H162498   6.628   0.235   0.470  0.4745 -0.3096  0.1956
13669TIP3    H262499   6.501   0.301   0.520  1.4893  1.9509 -0.0908
13670TIP3   OH262500   1.794   6.587  13.525 -0.2145  0.2896  0.0885
13670TIP3    H162501   1.796   6.609  13.432  2.4510  1.1838  0.2662
13670TIP3    H262502   1.709   6.618  13.555 -0.3545  1.7797 -1.6527
13671TIP3   OH262503   1.186   5.414   0.120 -0.1720  0.4299  1.0358
13671TIP3    H162504   1.271   5.451   0.143 -0.0595  0.8244  0.0585
13671TIP3    H262505   1.124   5.457   0.178  0.2741  0.2477  1.6541
13672TIP3   OH262506   3.868   5.261  10.845 -0.3072 -0.3937 -0.5603
13672TIP3    H162507   3.834   5.291  10.929  1.8328  1.0846 -0.1168
13672TIP3    H262508   3.832   5.321  10.780 -2.4889 -1.9335 -0.8724
13673TIP3   OH262509   3.462   5.605  11.420  0.0091 -0.3447  0.4132
13673TIP3    H162510   3.401   5.548  11.465 -1.0673 -0.3031 -0.9552
13673TIP3    H262511   3.407   5.670  11.376  1.1704  1.8409  1.9489
13674TIP3   OH262512   6.346   5.904   1.546 -0.4587 -0.1299 -0.7035
13674TIP3    H162513   6.416   5.847   1.514 -1.3257  0.2128 -3.5134
13674TIP3    H262514   6.292   5.849   1.602  1.5529 -0.6075  0.8610
13675TIP3   OH262515   5.574   2.515   3.274  0.3065 -0.1684  0.4766
13675TIP3    H162516   5.586   2.504   3.180  0.1692  2.1065  0.1299
13675TIP3    H262517   5.662   2.503   3.311  0.6248  0.2879 -0.1117
13676TIP3   OH262518   1.780   4.565   4.978 -0.3530 -0.4545 -0.2656
13676TIP3    H162519   1.694   4.607   4.984  0.0256  0.1849  0.8449
13676TIP3    H262520   1.762   4.480   4.938 -1.4059 -0.0664 -0.6548
13677TIP3   OH262521   4.476   5.688  12.267  0.4279 -0.7213 -0.1282
13677TIP3    H162522   4.495   5.777  12.298  1.3445 -0.5531 -1.1089
13677TIP3    H262523   4.541   5.634  12.312 -1.6370 -1.3359  2.3832
13678TIP3   OH262524   2.379   4.418  12.438 -0.0908 -0.1446 -0.6863
13678TIP3    H162525   2.291   4.438  12.406 -0.8763  0.3196  1.5853
13678TIP3    H262526   2.417   4.362  12.370 -1.3704  1.2466 -2.6650
13679TIP3   OH262527   2.907   4.164   5.942  0.7123  0.0373 -0.2221
13679TIP3    H162528   2.824   4.178   5.896 -0.0117  0.2109  1.0640
13679TIP3    H262529   2.895   4.081   5.988  1.7274 -0.5413 -0.9853
13680TIP3   OH262530   3.459   3.160  13.935 -0.1396  0.1532 -0.5178
13680TIP3    H162531   3.530   3.221  13.956 -1.0687  1.1008 -0.0121
13680TIP3    H262532   3.389   3.216  13.901 -0.2232 -0.8957 -2.1855
13681TIP3   OH262533   3.300   0.604   2.885 -0.0196 -0.3351 -0.0356
13681TIP3    H162534   3.346   0.600   2.969 -0.1360  1.7755  0.1806
13681TIP3    H262535   3.368   0.587   2.820  0.1277 -1.7113  0.4376
13682TIP3   OH262536   2.591   0.648  11.354 -0.0875  0.4400 -0.2373
13682TIP3    H162537   2.561   0.689  11.436  1.1343  1.6255 -0.3379
13682TIP3    H262538   2.517   0.595  11.325  0.0452 -1.4845  2.5596
13683TIP3   OH262539   5.563   0.565   2.242  0.4396 -0.1309 -0.5244
13683TIP3    H162540   5.570   0.516   2.160 -1.2136 -1.8901  0.3118
13683TIP3    H262541   5.473   0.548   2.272  0.4707  1.8255  0.8307
13684TIP3   OH262542   1.485   4.788   5.859  0.4838 -0.1447  0.6383
13684TIP3    H162543   1.456   4.811   5.948 -1.6987  0.5973 -0.1955
13684TIP3    H262544   1.452   4.860   5.805  2.2425 -0.3152 -0.7161
13685TIP3   OH262545   0.410   6.243   2.906  0.1474  0.2899 -0.9257
13685TIP3    H162546   0.380   6.172   2.963  0.3814  0.3956 -0.6686
13685TIP3    H262547   0.502   6.257   2.931 -0.0327  1.0098 -0.6317
13686TIP3   OH262548   0.770   5.612   5.405 -0.0147 -0.0579  0.4294
13686TIP3    H162549   0.696   5.642   5.458 -0.6822 -2.0750  0.7465
13686TIP3    H262550   0.732   5.594   5.319  0.1612 -0.7704  0.4911
13687TIP3   OH262551   2.476   5.289  16.769  0.2187 -0.5599  0.5059
13687TIP3    H162552   2.431   5.367  16.801  0.1852 -1.2207  2.1759
13687TIP3    H262553   2.493   5.237  16.847  1.6234 -1.5237 -0.3806
13688TIP3   OH262554   6.461   3.017  15.402  0.1110  0.3226 -0.0633
13688TIP3    H162555   6.416   3.058  15.475  0.1543  1.4483 -0.6505
13688TIP3    H262556   6.455   3.080  15.331 -2.1077 -1.7143 -1.8659
13689TIP3   OH262557   3.938   6.329  16.855  0.7289  0.4325 -0.0699
13689TIP3    H162558   3.980   6.299  16.775 -1.1895 -2.2807 -0.1870
13689TIP3    H262559   4.007   6.325  16.921  1.7532  0.4580 -1.1008
13690TIP3   OH262560   4.421   2.584  16.421 -0.0414 -0.0978  0.0281
13690TIP3    H162561   4.350   2.648  16.425  0.5638  0.8759 -2.8519
13690TIP3    H262562   4.470   2.607  16.343  2.4186 -1.8635  0.9359
13691TIP3   OH262563   5.002   6.600  15.735 -0.0313 -0.5438 -0.6098
13691TIP3    H162564   5.020   6.678  15.683 -1.5249 -1.2830 -2.3571
13691TIP3    H262565   4.984   6.633  15.823  0.7229  0.9310 -0.9827
13692TIP3   OH262566   2.017   5.310  16.181 -0.1945 -0.1325 -0.0159
13692TIP3    H162567   2.032   5.330  16.089 -0.9061 -1.1421 -0.3620
13692TIP3    H262568   2.103   5.284  16.214 -0.3077 -1.7845 -0.9237
13693TIP3   OH262569   2.556   3.574   2.893  0.5838 -0.2749 -0.0604
13693TIP3    H162570   2.580   3.607   2.807  1.7119 -0.6798  0.0886
13693TIP3    H262571   2.533   3.652   2.944  0.7761  0.0387 -0.4523
13694TIP3   OH262572   2.934   6.522   4.882 -0.4506  0.4840 -0.1821
13694TIP3    H162573   2.989   6.454   4.844 -1.9341 -1.6528  1.2339
13694TIP3    H262574   2.995   6.586   4.919  1.0722 -1.3167  0.5489
13695TIP3   OH262575   3.245   3.808   3.237 -0.1192 -0.0714 -0.0330
13695TIP3    H162576   3.305   3.844   3.171 -0.3278 -1.3689 -0.9711
13695TIP3    H262577   3.297   3.742   3.283 -0.1710  0.3760  0.6722
13696TIP3   OH262578   6.465   1.687  15.860  0.2385  0.1598 -0.4168
13696TIP3    H162579   6.542   1.739  15.882 -0.4385  1.1560 -0.3479
13696TIP3    H262580   6.476   1.606  15.909  1.6482 -0.0671 -1.0499
13697TIP3   OH262581   1.146   1.979   0.646 -0.2101  0.1896 -0.1060
13697TIP3    H162582   1.212   1.944   0.706  0.3621 -0.0868 -0.8846
13697TIP3    H262583   1.111   2.056   0.691  0.7922  0.4662  0.2334
13698TIP3   OH262584   1.047   1.094  14.561 -0.1296 -0.8245  0.2060
13698TIP3    H162585   1.007   1.064  14.642  0.5847 -0.6449  0.6343
13698TIP3    H262586   1.055   1.014  14.507 -2.1260 -0.6897 -0.3943
13699TIP3   OH262587   1.885   6.546   6.210 -0.2293  0.2709 -0.0309
13699TIP3    H162588   1.841   6.597   6.277  2.0401  0.2546  1.5933
13699TIP3    H262589   1.939   6.609   6.162 -0.3781 -0.0224 -0.5993
13700TIP3   OH262590   3.037   0.580   5.808  0.5119  0.1423 -0.4712
13700TIP3    H162591   3.002   0.575   5.719 -0.4746  0.1751 -0.0947
13700TIP3    H262592   2.999   0.659   5.845  1.3279  0.4111 -0.1784
13701TIP3   OH262593   4.374   0.203   5.158 -0.5844 -0.4270  0.2841
13701TIP3    H162594   4.369   0.201   5.062  0.7430 -3.4547  0.1915
13701TIP3    H262595   4.460   0.169   5.179 -1.2972 -0.9915  2.6073
13702TIP3   OH262596   1.476   5.883   3.030  0.1413  0.7154  0.7800
13702TIP3    H162597   1.385   5.855   3.038 -0.3880  2.3035  0.6829
13702TIP3    H262598   1.507   5.888   3.121  1.6053 -4.0382  0.8149
13703TIP3   OH262599   5.767   4.987   1.690 -0.3009 -0.5213  0.4283
13703TIP3    H162600   5.720   4.907   1.716 -0.5131  0.1556  2.2743
13703TIP3    H262601   5.858   4.970   1.712 -0.3938 -0.1542  1.1220
13704TIP3   OH262602   0.979   3.996   2.728  0.1792  0.2914 -0.1201
13704TIP3    H162603   1.032   3.968   2.803  1.4645  0.6552 -0.8545
13704TIP3    H262604   0.890   3.974   2.752  0.7770 -1.4093  0.6952
13705TIP3   OH262605   3.192   2.585  12.023  0.2718 -0.1444  0.2647
13705TIP3    H162606   3.208   2.595  11.930  0.4670  0.0491  0.3173
13705TIP3    H262607   3.244   2.655  12.064 -1.0404  0.8069  0.4090
13706TIP3   OH262608   2.862   5.490   5.681  0.3743  0.4325 -0.7380
13706TIP3    H162609   2.903   5.423   5.736 -2.7089 -2.0533 -1.1920
13706TIP3    H262610   2.812   5.544   5.742 -0.0480 -0.0025 -0.6883
13707TIP3   OH262611   3.975   3.016   2.464  0.2703  0.2002 -0.0537
13707TIP3    H162612   3.929   3.069   2.528 -0.5038 -0.0545 -0.3910
13707TIP3    H262613   3.973   3.069   2.384 -0.5538 -0.3604 -0.4063
13708TIP3   OH262614   2.084   0.403   2.690  0.1197 -0.2009 -0.0529
13708TIP3    H162615   2.079   0.480   2.633  6.0278  1.4831  1.0051
13708TIP3    H262616   2.079   0.440   2.779  1.6487 -1.1509  0.4673
13709TIP3   OH262617   5.829   6.673   4.276 -0.4771  0.2928  0.0933
13709TIP3    H162618   5.801   6.600   4.331  0.1867  2.5149  3.6630
13709TIP3    H262619   5.852   6.632   4.193 -1.2342 -3.3719  1.4884
13710TIP3   OH262620   5.951   0.728   4.954  0.0314 -0.3108 -0.3482
13710TIP3    H162621   5.877   0.670   4.939  0.7796 -1.5346  0.5376
13710TIP3    H262622   6.017   0.700   4.891  0.2607 -0.1957 -0.1629
13711TIP3   OH262623   0.793   0.997   4.440 -0.1259  1.2502 -0.2428
13711TIP3    H162624   0.876   0.955   4.462 -1.3010 -0.3305  1.4909
13711TIP3    H262625   0.760   1.030   4.523 -1.9535  0.4260 -0.5766
13712TIP3   OH262626   0.971   5.557   0.280  0.6891 -0.6422 -0.2191
13712TIP3    H162627   0.987   5.484   0.339 -1.9817 -1.7370 -0.6939
13712TIP3    H262628   0.923   5.621   0.332  0.7205 -0.3978 -0.4844
13713TIP3   OH262629   3.492   1.801   4.020 -0.2166  0.1767  0.5935
13713TIP3    H162630   3.454   1.749   4.091 -0.1237  0.3328  0.7574
13713TIP3    H262631   3.435   1.877   4.012 -0.7304 -0.2755 -0.0897
13714TIP3   OH262632   6.434   0.123   3.823  0.1191  0.1753  1.2361
13714TIP3    H162633   6.340   0.123   3.841  0.0843  0.3130  1.0600
13714TIP3    H262634   6.474   0.150   3.905  0.0403 -0.4048  1.4750
13715TIP3   OH262635   1.567   4.441   1.208  0.2091  0.1744  0.3516
13715TIP3    H162636   1.600   4.478   1.126  0.3476  0.5126  0.5583
13715TIP3    H262637   1.473   4.460   1.207  0.2034  0.1424  0.2550
13716TIP3   OH262638   1.743   6.513  14.925 -0.1798  0.3930 -0.0405
13716TIP3    H162639   1.766   6.421  14.943  0.0355  0.6185  0.8500
13716TIP3    H262640   1.789   6.563  14.992 -0.3312  1.1604 -0.4950
13717TIP3   OH262641   0.039   6.034   2.254 -0.6354 -0.3791  0.1529
13717TIP3    H162642   0.013   6.084   2.177  2.5524 -2.9696 -2.9215
13717TIP3    H262643   0.010   5.945   2.237  1.5127 -1.3493  1.1095
13718TIP3   OH262644   4.383   5.047   0.749 -0.6623 -0.0165 -0.0318
13718TIP3    H162645   4.472   5.016   0.764 -0.6740 -0.7220 -1.2637
13718TIP3    H262646   4.393   5.121   0.689 -0.9511 -0.8315 -1.1286
13719TIP3   OH262647   2.809   3.217  10.893 -0.4229 -0.2200  0.3281
13719TIP3    H162648   2.867   3.283  10.857  0.4798  0.4115  2.8208
13719TIP3    H262649   2.787   3.161  10.818  2.0521  0.4893 -1.0066
13720TIP3   OH262650   3.528   2.198   5.403  0.0767 -1.0791 -0.7135
13720TIP3    H162651   3.480   2.256   5.344  1.0456 -0.7255 -1.1867
13720TIP3    H262652   3.460   2.151   5.451 -0.7438  0.3996 -0.3611
13721TIP3   OH262653   0.194   0.658  13.404 -0.3815 -0.1860  0.2527
13721TIP3    H162654   0.184   0.747  13.370  2.5245 -0.6280 -2.1293
13721TIP3    H262655   0.171   0.601  13.330 -0.9208 -1.4369  1.3282
13722TIP3   OH262656   4.241   3.876  12.977 -0.0879 -0.1948 -0.1277
13722TIP3    H162657   4.215   3.950  12.922  0.0881  0.1001  0.1765
13722TIP3    H262658   4.256   3.915  13.063 -0.5147 -0.6725  0.1688
13723TIP3   OH262659   5.916   1.210  14.334 -0.2171  0.0816  0.2715
13723TIP3    H162660   5.859   1.276  14.295 -0.7117 -0.4171  0.1409
13723TIP3    H262661   5.911   1.135  14.274 -0.2804 -0.3621  0.8243
13724TIP3   OH262662   3.787   5.100   0.674  0.4399 -0.0875 -0.1625
13724TIP3    H162663   3.858   5.163   0.676  0.3940  0.0100 -1.0522
13724TIP3    H262664   3.789   5.058   0.760  1.9689 -0.5396 -0.3995
13725TIP3   OH262665   2.116   5.630   0.765  0.0929 -0.0551 -0.1100
13725TIP3    H162666   2.113   5.698   0.698 -0.6329 -0.1336 -0.1659
13725TIP3    H262667   2.088   5.674   0.845  0.6609 -0.0346  0.0789
13726TIP3   OH262668   3.502   6.725  12.484  0.3246  0.4578  0.0433
13726TIP3    H162669   3.540   6.809  12.508  0.7026  0.2763  0.0998
13726TIP3    H262670   3.571   6.681  12.434  0.2879  0.0168  0.3703
13727TIP3   OH262671   6.778   2.282  13.212  0.7846 -0.1420 -0.1828
13727TIP3    H162672   6.810   2.314  13.296  1.2820  0.2559 -0.5161
13727TIP3    H262673   6.771   2.187  13.223 -0.3680  0.0306  0.7079
13728TIP3   OH262674   3.060   3.042  12.245  0.1992 -0.1563 -0.3800
13728TIP3    H162675   3.132   3.014  12.300 -0.9428 -0.4579  1.0161
13728TIP3    H262676   2.990   3.067  12.306 -1.4728 -1.4056 -1.6624
13729TIP3   OH262677   4.259   4.806   0.580 -0.0719 -0.4300 -0.0513
13729TIP3    H162678   4.224   4.722   0.549 -0.0599 -0.5303  0.2078
13729TIP3    H262679   4.237   4.809   0.673 -0.4116  0.0263 -0.1391
13730TIP3   OH262680   6.537   2.257   1.825 -0.0653 -0.0319  0.1149
13730TIP3    H162681   6.620   2.291   1.791 -0.4567 -0.0264 -0.8515
13730TIP3    H262682   6.562   2.179   1.875  0.4166 -0.6911 -1.1255
13731TIP3   OH262683   3.469   5.238  12.646 -0.2649  0.0694 -0.0701
13731TIP3    H162684   3.529   5.310  12.628 -0.9749 -0.0635 -3.6474
13731TIP3    H262685   3.505   5.164  12.597 -1.9906 -0.6988 -0.2430
13732TIP3   OH262686   4.023   4.234   4.386  0.4123  0.1571 -0.0638
13732TIP3    H162687   3.996   4.244   4.295  2.3666  0.5136 -0.6562
13732TIP3    H262688   3.978   4.155   4.416  1.1263 -1.0325 -1.9317
13733TIP3   OH262689   5.421   5.157   1.504  0.4307  0.6820  0.0067
13733TIP3    H162690   5.348   5.206   1.468  0.2140 -0.6428 -1.4374
13733TIP3    H262691   5.499   5.195   1.463  0.5854  1.8759  1.3025
13734TIP3   OH262692   1.447   3.803   5.199 -0.1274  0.1346 -0.0505
13734TIP3    H162693   1.422   3.722   5.153  0.3981  0.2766 -0.6014
13734TIP3    H262694   1.543   3.797   5.207 -0.1859  0.2593  0.7546
13735TIP3   OH262695   6.228   5.473   1.820 -0.1146  0.0719 -0.3897
13735TIP3    H162696   6.310   5.424   1.814  0.0018  0.1206  0.5763
13735TIP3    H262697   6.162   5.415   1.781  0.7204  0.9960 -3.4000
13736TIP3   OH262698   4.879   0.786  10.980  0.2513 -0.2416 -0.0964
13736TIP3    H162699   4.794   0.748  11.001  1.6716 -3.8334 -0.1138
13736TIP3    H262700   4.873   0.810  10.888 -0.2226 -2.3186 -0.6543
13737TIP3   OH262701   5.448   1.771   4.625 -0.6455  0.7854 -0.5258
13737TIP3    H162702   5.540   1.754   4.604 -0.5844  0.9462 -0.3897
13737TIP3    H262703   5.418   1.692   4.670 -0.7390  0.4964 -1.0942
13738TIP3   OH262704   2.897   2.087  14.889 -0.0174 -0.2692 -0.2417
13738TIP3    H162705   2.886   2.047  14.975 -1.0162  2.0583  0.8005
13738TIP3    H262706   2.939   2.171  14.906 -2.2612  1.2765 -1.6676
13739TIP3   OH262707   4.172   4.566   3.717  0.2005 -0.2899  0.6623
13739TIP3    H162708   4.077   4.574   3.707  0.2049 -0.9787 -0.0599
13739TIP3    H262709   4.207   4.613   3.641  0.4591  0.2757  1.1217
13740TIP3   OH262710   6.528   3.028   0.454 -0.7564  0.0880 -0.0735
13740TIP3    H162711   6.445   2.984   0.439 -1.2961  1.0424  0.0248
13740TIP3    H262712   6.509   3.092   0.523  0.4404 -0.7374  1.0830
13741TIP3   OH262713   4.837   4.888   0.954  0.0202  0.0273 -0.0957
13741TIP3    H162714   4.896   4.929   0.891  0.2639 -0.2142 -0.0244
13741TIP3    H262715   4.891   4.823   0.999 -0.7812 -1.5897 -1.3609
13742TIP3   OH262716   2.421   6.778   1.961 -0.5644  0.2672  0.6727
13742TIP3    H162717   2.493   6.805   1.904  0.0390  0.2993  1.4330
13742TIP3    H262718   2.412   6.684   1.945  0.8065 -0.1039  1.7934
13743TIP3   OH262719   0.586   1.086   2.661 -0.1889  0.0886  0.2337
13743TIP3    H162720   0.525   1.012   2.657  1.8425 -1.7343  0.8938
13743TIP3    H262721   0.538   1.155   2.707 -1.9278 -1.0230  0.1920
13744TIP3   OH262722   5.531   3.805   4.126 -0.5078 -0.2393  0.2587
13744TIP3    H162723   5.449   3.754   4.124  0.8921 -2.6324 -1.7394
13744TIP3    H262724   5.575   3.776   4.205  0.2754 -2.3391 -0.8571
13745TIP3   OH262725   0.398   1.322  12.542  0.0204  0.1236 -0.0331
13745TIP3    H162726   0.326   1.372  12.504  0.0197  0.7445  0.7543
13745TIP3    H262727   0.386   1.330  12.637  0.3756 -0.8663  0.1112
13746TIP3   OH262728   4.407   3.850   1.316 -0.8378  0.1221  0.4731
13746TIP3    H162729   4.348   3.898   1.374 -1.1056  0.8671 -0.3938
13746TIP3    H262730   4.494   3.880   1.340 -1.1072  3.0811 -1.7450
13747TIP3   OH262731   2.671   4.022   1.618  0.6225 -0.6049  0.0973
13747TIP3    H162732   2.727   4.073   1.677  1.0186  0.9891 -1.5797
13747TIP3    H262733   2.586   4.021   1.661  0.1225  3.0097 -0.5044
13748TIP3   OH262734   4.781   0.562   0.158 -0.2431  0.0725 -0.3392
13748TIP3    H162735   4.834   0.482   0.156  0.7951  0.7439 -0.7059
13748TIP3    H262736   4.808   0.606   0.238 -1.7366 -0.5259  0.5246
13749TIP3   OH262737   0.274   4.270  14.371  0.2991 -0.7206 -0.1994
13749TIP3    H162738   0.249   4.221  14.450  0.2716 -1.2788 -0.5484
13749TIP3    H262739   0.251   4.360  14.391 -2.0701 -1.1876 -0.4890
13750TIP3   OH262740   6.601   4.817  14.005  0.3768  0.1082 -0.5244
13750TIP3    H162741   6.516   4.810  13.962  0.5818  1.8048 -1.2977
13750TIP3    H262742   6.600   4.750  14.074 -2.0897  0.9476  0.3423
13751TIP3   OH262743   4.021   4.633   2.651  0.1908  0.6772 -0.4250
13751TIP3    H162744   3.968   4.703   2.690  1.3718  1.6830 -0.5687
13751TIP3    H262745   4.100   4.629   2.705 -0.2161 -1.1544  0.1026
13752TIP3   OH262746   2.924   4.565   0.404 -0.3161  0.8650  0.1983
13752TIP3    H162747   2.835   4.529   0.406 -0.1464  0.3035 -1.4825
13752TIP3    H262748   2.981   4.489   0.397  0.3730  1.1775  1.9285
13753TIP3   OH262749   4.018   3.822   0.736 -0.0039 -0.6978  0.3436
13753TIP3    H162750   4.041   3.914   0.718 -0.8189 -0.6054 -0.3097
13753TIP3    H262751   4.097   3.784   0.772  0.4882  0.1522  0.1893
13754TIP3   OH262752   4.996   5.877  12.206 -0.4122 -0.0965 -0.2038
13754TIP3    H162753   5.053   5.919  12.271 -1.1194  1.1784 -0.3729
13754TIP3    H262754   4.928   5.942  12.189  0.0953 -0.1271 -2.6972
13755TIP3   OH262755   3.548   6.161   0.690 -0.4739 -0.3070 -0.1671
13755TIP3    H162756   3.515   6.091   0.632 -0.1896 -0.0870 -0.5991
13755TIP3    H262757   3.488   6.233   0.676  0.3483  0.2167 -1.2156
13756TIP3   OH262758   2.545   2.858  16.611 -0.5647  0.0288 -0.1749
13756TIP3    H162759   2.528   2.950  16.588  0.5800  0.5525  0.9466
13756TIP3    H262760   2.612   2.830  16.548  0.8400  0.7369  0.9362
13757TIP3   OH262761   1.798   0.357  16.794  0.0839  0.1443 -0.2256
13757TIP3    H162762   1.774   0.446  16.768  0.6403  0.5180  0.5139
13757TIP3    H262763   1.889   0.348  16.767  0.9574  0.8451  2.2818
13758TIP3   OH262764   4.621   3.828  15.761 -0.6668  0.5598  0.1276
13758TIP3    H162765   4.583   3.756  15.812  2.2356 -2.1480 -1.2390
13758TIP3    H262766   4.682   3.871  15.821  2.6526 -2.5428 -0.6750
13759TIP3   OH262767   4.135   3.661   2.018  0.2153 -0.7732  0.5459
13759TIP3    H162768   4.141   3.736   1.958 -0.2826 -1.3892 -0.3022
13759TIP3    H262769   4.076   3.690   2.087  0.3676 -0.2306  0.4532
13760TIP3   OH262770   5.674   2.263  16.798  0.5237  0.5939 -0.1318
13760TIP3    H162771   5.720   2.256  16.714  1.2612  1.6352  0.1512
13760TIP3    H262772   5.652   2.173  16.821 -0.6367  0.3678 -1.9317
13761TIP3   OH262773   4.626   1.124   5.387 -0.4610  0.0189  0.1955
13761TIP3    H162774   4.623   1.213   5.421 -0.5927  0.3985 -0.7730
13761TIP3    H262775   4.717   1.096   5.399  0.9608  2.1215 -3.9253
13762TIP3   OH262776   0.769   4.821   2.896  0.7507 -0.6654 -0.4283
13762TIP3    H162777   0.676   4.826   2.917  0.7826 -2.9698  0.5660
13762TIP3    H262778   0.787   4.900   2.846 -1.6228  0.0736 -0.2154
13763TIP3   OH262779   0.406   2.633   3.158 -0.7992 -0.0384  0.3949
13763TIP3    H162780   0.391   2.595   3.245 -1.5659 -0.0213  0.2855
13763TIP3    H262781   0.328   2.608   3.108 -0.9097  0.9339  0.0559
13764TIP3   OH262782   4.068   0.759  12.891 -0.5345 -0.4002 -0.2830
13764TIP3    H162783   4.153   0.802  12.902  0.3372 -1.7390 -1.3863
13764TIP3    H262784   4.008   0.810  12.945  1.0300  0.3813  0.8048
13765TIP3   OH262785   4.912   3.424  15.801 -0.6729  0.7424  0.1316
13765TIP3    H162786   4.928   3.471  15.882  5.0644  0.2113 -0.3214
13765TIP3    H262787   4.939   3.485  15.732  1.6162 -1.1826 -0.7904
13766TIP3   OH262788   0.275   4.746  11.188  0.6605  0.2924  0.1714
13766TIP3    H162789   0.341   4.733  11.120  0.2461 -0.1764 -0.1432
13766TIP3    H262790   0.301   4.687  11.259  1.1601  0.8687  0.4789
13767TIP3   OH262791   0.253   1.277  16.210  0.4525  0.3398  0.5242
13767TIP3    H162792   0.326   1.288  16.270  0.6696 -0.8732  0.4979
13767TIP3    H262793   0.175   1.290  16.264  0.6594 -0.0419  0.9213
13768TIP3   OH262794   1.265   4.736   3.247 -0.0145  0.7162  0.2848
13768TIP3    H162795   1.170   4.731   3.256  0.0421  1.3403  1.3444
13768TIP3    H262796   1.296   4.650   3.274 -0.1908  0.9839  1.3885
13769TIP3   OH262797   1.876   2.722  13.411 -0.1582 -0.0090 -0.0308
13769TIP3    H162798   1.850   2.649  13.466 -2.6004  2.2259  2.0586
13769TIP3    H262799   1.794   2.756  13.376  0.6798  2.5333  0.2585
13770TIP3   OH262800   0.488   5.257  14.487  0.1948 -0.6119 -0.0020
13770TIP3    H162801   0.429   5.311  14.435  0.0404 -1.1380 -0.3750
13770TIP3    H262802   0.482   5.170  14.449  0.5388 -0.8704  0.5172
13771TIP3   OH262803   2.889   3.113   5.708 -0.2324  0.0390  0.1426
13771TIP3    H162804   2.956   3.154   5.654 -1.8892 -0.1694 -2.2364
13771TIP3    H262805   2.922   3.024   5.724  0.5627  0.3035  0.0126
13772TIP3   OH262806   4.017   1.249   4.274  0.5150  0.5073  0.3831
13772TIP3    H162807   4.000   1.292   4.359 -0.1276 -1.4644  1.3040
13772TIP3    H262808   4.094   1.294   4.241 -0.7588  3.1815  0.6869
13773TIP3   OH262809   1.291   4.525   3.892 -0.1142 -0.7872 -0.6849
13773TIP3    H162810   1.201   4.515   3.861 -0.5546 -0.6460  0.4918
13773TIP3    H262811   1.292   4.483   3.978 -0.0478  2.3854  1.0078
13774TIP3   OH262812   6.623   6.806  11.932 -0.4244  0.3377 -0.5258
13774TIP3    H162813   6.532   6.795  11.959 -0.0299 -1.1731  0.3334
13774TIP3    H262814   6.642   6.899  11.948 -1.0335  0.1144  1.9225
13775TIP3   OH262815   4.416   6.392  14.569 -0.4987 -0.2179 -0.4948
13775TIP3    H162816   4.326   6.363  14.581 -0.1435 -0.6968  1.2778
13775TIP3    H262817   4.469   6.314  14.583  0.2778  0.4634  0.5194
13776TIP3   OH262818   5.228   5.059  10.255 -0.1978 -0.3140 -0.5477
13776TIP3    H162819   5.173   5.037  10.330  0.4301 -0.3510 -0.0932
13776TIP3    H262820   5.300   4.997  10.259  0.0678 -0.0339 -0.9257
13777TIP3   OH262821   1.230   2.438  15.519 -0.2588  0.2981  0.2555
13777TIP3    H162822   1.294   2.369  15.538  0.3738  0.2602 -1.8142
13777TIP3    H262823   1.252   2.508  15.580  0.8284 -0.2723  0.5518
13778TIP3   OH262824   6.766   6.585   4.602  0.5977 -0.8172 -0.3650
13778TIP3    H162825   6.760   6.605   4.509 -0.2833 -2.9646 -0.8264
13778TIP3    H262826   6.760   6.490   4.606 -1.0301 -0.6921  2.0009
13779TIP3   OH262827   5.296   6.633  16.958 -0.0086  0.2915 -0.0026
13779TIP3    H162828   5.353   6.557  16.970 -0.1185 -0.0582 -1.4802
13779TIP3    H262829   5.309   6.658  16.867 -2.7276 -0.2208 -0.6192
13780TIP3   OH262830   6.268   6.036  14.724  0.1214  0.0387 -0.1007
13780TIP3    H162831   6.283   5.980  14.648 -1.4622 -0.5231 -0.0258
13780TIP3    H262832   6.211   6.106  14.691 -0.0802  0.1298  0.4369
13781TIP3   OH262833   5.200   2.579  13.301  0.3838 -0.0441  0.0500
13781TIP3    H162834   5.241   2.618  13.378  0.7369  0.0225 -0.1687
13781TIP3    H262835   5.271   2.532  13.258  0.4598  0.8815 -0.8625
13782TIP3   OH262836   4.539   0.767   1.546 -0.9400  0.0145  0.0730
13782TIP3    H162837   4.630   0.760   1.576 -0.5392  0.2661 -1.0648
13782TIP3    H262838   4.520   0.682   1.506 -1.3469 -0.1811  0.6618
13783TIP3   OH262839   2.212   1.063  14.383 -0.2672  0.1059  0.4673
13783TIP3    H162840   2.215   0.968  14.372 -0.2076  0.1606  0.0035
13783TIP3    H262841   2.175   1.075  14.471 -0.4438 -0.3405  0.4594
13784TIP3   OH262842   6.517   4.128  13.629  0.2906  0.1895  0.3518
13784TIP3    H162843   6.433   4.170  13.649 -0.9007 -1.7467 -0.2495
13784TIP3    H262844   6.510   4.102  13.537  2.3174  1.5618 -0.2649
13785TIP3   OH262845   4.779   3.937   0.835 -1.0747  0.0310  0.3053
13785TIP3    H162846   4.723   3.879   0.783  0.0640 -1.0653  0.2240
13785TIP3    H262847   4.794   4.013   0.779 -1.4882 -0.2196 -0.1550
13786TIP3   OH262848   5.893   0.717   0.387 -0.3320  0.0900 -0.4625
13786TIP3    H162849   5.868   0.634   0.346  0.8457 -0.8654  0.6802
13786TIP3    H262850   5.848   0.715   0.472  1.9541 -0.7841  0.8137
13787TIP3   OH262851   2.508   1.726  16.152  0.0466 -0.7378  0.3140
13787TIP3    H162852   2.531   1.819  16.148  0.3250 -0.8021  0.4194
13787TIP3    H262853   2.515   1.696  16.061 -0.9215 -0.4470  0.1333
13788TIP3   OH262854   0.583   5.815  16.218 -0.2605  0.0898 -0.2297
13788TIP3    H162855   0.556   5.903  16.191  0.3660  0.5818  0.6983
13788TIP3    H262856   0.671   5.805  16.181 -0.7031 -0.5401 -1.1536
13789TIP3   OH262857   5.890   2.860   2.750 -0.4392 -0.2850 -0.1139
13789TIP3    H162858   5.919   2.862   2.842  1.1758 -0.0802 -0.6078
13789TIP3    H262859   5.908   2.948   2.717 -0.2881 -0.5886 -0.8526
13790TIP3   OH262860   2.406   3.526   6.514  0.6575 -0.0487  0.4359
13790TIP3    H162861   2.483   3.470   6.518  0.2637 -0.7905 -1.5562
13790TIP3    H262862   2.440   3.613   6.538  1.4760 -0.8492  2.5036
13791TIP3   OH262863   1.771   5.466   5.304 -0.1323  0.9975  0.3092
13791TIP3    H162864   1.685   5.491   5.270 -1.3297  1.6933  3.5306
13791TIP3    H262865   1.830   5.534   5.270 -0.4280 -0.2763 -3.1337
13792TIP3   OH262866   3.062   5.942  14.955 -0.4228 -0.1797  0.4464
13792TIP3    H162867   3.132   5.991  15.000  0.4422 -1.2495  0.3196
13792TIP3    H262868   3.103   5.913  14.874 -0.8087 -1.3661  0.6604
13793TIP3   OH262869   2.932   2.142   3.165 -0.0516 -0.0801 -0.0750
13793TIP3    H162870   2.882   2.217   3.198  1.9528  0.4176  2.1371
13793TIP3    H262871   2.999   2.181   3.108 -0.9054 -0.5480 -1.4450
13794TIP3   OH262872   4.161   5.995  15.325 -0.2132  0.2759 -0.1115
13794TIP3    H162873   4.253   6.013  15.343 -0.3945  0.4551  0.6429
13794TIP3    H262874   4.135   5.931  15.390 -0.8363  0.8303  0.1993
13795TIP3   OH262875   3.099   4.141  16.775 -0.8892 -0.0742 -0.2772
13795TIP3    H162876   3.138   4.159  16.689  0.2439  0.6751  0.3672
13795TIP3    H262877   3.055   4.057  16.763  0.8548 -0.9316 -1.1090
13796TIP3   OH262878   0.058   6.527  16.043 -0.1851  0.8397 -0.2332
13796TIP3    H162879   0.135   6.486  16.083  0.5783  0.8343 -1.6414
13796TIP3    H262880   0.002   6.549  16.117  0.2843 -0.9076  0.7175
13797TIP3   OH262881   0.721   0.577  12.228 -0.4028 -0.4835  0.6903
13797TIP3    H162882   0.802   0.533  12.252 -0.5815 -0.8671  0.5971
13797TIP3    H262883   0.674   0.587  12.311 -0.3337 -0.4099  0.7206
13798TIP3   OH262884   6.359   4.396   2.707 -0.4507  0.3883 -0.1497
13798TIP3    H162885   6.273   4.382   2.669 -0.9874  1.9219  0.4272
13798TIP3    H262886   6.368   4.491   2.713 -0.2320  0.3022  3.0530
13799TIP3   OH262887   2.812   2.161  16.349  0.1178 -0.0495  0.3646
13799TIP3    H162888   2.855   2.095  16.295  2.2782  2.5324 -1.2969
13799TIP3    H262889   2.878   2.187  16.413  0.5586  2.7052 -1.0766
13800TIP3   OH262890   5.271   3.730   1.382  0.6908 -0.2629 -0.5773
13800TIP3    H162891   5.243   3.702   1.469  1.5497  0.6829  0.0241
13800TIP3    H262892   5.207   3.691   1.323 -0.7347  0.2067  0.5884
13801TIP3   OH262893   5.288   6.121  11.197 -0.2678 -0.4182  0.7523
13801TIP3    H162894   5.192   6.122  11.204 -0.3901  1.2364 -0.5613
13801TIP3    H262895   5.318   6.185  11.260 -0.2928  1.5095 -1.0761
13802TIP3   OH262896   5.491   6.804   4.725  0.7330  0.0137 -0.3889
13802TIP3    H162897   5.409   6.770   4.761  1.3729 -1.4532 -0.2521
13802TIP3    H262898   5.559   6.772   4.785  1.6363 -0.8593 -1.8399
13803TIP3   OH262899   3.298   4.274  11.930  0.4204  0.0256 -0.2299
13803TIP3    H162900   3.346   4.243  11.853  0.1045 -1.3442  0.0832
13803TIP3    H262901   3.361   4.269  12.002 -0.0826 -1.6204  0.1501
13804TIP3   OH262902   5.529   0.952  16.792  0.0591 -0.4730  0.3701
13804TIP3    H162903   5.571   0.963  16.877  1.2328  0.4764 -0.3110
13804TIP3    H262904   5.592   0.903  16.740  0.1199  0.4813 -0.4928
13805TIP3   OH262905   5.502   6.618   4.149  0.6801 -1.0341  0.4309
13805TIP3    H162906   5.432   6.656   4.202 -1.4491 -1.9518 -1.5247
13805TIP3    H262907   5.506   6.527   4.177 -1.0862 -1.7619 -1.4493
13806TIP3   OH262908   1.985   1.512  13.879 -0.4283 -1.0996 -0.2384
13806TIP3    H162909   2.042   1.491  13.804  0.9525  0.7320  0.2131
13806TIP3    H262910   2.041   1.565  13.936 -1.7649 -1.6142  1.6253
13807TIP3   OH262911   0.676   5.898   5.695 -0.2746  0.0009 -0.7999
13807TIP3    H162912   0.617   5.961   5.736  0.5163 -0.6483  1.5187
13807TIP3    H262913   0.662   5.909   5.601 -0.5020  3.2567 -0.4837
13808TIP3   OH262914   2.901   3.444  11.859 -0.2846 -0.5462  0.1330
13808TIP3    H162915   2.854   3.373  11.904  0.3520 -0.9352  0.1951
13808TIP3    H262916   2.884   3.428  11.766 -0.2609 -0.6953  0.1540
13809TIP3   OH262917   6.473   4.273   4.519  0.0501 -0.4170  0.2930
13809TIP3    H162918   6.511   4.211   4.457  0.5329 -1.2864  1.3979
13809TIP3    H262919   6.407   4.321   4.469  1.1615 -0.3286 -1.1440
13810TIP3   OH262920   2.235   4.631   3.024 -0.0009 -0.0395  0.4880
13810TIP3    H162921   2.211   4.592   2.940 -0.4023 -2.1239  1.5117
13810TIP3    H262922   2.178   4.588   3.088 -0.8235  2.6425  1.6794
13811TIP3   OH262923   3.903   4.056  16.949  0.9216 -0.0552 -0.0374
13811TIP3    H162924   3.848   4.120  16.995  1.6305  1.3298 -1.0674
13811TIP3    H262925   3.868   3.971  16.977  0.5149  0.7306  2.0521
13812TIP3   OH262926   4.724   5.141  16.337 -0.1461 -0.3097 -0.1060
13812TIP3    H162927   4.753   5.130  16.246 -1.3554 -3.3140 -0.2536
13812TIP3    H262928   4.778   5.080  16.386  0.7496  1.5547  1.3303
13813TIP3   OH262929   5.014   6.817   4.809  0.1680 -0.1545  0.5512
13813TIP3    H162930   4.944   6.882   4.808  0.2046 -0.0883  1.3215
13813TIP3    H262931   5.055   6.824   4.723 -1.0989 -0.5669 -0.1097
13814TIP3   OH262932   3.219   1.745   3.107 -0.1561  0.2552 -0.6021
13814TIP3    H162933   3.193   1.832   3.079 -1.1005 -0.0091 -0.5711
13814TIP3    H262934   3.187   1.737   3.197  0.0222 -0.0901 -0.5637
13815TIP3   OH262935   3.409   3.324   1.627  0.0053  0.3438 -0.8041
13815TIP3    H162936   3.398   3.302   1.535  0.9968 -0.9853 -0.6338
13815TIP3    H262937   3.339   3.275   1.671  0.1448  0.1911 -0.7525
13816TIP3   OH262938   2.575   4.663   1.664 -0.6211  0.1586 -0.5794
13816TIP3    H162939   2.567   4.738   1.723  2.8688 -0.0115  0.3398
13816TIP3    H262940   2.543   4.695   1.580 -1.4860  1.8600  0.3338
13817TIP3   OH262941   5.415   0.948   4.143 -0.4591  0.2940  0.1717
13817TIP3    H162942   5.329   0.922   4.110 -0.1372 -0.1774 -0.3229
13817TIP3    H262943   5.475   0.924   4.073 -0.0163  1.4152  0.1500
13818TIP3   OH262944   2.657   6.133   3.537  0.5334 -0.6261  0.3938
13818TIP3    H162945   2.707   6.188   3.477 -0.5626 -0.1570 -0.1256
13818TIP3    H262946   2.640   6.190   3.612  1.3626 -1.0099  0.8822
13819TIP3   OH262947   6.344   4.593  16.833 -0.1900  0.3751  0.4805
13819TIP3    H162948   6.400   4.566  16.760 -0.0636  1.3242  0.2035
13819TIP3    H262949   6.356   4.526  16.900  1.2081  0.4942  0.3783
13820TIP3   OH262950   2.144   6.299  14.859 -0.8213 -0.9560 -0.3706
13820TIP3    H162951   2.156   6.392  14.877  1.0146 -0.9357 -1.4258
13820TIP3    H262952   2.049   6.287  14.851 -1.0201  1.1585 -1.8127
13821TIP3   OH262953   1.517   1.760   4.763  0.2576 -0.1361  0.1252
13821TIP3    H162954   1.486   1.837   4.717 -0.1242  1.3502  2.6955
13821TIP3    H262955   1.591   1.728   4.710  0.2317  1.7972 -1.1523
13822TIP3   OH262956   5.100   1.900  13.618 -0.2731 -0.1919 -0.6104
13822TIP3    H162957   5.100   1.939  13.531  2.6971 -0.9229 -1.0477
13822TIP3    H262958   5.012   1.916  13.651 -0.5394  3.0040 -2.4276
13823TIP3   OH262959   6.756   2.001   1.551  0.6354 -0.3272 -0.1900
13823TIP3    H162960   6.758   2.083   1.500 -1.6766  0.8218  1.4153
13823TIP3    H262961   6.807   2.022   1.630 -1.2195  0.1362  0.9278
13824TIP3   OH262962   6.329   2.634   5.861 -0.1804  0.1981  0.9053
13824TIP3    H162963   6.335   2.631   5.766  0.7682  2.4066  0.8375
13824TIP3    H262964   6.237   2.650   5.879 -0.2896  0.2347  0.3231
13825TIP3   OH262965   4.044   0.724  16.282  0.2386  0.6098 -0.2274
13825TIP3    H162966   3.977   0.748  16.346  1.4212  0.1653  1.2171
13825TIP3    H262967   3.995   0.714  16.200 -1.0827  2.7020  0.2200
13826TIP3   OH262968   4.092   2.725  12.267  0.9318 -0.2031  0.4512
13826TIP3    H162969   4.016   2.712  12.211  2.1533  2.7986 -2.2107
13826TIP3    H262970   4.059   2.777  12.341  0.6038  3.4111 -1.9751
13827TIP3   OH262971   2.569   5.350   2.366 -0.5254  0.0073 -0.2785
13827TIP3    H162972   2.573   5.351   2.461  1.7104  1.5132 -0.3149
13827TIP3    H262973   2.657   5.326   2.337 -1.4659 -1.6845 -2.0181
13828TIP3   OH262974   3.766   5.130   5.467  0.0652  0.5799 -0.0637
13828TIP3    H162975   3.805   5.043   5.461 -0.3441  0.4423 -0.7773
13828TIP3    H262976   3.841   5.189   5.476  0.3147  0.1026  1.3303
13829TIP3   OH262977   0.046   3.506   1.139 -0.4858 -0.0620  0.4942
13829TIP3    H162978   0.079   3.429   1.093 -1.0732 -0.2349  0.3532
13829TIP3    H262979   0.097   3.579   1.103  0.2551 -0.4054  0.8141
13830TIP3   OH262980   0.924   6.731   1.748  0.3057  0.1520  0.0721
13830TIP3    H162981   1.005   6.685   1.725  0.8397  0.5892  1.0546
13830TIP3    H262982   0.948   6.786   1.822 -0.8950  0.2975  0.3609
13831TIP3   OH262983   1.587   2.256  14.925 -0.3414  0.5814 -0.7821
13831TIP3    H162984   1.532   2.334  14.933 -1.5904 -0.3121 -0.2984
13831TIP3    H262985   1.524   2.184  14.915  0.7289 -0.5603  0.4538
13832TIP3   OH262986   1.678   2.045  13.902  0.0742 -0.9732  0.0388
13832TIP3    H162987   1.661   1.979  13.835 -0.5190 -0.4705 -0.3112
13832TIP3    H262988   1.622   2.019  13.975  0.0191 -0.9889 -0.0095
13833TIP3   OH262989   3.947   0.996  14.881 -0.1484  0.6632 -0.8129
13833TIP3    H162990   3.933   0.904  14.856  0.9617 -0.6636  2.7429
13833TIP3    H262991   3.869   1.019  14.931  1.3173  0.1013  1.9034
13834TIP3   OH262992   4.193   0.328   3.713 -0.6438  0.4337 -0.4110
13834TIP3    H162993   4.117   0.329   3.771 -1.2883 -1.0568 -1.1840
13834TIP3    H262994   4.158   0.300   3.628  0.6687  0.3205 -0.9369
13835TIP3   OH262995   0.326   1.569  13.843 -0.5037  0.4030  0.3538
13835TIP3    H162996   0.264   1.636  13.815 -1.0475  0.4643  1.6585
13835TIP3    H262997   0.273   1.504  13.888 -0.1607 -1.5340 -1.8505
13836TIP3   OH262998   2.288   6.316  13.491  0.3512  0.1425  0.2164
13836TIP3    H162999   2.301   6.343  13.582  0.1030 -0.8634  0.5538
13836TIP3    H263000   2.194   6.321  13.478  0.4384  0.8816 -0.1836
13837TIP3   OH263001   3.458   4.567   0.918  0.3291 -0.5165 -0.5047
13837TIP3    H163002   3.381   4.530   0.962  0.4440  0.4004  0.4801
13837TIP3    H263003   3.458   4.523   0.832  0.1272 -2.3569  0.3730
13838TIP3   OH263004   1.979   5.116   2.940  0.8946 -0.2038 -0.2956
13838TIP3    H163005   2.051   5.115   2.878 -0.6356  1.5455 -2.2510
13838TIP3    H263006   1.916   5.177   2.902 -1.8342 -1.9892  1.0505
13839TIP3   OH263007   0.659   3.349   3.117  0.6442 -0.2668 -0.1916
13839TIP3    H163008   0.604   3.421   3.085  0.1597 -0.6600 -0.2546
13839TIP3    H263009   0.702   3.316   3.038  1.3271  0.3271 -0.0808
13840TIP3   OH263010   6.233   4.744   1.898 -0.4541 -0.0310 -0.0078
13840TIP3    H163011   6.264   4.729   1.987  1.8769  2.1953 -0.3028
13840TIP3    H263012   6.306   4.715   1.842 -0.2280  2.0983 -0.9376
13841TIP3   OH263013   3.836   6.536   3.151  0.4784 -0.0971 -0.3982
13841TIP3    H163014   3.769   6.600   3.125  0.7523  0.2311 -0.3127
13841TIP3    H263015   3.809   6.454   3.110 -0.0512  0.0004 -0.2520
13842TIP3   OH263016   0.465   3.544   3.057  0.2726 -0.2106 -0.2757
13842TIP3    H163017   0.443   3.586   3.140 -1.7573 -0.5210 -0.5926
13842TIP3    H263018   0.522   3.607   3.012  0.1488  0.6312  0.7040
13843TIP3   OH263019   5.787   6.230   2.208 -0.1530 -0.1130  0.3193
13843TIP3    H163020   5.737   6.234   2.127  0.5958 -0.4415 -0.1649
13843TIP3    H263021   5.851   6.300   2.201  0.1695 -0.3896  0.4555
13844TIP3   OH263022   4.607   6.663   1.782  0.3695 -0.5528 -0.1233
13844TIP3    H163023   4.651   6.747   1.764  0.1108 -0.4172 -0.1244
13844TIP3    H263024   4.523   6.670   1.736  1.1620 -1.6007 -1.8077
13845TIP3   OH263025   1.820   0.759  11.594  0.4173  0.1381  0.3564
13845TIP3    H163026   1.841   0.852  11.605  1.9456 -0.3330  1.7691
13845TIP3    H263027   1.902   0.713  11.610  0.2758 -1.3865 -2.7213
13846TIP3   OH263028   0.966   6.513   0.740  0.2024  0.1221 -0.1112
13846TIP3    H163029   0.921   6.545   0.819  0.5653  0.5818 -0.0871
13846TIP3    H263030   0.898   6.510   0.673  0.2246  1.2944 -0.2077
13847TIP3   OH263031   0.086   6.665   5.230 -0.1278  0.1787  0.0040
13847TIP3    H163032   0.166   6.644   5.182  0.1500 -0.5266  0.7512
13847TIP3    H263033   0.106   6.747   5.275 -0.9604  1.7349 -2.3469
13848TIP3   OH263034   4.591   3.390  15.085 -0.2228 -0.2455 -0.2112
13848TIP3    H163035   4.546   3.463  15.128  0.0439 -0.1788 -0.0458
13848TIP3    H263036   4.681   3.420  15.075  0.0265 -0.7929  0.4015
13849TIP3   OH263037   1.931   1.809   3.382  0.3444  0.4508 -0.0806
13849TIP3    H163038   1.873   1.769   3.446 -1.3558 -0.0142 -1.8156
13849TIP3    H263039   2.019   1.779   3.406 -0.5016 -1.5471  0.6812
13850TIP3   OH263040   3.447   5.551   4.270 -0.3888  0.1064  0.6502
13850TIP3    H163041   3.460   5.590   4.184 -2.3975  0.0667  0.2861
13850TIP3    H263042   3.536   5.544   4.307  0.6524 -1.0639 -1.8780
13851TIP3   OH263043   5.611   0.302   5.319 -0.3844  0.5833 -0.0562
13851TIP3    H163044   5.561   0.344   5.249  1.0354 -0.7907 -2.0271
13851TIP3    H263045   5.634   0.217   5.283 -0.1256 -0.4502  2.3960
13852TIP3   OH263046   1.960   1.291   5.135 -0.0773 -0.8320 -0.4823
13852TIP3    H163047   1.882   1.236   5.128  0.2622 -1.0833 -3.6962
13852TIP3    H263048   1.975   1.299   5.230 -3.9724 -0.7242  0.2972
13853TIP3   OH263049   2.325   1.061  15.371  0.7976  0.0060  0.1500
13853TIP3    H163050   2.241   1.045  15.329  0.8078  3.2101 -1.3516
13853TIP3    H263051   2.384   0.996  15.332 -0.5454 -1.0554 -0.1660
13854TIP3   OH263052   3.960   0.578   0.814  0.6417  0.2193  0.0740
13854TIP3    H163053   3.929   0.626   0.737  2.1984 -0.4016 -0.9985
13854TIP3    H263054   4.005   0.643   0.867  0.1696  0.5181  0.1090
13855TIP3   OH263055   0.174   3.775  11.355  0.4764  0.3278 -0.1260
13855TIP3    H163056   0.199   3.731  11.274 -0.1477 -0.7243  0.2252
13855TIP3    H263057   0.107   3.838  11.329 -0.0625 -0.3367 -0.3663
13856TIP3   OH263058   3.525   2.634   0.909 -0.4731 -0.0645 -0.1862
13856TIP3    H163059   3.582   2.711   0.908  1.7815 -1.6296 -0.7947
13856TIP3    H263060   3.554   2.585   0.987 -1.0497 -0.8541 -0.4626
13857TIP3   OH263061   5.110   2.845   6.480 -0.1463  0.1156 -0.4370
13857TIP3    H163062   5.021   2.872   6.458  0.1174  2.4007  0.9406
13857TIP3    H263063   5.140   2.910   6.543  1.5557 -2.1186  1.2513
13858TIP3   OH263064   0.702   5.865  11.716 -0.4131  0.5426  0.5234
13858TIP3    H163065   0.718   5.923  11.641 -1.0844  2.2535  1.6477
13858TIP3    H263066   0.622   5.818  11.693  0.2821 -0.1716 -0.5209
13859TIP3   OH263067   3.897   6.158   2.814  0.8928 -0.6138 -0.0610
13859TIP3    H163068   3.965   6.109   2.860  1.8092 -0.6357 -1.3980
13859TIP3    H263069   3.870   6.100   2.742 -1.1575 -0.9649  0.9002
13860TIP3   OH263070   2.205   6.442  14.248 -0.3051 -0.7760  0.3491
13860TIP3    H163071   2.192   6.373  14.313  0.5409  0.1299  1.5359
13860TIP3    H263072   2.253   6.399  14.177 -0.1195 -1.4913  0.8928
13861TIP3   OH263073   5.064   3.513   0.790  0.2068 -0.0808  0.1624
13861TIP3    H163074   4.990   3.570   0.814  0.2717 -0.8143  2.2481
13861TIP3    H263075   5.023   3.431   0.764  0.2649 -0.3800  1.0033
13862TIP3   OH263076   4.526   6.491  11.573 -0.4149  0.3554 -0.6501
13862TIP3    H163077   4.570   6.571  11.600  0.5294  0.0260 -1.1358
13862TIP3    H263078   4.437   6.499  11.607  0.4599  0.3175  1.7986
13863TIP3   OH263079   5.158   4.099  11.148 -0.4469 -0.0444  0.2417
13863TIP3    H163080   5.132   4.097  11.240 -2.0278 -0.5053 -0.1843
13863TIP3    H263081   5.213   4.021  11.137 -2.5361 -1.6198  0.2159
13864TIP3   OH263082   6.386   1.168   3.252 -0.0538  0.1315 -0.6389
13864TIP3    H163083   6.309   1.137   3.203  0.0547  1.0789 -1.4224
13864TIP3    H263084   6.350   1.228   3.317  0.0047  0.3872 -0.8449
13865TIP3   OH263085   2.683   2.938  13.552 -0.4779  0.0755  0.0041
13865TIP3    H163086   2.669   2.940  13.457 -0.7878  1.3527  0.0550
13865TIP3    H263087   2.680   3.030  13.578  1.5187 -0.1056  0.9923
13866TIP3   OH263088   2.607   6.794  16.600 -0.6674 -0.5744  0.4994
13866TIP3    H163089   2.627   6.815  16.691 -0.9432  0.9181  0.2430
13866TIP3    H263090   2.644   6.707  16.587  0.1790 -0.4370  1.7739
13867TIP3   OH263091   1.117   5.156  13.868 -0.4390  0.4726 -0.2305
13867TIP3    H163092   1.041   5.214  13.866 -0.4427  0.4633 -0.3634
13867TIP3    H263093   1.150   5.156  13.778 -1.2688 -0.8302 -0.5561
13868TIP3   OH263094   0.982   4.179   2.049  0.1596  0.1183 -0.0671
13868TIP3    H163095   1.001   4.254   2.105 -1.0172  0.7818 -0.5316
13868TIP3    H263096   0.936   4.117   2.107 -1.1046  0.8254 -0.2700
13869TIP3   OH263097   0.649   6.477   4.429 -0.1546 -0.3674 -0.3825
13869TIP3    H163098   0.652   6.517   4.516  0.2812  0.6584 -0.8628
13869TIP3    H263099   0.672   6.547   4.369  2.0250 -1.6424 -1.1520
13870TIP3   OH263100   3.861   4.076  15.865 -0.5611  0.6268  0.2612
13870TIP3    H163101   3.798   4.147  15.876 -1.2195  0.0144  0.5016
13870TIP3    H263102   3.886   4.052  15.954 -0.2029  0.6775  0.1762
13871TIP3   OH263103   1.370   2.632   3.439 -0.0355  0.5989  0.1068
13871TIP3    H163104   1.277   2.643   3.460 -0.3697  0.9452 -1.4292
13871TIP3    H263105   1.375   2.548   3.392  0.3643  0.7346 -0.1056
13872TIP3   OH263106   4.944   0.261   5.662 -0.5563 -0.3113 -0.2183
13872TIP3    H163107   4.889   0.233   5.735 -0.5853 -0.4840 -0.3058
13872TIP3    H263108   4.998   0.331   5.698 -1.0786  0.0999 -0.2218
13873TIP3   OH263109   2.154   4.171  14.751  0.3193  0.0328  0.3312
13873TIP3    H163110   2.246   4.166  14.778  0.2935 -0.4496  0.3259
13873TIP3    H263111   2.147   4.257  14.709  0.6097  0.3598  0.9259
13874TIP3   OH263112   0.743   0.918  14.824 -0.4386 -0.2276  0.0986
13874TIP3    H163113   0.684   0.921  14.749 -0.8641  0.8601  0.4569
13874TIP3    H263114   0.686   0.909  14.900 -0.1460  0.6636  0.4385
13875TIP3   OH263115   1.900   3.940  15.519  0.3420 -0.1193  0.6288
13875TIP3    H163116   1.927   4.031  15.506 -0.3979  0.0451  0.2310
13875TIP3    H263117   1.818   3.945  15.568 -0.4825 -0.5133 -0.6753
13876TIP3   OH263118   3.971   3.498  11.102 -0.2208  0.4952 -0.0840
13876TIP3    H163119   4.042   3.543  11.147  0.5872 -0.2786 -0.5344
13876TIP3    H263120   3.992   3.509  11.009 -1.4338  1.4048 -0.2700
13877TIP3   OH263121   1.751   3.348  16.725  0.1745  0.1467  0.1128
13877TIP3    H163122   1.728   3.332  16.816  0.0117 -1.2481 -0.1496
13877TIP3    H263123   1.721   3.270  16.678  3.5352 -0.8883 -0.5638
13878TIP3   OH263124   1.138   5.499   2.629  0.5409  0.1101  0.2345
13878TIP3    H163125   1.208   5.435   2.613 -0.9893 -1.4292 -0.5797
13878TIP3    H263126   1.168   5.578   2.583  0.5409 -1.3617 -2.5078
13879TIP3   OH263127   0.713   5.179  11.662  0.2377  0.5960 -0.3498
13879TIP3    H163128   0.723   5.273  11.644 -0.3896  0.7454  0.0449
13879TIP3    H263129   0.681   5.142  11.581 -0.4614  0.8947 -0.2195
13880TIP3   OH263130   4.190   5.159   3.389  0.4815 -0.3461 -0.2120
13880TIP3    H163131   4.186   5.167   3.293 -0.0317 -0.3221 -0.1944
13880TIP3    H263132   4.281   5.138   3.408  0.9635  1.2869 -0.5810
13881TIP3   OH263133   4.034   1.988   3.616 -0.2956  0.2963  0.1194
13881TIP3    H163134   3.979   2.054   3.659 -0.0189  1.3755 -1.1265
13881TIP3    H263135   4.083   1.947   3.688  1.4091  3.2023  0.7801
13882TIP3   OH263136   1.800   1.470  15.318  0.1624 -0.4217  0.0980
13882TIP3    H163137   1.856   1.512  15.253 -0.1803  0.4113  0.3205
13882TIP3    H263138   1.711   1.495  15.292  0.0690  0.7332  1.4179
13883TIP3   OH263139   5.132   1.845  10.946 -0.2039 -0.0281 -0.1013
13883TIP3    H163140   5.171   1.855  10.859  0.8977  0.3939  0.4303
13883TIP3    H263141   5.171   1.915  10.998 -1.5571  0.3151  0.5045
13884TIP3   OH263142   0.521   2.281  14.245 -0.0547  0.0836  0.0787
13884TIP3    H163143   0.599   2.334  14.256 -0.5032  1.0620 -1.2461
13884TIP3    H263144   0.474   2.289  14.329  0.9227 -0.0151  0.6549
13885TIP3   OH263145   4.237   4.610   0.161 -0.4306  0.0556 -0.3108
13885TIP3    H163146   4.314   4.576   0.207 -0.9897 -0.1789  0.4721
13885TIP3    H263147   4.272   4.676   0.102  0.2129  1.1649  1.2341
13886TIP3   OH263148   4.178   3.366  11.518 -0.8031 -0.0581 -0.2401
13886TIP3    H163149   4.120   3.353  11.443 -1.2436 -1.5035  0.3133
13886TIP3    H263150   4.136   3.435  11.570 -1.4698 -0.3610 -0.3751
13887TIP3   OH263151   3.356   1.399   1.992 -0.2836  0.0256 -0.0996
13887TIP3    H163152   3.439   1.424   2.032  0.1058 -1.3202 -0.0226
13887TIP3    H263153   3.300   1.477   2.002  1.2331  1.2881 -0.9910
13888TIP3   OH263154   0.041   5.950  11.915  0.3648 -0.3484 -0.4085
13888TIP3    H163155   0.130   5.948  11.950 -0.0825 -1.3959  0.7845
13888TIP3    H263156  -0.015   5.943  11.993 -0.7691  0.4650 -1.1165
13889TIP3   OH263157   1.853   1.871  11.466 -0.0175  0.4181  0.2385
13889TIP3    H163158   1.879   1.893  11.556  1.0829  0.7838 -0.1530
13889TIP3    H263159   1.925   1.904  11.412  0.0989 -1.2192 -0.6616
13890TIP3   OH263160   3.012   5.877   2.771 -0.3159 -0.1127  0.1805
13890TIP3    H163161   3.029   5.800   2.717  0.4502 -0.2013  0.5357
13890TIP3    H263162   3.036   5.951   2.716 -0.6665 -0.1461 -0.0184
13891TIP3   OH263163   0.791   1.803  15.567  0.0924  0.2365  0.0321
13891TIP3    H163164   0.730   1.856  15.516 -0.5943 -0.3131  0.2652
13891TIP3    H263165   0.856   1.865  15.599  1.6384  0.3358 -3.0152
13892TIP3   OH263166   0.273   5.969  14.823  0.7236  0.0054  0.7460
13892TIP3    H163167   0.273   6.064  14.818 -0.8457  0.0194  0.7083
13892TIP3    H263168   0.314   5.940  14.741 -0.8212  0.6285 -0.2842
13893TIP3   OH263169   3.119   5.056   0.381 -0.0466 -0.4867  0.2738
13893TIP3    H163170   3.024   5.044   0.382 -0.2490  0.8720  2.1945
13893TIP3    H263171   3.132   5.144   0.347  0.5143 -0.5591  0.2971
13894TIP3   OH263172   3.339   1.484   5.132  0.0958  0.2262  0.3086
13894TIP3    H163173   3.390   1.554   5.172 -0.3041 -0.0653  1.3608
13894TIP3    H263174   3.377   1.403   5.166 -0.1969 -0.0315  0.0331
13895TIP3   OH263175   0.457   0.182  15.801 -0.0512 -0.2486 -0.3258
13895TIP3    H163176   0.510   0.105  15.821  0.2012 -0.3271 -1.2576
13895TIP3    H263177   0.381   0.147  15.755  0.7856  0.1696 -2.0999
13896TIP3   OH263178   4.419   4.805   4.991  0.2580  0.2439  0.5819
13896TIP3    H163179   4.506   4.812   4.952  1.0168 -0.2106  2.1180
13896TIP3    H263180   4.393   4.714   4.979 -0.0126  0.3737  0.1434
13897TIP3   OH263181   4.686   2.532  14.323 -0.1261  0.4335  0.3312
13897TIP3    H163182   4.773   2.526  14.363 -0.5653 -1.0237  1.1276
13897TIP3    H263183   4.697   2.596  14.253  1.1880  1.4785  1.4240
13898TIP3   OH263184   1.545   2.323  13.162 -0.2073 -0.2246 -0.2023
13898TIP3    H163185   1.497   2.251  13.203  1.6450 -0.1196  2.3604
13898TIP3    H263186   1.487   2.399  13.172 -0.1436 -0.3722  1.5927
13899TIP3   OH263187   6.357   6.387   0.880  0.1715  1.3458 -0.2923
13899TIP3    H163188   6.428   6.431   0.927 -0.7133  0.9543  1.4749
13899TIP3    H263189   6.394   6.304   0.852 -0.0781  0.1939  2.4422
13900TIP3   OH263190   2.255   6.371   1.520 -0.1803 -0.0152  0.2368
13900TIP3    H163191   2.342   6.331   1.526 -0.3835 -0.6656 -0.8136
13900TIP3    H263192   2.200   6.303   1.480 -0.8113  0.9076 -0.5153
13901TIP3   OH263193   0.094   1.008  14.369 -0.2813 -0.0072  0.1010
13901TIP3    H163194   0.098   0.914  14.383  0.9768 -0.0115 -0.1887
13901TIP3    H263195   0.144   1.023  14.289 -1.1240  0.8315 -0.2904
13902TIP3   OH263196   0.462   5.752  17.045  0.3297  0.3840 -0.4556
13902TIP3    H163197   0.428   5.835  17.009  1.0879  0.7861 -0.2563
13902TIP3    H263198   0.418   5.685  16.993  0.3440  0.9284 -1.1957
13903TIP3   OH263199   0.980   3.587   3.991 -0.4797  0.0544  0.1642
13903TIP3    H163200   1.042   3.582   4.064 -1.4367 -1.6877  0.9159
13903TIP3    H263201   0.927   3.508   3.999 -1.4028  0.4273 -1.7311
13904TIP3   OH263202   1.181   5.542   2.165 -0.4548  0.1817  0.0924
13904TIP3    H163203   1.252   5.520   2.105 -0.3132  1.2322 -0.1496
13904TIP3    H263204   1.225   5.588   2.237 -0.7724 -0.0611  0.4475
13905TIP3   OH263205   3.253   5.793   0.533 -0.0726 -0.2598  0.1878
13905TIP3    H163206   3.168   5.835   0.530  0.3860  0.8272  1.6258
13905TIP3    H263207   3.315   5.863   0.554  1.3496 -0.8138 -1.7417
13906TIP3   OH263208   4.665   5.915   3.909 -0.1354 -0.1462  0.5593
13906TIP3    H163209   4.577   5.909   3.871 -0.2047  3.3699 -0.2133
13906TIP3    H263210   4.650   5.919   4.003 -0.8840  0.6318  0.4300
13907TIP3   OH263211   3.296   3.965  13.271 -0.4811 -0.6001 -0.2112
13907TIP3    H163212   3.326   3.996  13.186  2.2323  0.0939  0.8855
13907TIP3    H263213   3.222   3.907  13.251 -2.2819  2.2431 -2.7382
13908TIP3   OH263214   3.543   1.343   2.789  0.2911 -0.1804 -0.5616
13908TIP3    H163215   3.553   1.352   2.694 -0.9602  0.3128 -0.6653
13908TIP3    H263216   3.448   1.348   2.804  0.5407  1.5880  0.8784
13909TIP3   OH263217   1.491   6.176   1.807 -0.3225 -0.1354  0.1928
13909TIP3    H163218   1.440   6.254   1.829  1.7220  1.2790  0.1704
13909TIP3    H263219   1.581   6.198   1.831  0.4870 -2.1138 -0.7876
13910TIP3   OH263220   1.358   2.897   1.966 -0.4845  0.6473 -0.0614
13910TIP3    H163221   1.294   2.947   2.016 -0.9411  1.1046 -1.0757
13910TIP3    H263222   1.431   2.884   2.027 -0.6993  1.8461  0.4775
13911TIP3   OH263223   0.829   2.169  16.918 -0.5676  0.5558  0.5550
13911TIP3    H163224   0.794   2.220  16.991 -0.8856  0.8384  0.2062
13911TIP3    H263225   0.805   2.078  16.939 -1.3988  0.7270  0.3942
13912TIP3   OH263226   2.242   0.293  14.567 -0.2766  0.0769  0.7569
13912TIP3    H163227   2.309   0.283  14.499  0.9860 -1.2933  2.1079
13912TIP3    H263228   2.182   0.359  14.533  1.9797  1.6735 -0.3539
13913TIP3   OH263229   5.876   0.288  12.315 -0.4364 -0.5135 -0.3985
13913TIP3    H163230   5.941   0.219  12.326 -2.4011 -2.1991  1.7480
13913TIP3    H263231   5.899   0.353  12.382 -1.0221 -1.1955  0.4824
13914TIP3   OH263232   1.521   2.993  12.175 -0.5616 -0.4155  0.4004
13914TIP3    H163233   1.544   3.005  12.267 -0.7342 -0.5808  0.4650
13914TIP3    H263234   1.578   3.054  12.128 -0.1836 -0.6253  0.5819
13915TIP3   OH263235   2.021   3.166   1.532 -0.1439  0.3618  0.1190
13915TIP3    H163236   1.954   3.102   1.556 -0.4964  0.4500 -0.6269
13915TIP3    H263237   2.091   3.152   1.597 -0.4449 -0.4126  0.2903
13916TIP3   OH263238   4.080   3.860   1.404  0.0561 -0.0098 -0.5151
13916TIP3    H163239   4.010   3.849   1.468  0.5929  0.9178  0.2646
13916TIP3    H263240   4.153   3.808   1.438  0.1905  0.1083 -0.6181
13917TIP3   OH263241   0.064   6.141   2.899  0.1989 -0.1595 -1.1962
13917TIP3    H163242   0.143   6.185   2.866 -0.2745 -0.3843 -2.7248
13917TIP3    H263243  -0.002   6.210   2.903  0.1167 -0.2364 -1.2253
13918TIP3   OH263244   3.072   3.639  12.283 -0.2300  0.4912 -0.2058
13918TIP3    H163245   3.059   3.569  12.347 -1.5193  1.3349  0.4958
13918TIP3    H263246   2.992   3.640  12.231  0.7474 -0.0939 -1.7989
13919TIP3   OH263247   5.975   6.772   2.153  0.1790 -0.6641 -0.2214
13919TIP3    H163248   5.942   6.833   2.219  0.3287 -0.7858 -0.0298
13919TIP3    H263249   5.997   6.693   2.203 -1.0195 -1.2775 -0.5977
13920TIP3   OH263250   3.489   2.931  16.762 -0.0994 -0.1166  0.2661
13920TIP3    H163251   3.409   2.965  16.723 -0.3600  0.9512  1.6681
13920TIP3    H263252   3.542   2.904  16.687 -1.4553 -0.1794 -0.7194
13921TIP3   OH263253   4.588   0.497  14.168 -0.0687 -0.8894  0.2942
13921TIP3    H163254   4.609   0.589  14.156 -0.7494 -0.5415  1.6697
13921TIP3    H263255   4.670   0.457  14.199  1.4989 -1.6482 -4.0499
13922TIP3   OH263256   5.444   0.641  12.686 -0.6621  0.4191 -0.5287
13922TIP3    H163257   5.540   0.638  12.691 -0.6557  1.1388 -0.0361
13922TIP3    H263258   5.422   0.732  12.703 -1.5149 -0.0339  1.0154
13923TIP3   OH263259   3.769   6.319   3.454 -0.0530 -0.1265  0.0077
13923TIP3    H163260   3.806   6.257   3.391 -1.1060 -1.6871  0.8423
13923TIP3    H263261   3.678   6.289   3.466 -0.1694  0.7405  1.4865
13924TIP3   OH263262   5.906   4.207   1.031  0.0429  0.0578  0.4242
13924TIP3    H163263   5.984   4.200   0.977 -0.4432  0.2045 -0.3179
13924TIP3    H263264   5.924   4.152   1.107  1.5509  1.4217  1.1281
13925TIP3   OH263265   1.228   6.227   6.283  0.0829  0.3073 -0.4881
13925TIP3    H163266   1.318   6.200   6.299  0.1001  0.9452  0.6082
13925TIP3    H263267   1.181   6.200   6.362 -0.6220  0.2919 -0.9019
13926TIP3   OH263268   2.478   5.476  12.480  0.0985  0.2104  0.8577
13926TIP3    H163269   2.564   5.518  12.476  0.0727  0.3413  1.4966
13926TIP3    H263270   2.459   5.469  12.574 -0.2576 -0.4949  0.7463
13927TIP3   OH263271   4.023   1.727   1.433  0.6256 -0.5029 -0.3664
13927TIP3    H163272   3.994   1.786   1.502  2.4801  1.4066 -1.1094
13927TIP3    H263273   4.102   1.685   1.468 -0.6418 -2.6039  0.1350
13928TIP3   OH263274   1.957   3.873   3.598 -0.2308 -0.4557  0.0796
13928TIP3    H163275   1.955   3.802   3.534 -1.2277 -1.5907  1.3079
13928TIP3    H263276   1.872   3.916   3.588  0.1398  0.2166 -0.2585
13929TIP3   OH263277   5.809   1.850   4.642  0.1912  0.1192  0.4071
13929TIP3    H163278   5.777   1.805   4.720  0.8006  1.1886  1.2770
13929TIP3    H263279   5.756   1.929   4.636  1.1342  0.7645  0.5570
13930TIP3   OH263280   6.493   1.515   1.435 -0.2012  0.4939 -0.2490
13930TIP3    H163281   6.569   1.539   1.382 -1.4210  1.5903 -1.5837
13930TIP3    H263282   6.486   1.420   1.428  2.0907  0.1098  1.4300
13931TIP3   OH263283   2.889   6.626   5.436 -0.0673  0.1883 -0.1526
13931TIP3    H163284   2.919   6.682   5.509 -0.6072  0.8599 -0.4382
13931TIP3    H263285   2.900   6.537   5.469  2.1735  0.3776 -0.2056
13932TIP3   OH263286   0.552   6.122  14.160  0.1708 -0.0444  0.4542
13932TIP3    H163287   0.482   6.061  14.184 -0.7039  0.8786  0.2823
13932TIP3    H263288   0.630   6.084  14.200 -0.5106 -0.8142  1.1060
13933TIP3   OH263289   4.624   2.463  14.853  0.0096  0.0604 -0.4153
13933TIP3    H163290   4.645   2.503  14.768  2.9206 -1.6770 -0.6379
13933TIP3    H263291   4.530   2.444  14.848 -0.1366  1.0755 -2.7683
13934TIP3   OH263292   5.290   5.918   6.373 -0.0231 -0.1974  0.7725
13934TIP3    H163293   5.258   5.962   6.451 -1.0069  0.8194 -0.1734
13934TIP3    H263294   5.233   5.949   6.303  1.4656 -0.2825 -0.5333
13935TIP3   OH263295   5.612   2.909  12.669  0.3246  0.1055  0.4399
13935TIP3    H163296   5.526   2.946  12.650 -0.5030 -1.4474  0.9439
13935TIP3    H263297   5.670   2.948  12.604 -0.7577  1.1590  0.0689
13936TIP3   OH263298   2.583   3.166  14.819 -0.4447  0.1898  0.0062
13936TIP3    H163299   2.498   3.130  14.841  1.3702 -3.4261  2.0382
13936TIP3    H263300   2.571   3.207  14.733 -4.5407  1.5543  1.0525
13937TIP3   OH263301   4.738   6.717  15.596 -0.2432  0.7907  0.3727
13937TIP3    H163302   4.718   6.774  15.670 -1.1845  2.0329 -0.8048
13937TIP3    H263303   4.833   6.727  15.583 -0.5332  2.9656 -0.4653
13938TIP3   OH263304   6.264   5.004  11.399  0.9775  0.1111  0.2354
13938TIP3    H163305   6.198   5.063  11.361  1.6715  0.8399  0.1387
13938TIP3    H263306   6.214   4.946  11.456  0.3728  1.4015  1.0750
13939TIP3   OH263307   3.072   6.729   4.586  0.2202  0.1145 -0.2456
13939TIP3    H163308   3.092   6.717   4.679  1.6638 -1.2650 -0.6989
13939TIP3    H263309   2.978   6.745   4.584  0.2879  0.9397  1.5120
13940TIP3   OH263310   1.664   6.078  15.733 -0.3574  0.2020 -0.4450
13940TIP3    H163311   1.716   6.028  15.670  0.7090 -0.0761  0.6132
13940TIP3    H263312   1.642   6.015  15.802 -0.0768  0.8793  0.2860
13941TIP3   OH263313   5.945   3.103   0.259 -0.3813 -0.1587 -0.4183
13941TIP3    H163314   6.013   3.080   0.322 -1.9536 -3.5786  0.2812
13941TIP3    H263315   5.890   3.166   0.305  0.6288  0.3488  0.1256
13942TIP3   OH263316   3.031   0.912  13.827  0.6888 -0.5752 -0.2555
13942TIP3    H163317   3.016   0.827  13.784 -2.1708  0.0843 -0.7881
13942TIP3    H263318   3.126   0.921  13.830  1.1548 -1.7404 -4.3936
13943TIP3   OH263319   2.187   1.818  15.651 -0.0032 -0.2879  0.1409
13943TIP3    H163320   2.130   1.749  15.617  0.9337 -1.0762  0.1187
13943TIP3    H263321   2.210   1.788  15.739  1.4992 -0.6935 -0.3664
13944TIP3   OH263322   6.299   2.882  16.107 -0.2145 -0.0039 -0.0551
13944TIP3    H163323   6.228   2.882  16.042 -0.7209 -0.0423  0.4957
13944TIP3    H263324   6.274   2.815  16.170  0.0971  0.2770  0.3712
13945TIP3   OH263325   1.334   3.488  13.978 -0.1644  0.7047  0.1350
13945TIP3    H163326   1.315   3.557  14.042 -0.6207  1.3364 -0.6677
13945TIP3    H263327   1.349   3.535  13.896 -1.4957 -0.1785 -0.6602
13946TIP3   OH263328   5.934   4.461   0.329 -0.3869  0.4632 -0.1485
13946TIP3    H163329   5.953   4.399   0.399 -0.5195  0.9054  0.2883
13946TIP3    H263330   5.915   4.407   0.253 -1.2070 -0.0559  0.4068
13947TIP3   OH263331   2.303   5.080  10.987  0.1057 -0.2348 -0.3055
13947TIP3    H163332   2.296   5.176  10.991  0.5710 -0.1708 -1.0042
13947TIP3    H263333   2.393   5.063  10.961  0.4515 -0.9092  1.2418
13948TIP3   OH263334   3.520   1.912  15.887 -0.1662  0.2233 -0.0039
13948TIP3    H163335   3.517   1.865  15.970  2.3605 -2.0105 -1.0144
13948TIP3    H263336   3.613   1.928  15.871 -0.6558  1.6931 -1.8282
13949TIP3   OH263337   6.155   1.837  14.669  0.1481  0.2004  0.2439
13949TIP3    H163338   6.207   1.758  14.677  0.5961  0.5522  0.9280
13949TIP3    H263339   6.176   1.871  14.582  0.7091  0.0916  0.3328
13950TIP3   OH263340   3.082   2.108  10.203 -0.2194 -0.1388 -0.0831
13950TIP3    H163341   3.065   2.201  10.223 -1.8738 -0.2844 -0.6067
13950TIP3    H263342   3.136   2.077  10.276  1.0366  1.4137 -0.2940
13951TIP3   OH263343   1.688   2.730  11.696  0.3342 -0.3565 -0.3485
13951TIP3    H163344   1.645   2.644  11.689  0.1406 -0.1299 -2.3910
13951TIP3    H263345   1.743   2.736  11.619  2.0155  0.5056  0.8506
13952TIP3   OH263346   2.158   3.764   1.359  0.4441 -0.1939 -0.0956
13952TIP3    H163347   2.228   3.816   1.399  0.3220 -1.0433  1.2657
13952TIP3    H263348   2.090   3.828   1.338  1.1612  0.4837 -0.4284
13953TIP3   OH263349   1.425   2.072   3.905 -0.2054  0.5856  0.1803
13953TIP3    H163350   1.351   2.084   3.846  0.0393  0.0073 -0.2685
13953TIP3    H263351   1.401   1.997   3.959  0.1054  0.2969 -0.0711
13954TIP3   OH263352   4.017   5.164   2.303 -0.0522 -0.7601  0.1900
13954TIP3    H163353   4.036   5.175   2.396  0.0619  1.1752 -0.0264
13954TIP3    H263354   3.941   5.105   2.301  0.9628 -2.1889  1.3907
13955TIP3   OH263355   6.090   3.110   0.699 -0.1670  0.4463  0.2874
13955TIP3    H163356   6.056   3.021   0.687  0.5969 -0.1213  1.9923
13955TIP3    H263357   6.016   3.167   0.678 -0.0363 -0.4471 -3.1300
13956TIP3   OH263358   2.099   4.275  11.128 -0.0485 -0.1914 -0.4045
13956TIP3    H163359   2.016   4.306  11.162  0.3341  0.7338 -0.2927
13956TIP3    H263360   2.076   4.198  11.075 -0.7396 -1.1248  1.1922
13957TIP3   OH263361   1.024   6.167  15.101 -0.5232 -0.0502 -0.2328
13957TIP3    H163362   1.028   6.174  15.005 -2.3216  0.9967 -0.2761
13957TIP3    H263363   1.071   6.244  15.133 -0.2842 -0.1799 -0.2657
13958TIP3   OH263364   6.679   4.736   5.752  0.3303 -0.1965 -0.5637
13958TIP3    H163365   6.657   4.818   5.707  3.2047  1.0236  0.0385
13958TIP3    H263366   6.603   4.719   5.808 -0.9745  1.1952 -1.8030
13959TIP3   OH263367   2.504   3.795   3.052 -0.3653  0.6115 -0.6357
13959TIP3    H163368   2.429   3.845   3.085  0.3170  0.4572  1.2678
13959TIP3    H263369   2.547   3.761   3.131  0.5139 -1.0581 -1.7744
13960TIP3   OH263370   5.487   1.952   5.284  0.0207 -0.1632 -0.3273
13960TIP3    H163371   5.445   1.966   5.369 -0.5440  1.1726 -0.7969
13960TIP3    H263372   5.579   1.938   5.305  0.1873  1.7485  0.4423
13961TIP3   OH263373   2.347   2.585   0.534 -0.1076 -0.2470 -0.3457
13961TIP3    H163374   2.429   2.611   0.492  0.1082  0.5263  0.5130
13961TIP3    H263375   2.304   2.528   0.471  1.7078 -1.7760 -0.2751
13962TIP3   OH263376   5.509   5.473   3.451  0.1544  0.1372  0.2658
13962TIP3    H163377   5.581   5.417   3.482 -1.0015 -1.6497 -0.1432
13962TIP3    H263378   5.459   5.494   3.530  1.0980  1.4021  0.5548
13963TIP3   OH263379   1.764   2.356   1.023  0.0617 -0.8491  0.1934
13963TIP3    H163380   1.713   2.338   0.944  2.5028  0.1192 -1.7504
13963TIP3    H263381   1.717   2.427   1.067 -0.8400 -0.7531 -0.8868
13964TIP3   OH263382   5.231   4.488  12.085  0.3713  0.3613  0.2273
13964TIP3    H163383   5.161   4.457  12.028 -0.4952  0.4472  1.2230
13964TIP3    H263384   5.267   4.564  12.039  0.2534 -0.0824 -0.6075
13965TIP3   OH263385   0.164   3.070  13.717 -0.3104  0.1715  0.1163
13965TIP3    H163386   0.210   3.103  13.640  0.2043 -0.0061  0.3429
13965TIP3    H263387   0.233   3.038  13.775 -0.7900 -1.9928 -0.3956
13966TIP3   OH263388   2.058   5.887   2.021  0.0002  0.8086  0.4391
13966TIP3    H163389   2.130   5.950   2.016  1.9759 -1.4273 -1.4514
13966TIP3    H263390   1.980   5.941   2.028  1.8109  3.3852  4.0099
13967TIP3   OH263391   3.275   0.433  12.411 -0.2124 -0.4946  0.2943
13967TIP3    H163392   3.340   0.442  12.341 -0.0692 -0.7265  0.3981
13967TIP3    H263393   3.326   0.415  12.489 -0.4594 -1.8249  0.1746
13968TIP3   OH263394   6.276   3.814  11.052 -0.6658 -0.1054  0.1762
13968TIP3    H163395   6.350   3.805  10.991 -1.0536 -2.8379 -0.0453
13968TIP3    H263396   6.199   3.801  10.997 -1.0881 -1.1001  0.9595
13969TIP3   OH263397   6.232   1.284   4.032 -0.2922  0.4829  0.1176
13969TIP3    H163398   6.139   1.275   4.010 -0.4734 -1.5424  1.3897
13969TIP3    H263399   6.272   1.202   4.004  1.1894  1.3965 -0.5801
13970TIP3   OH263400   5.364   6.385   2.027 -0.0402  0.3917  0.9775
13970TIP3    H163401   5.346   6.401   2.119  0.5759 -2.0429  1.6105
13970TIP3    H263402   5.285   6.342   1.994 -0.3614  1.4888  0.2902
13971TIP3   OH263403   3.181   6.525  12.139  0.2207 -0.3926  0.0298
13971TIP3    H163404   3.235   6.492  12.211 -0.0526  0.8715  0.8508
13971TIP3    H263405   3.130   6.596  12.178  0.0587  0.3204 -1.4121
13972TIP3   OH263406   4.420   1.523  15.349  0.4877  0.1851 -0.0732
13972TIP3    H163407   4.379   1.438  15.334  1.1067  0.0660 -1.2268
13972TIP3    H263408   4.417   1.535  15.444 -0.9838 -0.4196 -0.0230
13973TIP3   OH263409   0.205   4.988   1.096  0.0862  0.5184 -0.2377
13973TIP3    H163410   0.139   5.039   1.143  0.0700  1.4620 -1.2454
13973TIP3    H263411   0.157   4.949   1.023  0.4205  0.3136 -0.3504
13974TIP3   OH263412   3.126   1.126   2.823 -0.3374  0.6530  0.2901
13974TIP3    H163413   3.194   1.070   2.861 -1.2904 -1.9547 -1.5294
13974TIP3    H263414   3.174   1.190   2.770  0.7743  1.2761  1.9626
13975TIP3   OH263415   2.111   0.284   1.966 -0.0995 -0.4859  0.0320
13975TIP3    H163416   2.081   0.275   1.875  0.1379  0.7892 -0.1901
13975TIP3    H263417   2.195   0.239   1.968  0.2814  0.1767 -0.5980
13976TIP3   OH263418   2.391   6.713   4.371 -0.3470 -0.4915 -0.3277
13976TIP3    H163419   2.327   6.775   4.336  0.8062 -0.4284 -2.4930
13976TIP3    H263420   2.427   6.669   4.294  1.9795 -0.7398  0.8017
13977TIP3   OH263421   4.359   2.756   5.597 -0.0384 -0.0503 -0.7559
13977TIP3    H163422   4.371   2.838   5.646 -1.5230 -0.5534  0.5412
13977TIP3    H263423   4.431   2.700   5.625 -0.4698 -0.0749  0.3449
13978TIP3   OH263424   2.527   1.752  13.967 -0.2932 -0.5567  0.1706
13978TIP3    H163425   2.592   1.796  13.913 -0.6126 -1.2944 -0.8405
13978TIP3    H263426   2.550   1.660  13.963 -0.7696 -0.7036  0.6760
13979TIP3   OH263427   3.414   4.745   5.860 -0.4152  0.3357  0.2267
13979TIP3    H163428   3.378   4.833   5.853  1.7837  1.3832  1.4515
13979TIP3    H263429   3.475   4.748   5.933  3.0807 -0.9548 -2.3397
13980TIP3   OH263430   3.970   6.570   1.006 -0.0006 -0.0551  0.2594
13980TIP3    H163431   4.020   6.502   0.960 -1.3603 -0.5119 -0.6077
13980TIP3    H263432   3.889   6.526   1.032 -0.1202  0.7671  1.3021
13981TIP3   OH263433   3.620   3.303  14.308  0.1082  0.2643 -0.5459
13981TIP3    H163434   3.554   3.370  14.292 -0.7803 -0.5645 -0.4522
13981TIP3    H263435   3.570   3.221  14.315  1.1784 -0.4350 -0.8279
13982TIP3   OH263436   6.492   4.822   1.507  0.6838 -0.1317  0.1350
13982TIP3    H163437   6.533   4.890   1.559  0.6209 -0.8682  1.1893
13982TIP3    H263438   6.438   4.773   1.569 -0.2060 -0.4266 -0.8185
13983TIP3   OH263439   5.468   3.191  11.998  0.2681 -0.3182  0.2462
13983TIP3    H163440   5.529   3.118  11.985  0.1771 -0.2838 -0.4380
13983TIP3    H263441   5.504   3.262  11.944  1.1131  0.6248  1.9687
13984TIP3   OH263442   2.471   6.000   3.795 -0.0784  0.3459  0.3297
13984TIP3    H163443   2.502   5.910   3.780 -0.3876 -0.0699  1.9856
13984TIP3    H263444   2.409   6.016   3.724 -0.1124 -0.8086  0.0811
13985TIP3   OH263445   5.240   1.963   4.637  0.2772  0.1520  0.1317
13985TIP3    H163446   5.301   1.889   4.647 -0.4186 -0.3865  0.4673
13985TIP3    H263447   5.168   1.943   4.697 -0.4206  0.5892 -0.5472
13986TIP3   OH263448   5.607   6.708  12.322  0.0729 -0.0022 -0.2512
13986TIP3    H163449   5.653   6.681  12.401 -0.8604  1.0998  0.7114
13986TIP3    H263450   5.582   6.799  12.338 -0.0430  0.2909 -1.8687
13987TIP3   OH263451   0.100   4.949   3.154 -0.0449  0.3007 -0.5681
13987TIP3    H163452   0.125   4.857   3.158  0.8887  0.5724 -0.0679
13987TIP3    H263453   0.157   4.988   3.088 -0.6310  0.4692 -0.9881
13988TIP3   OH263454   4.367   5.987   2.642  0.2243  0.2416 -0.4259
13988TIP3    H163455   4.319   5.998   2.560  1.1234 -1.1497 -1.1729
13988TIP3    H263456   4.446   6.040   2.632  0.1390  0.3984 -0.2830
13989TIP3   OH263457   4.318   1.259   2.101  0.1905  0.1200 -0.2047
13989TIP3    H163458   4.297   1.337   2.153  2.2127 -0.6603  1.9860
13989TIP3    H263459   4.251   1.257   2.033  0.4021  4.0696 -0.7662
13990TIP3   OH263460   4.643   5.089  14.902  0.1030 -0.1181  0.0081
13990TIP3    H163461   4.620   5.013  14.956  0.6125  0.4094  1.0000
13990TIP3    H263462   4.608   5.069  14.815 -3.2150  0.1961  1.1364
13991TIP3   OH263463   1.097   6.536  14.138  0.3000  0.2113  0.0152
13991TIP3    H163464   1.167   6.591  14.171 -0.5503  0.6387  1.1693
13991TIP3    H263465   1.034   6.598  14.100 -1.7089  0.3846  3.2111
13992TIP3   OH263466   2.648   1.228   5.280  0.2081  0.1787 -0.1790
13992TIP3    H163467   2.716   1.161   5.283 -0.9232 -0.9739  1.6631
13992TIP3    H263468   2.693   1.310   5.301  1.2465 -0.3311 -0.3774
13993TIP3   OH263469   2.692   2.760  12.307 -0.3160  0.0106  0.3406
13993TIP3    H163470   2.670   2.684  12.361  0.6746 -1.2441 -0.9402
13993TIP3    H263471   2.776   2.789  12.342  0.9934 -1.6179 -1.2454
13994TIP3   OH263472   2.804   1.822  16.331  0.4173 -0.3253 -0.5737
13994TIP3    H163473   2.723   1.871  16.320 -0.4372 -1.7055 -0.6644
13994TIP3    H263474   2.863   1.883  16.375 -1.7403 -0.3150  2.6254
13995TIP3   OH263475   4.122   2.019   0.343 -0.0995  0.6394 -0.0890
13995TIP3    H163476   4.096   1.928   0.354 -2.5169  1.2847  0.1574
13995TIP3    H263477   4.060   2.054   0.279  1.0999  2.0117 -0.5668
13996TIP3   OH263478   1.142   6.449  13.075  0.0155 -0.3125 -0.1909
13996TIP3    H163479   1.233   6.455  13.102 -0.2052  0.2971  0.4291
13996TIP3    H263480   1.139   6.372  13.019  0.7333 -0.8814  0.5282
13997TIP3   OH263481   1.655   2.212   5.841 -0.0759 -0.0662  0.0482
13997TIP3    H163482   1.591   2.144   5.864  0.4482 -1.2167 -1.6820
13997TIP3    H263483   1.601   2.288   5.818 -0.7772 -0.6330 -0.2219
13998TIP3   OH263484   1.122   1.718  14.119  0.2924 -0.2780  0.2500
13998TIP3    H163485   1.088   1.772  14.191 -2.4185  0.9534 -1.7635
13998TIP3    H263486   1.092   1.630  14.138  0.2627 -0.1193  0.9739
13999TIP3   OH263487   1.263   6.391  11.596  0.3383  0.3492 -0.3358
13999TIP3    H163488   1.250   6.411  11.689 -0.7755  0.3564 -0.4804
13999TIP3    H263489   1.240   6.299  11.588 -1.2680  0.7700 -0.8973
14000TIP3   OH263490   3.318   2.145   4.694  0.1329  0.1429 -0.1136
14000TIP3    H163491   3.250   2.211   4.707 -0.4545  0.3217 -3.3196
14000TIP3    H263492   3.339   2.150   4.601  1.0719 -3.2400 -0.2178
14001TIP3   OH263493   4.861   1.427   4.194  0.5156 -0.5413 -0.6017
14001TIP3    H163494   4.818   1.344   4.171  0.9677 -0.9953  0.1511
14001TIP3    H263495   4.825   1.490   4.132 -1.4444 -0.8307  0.1626
14002TIP3   OH263496   0.697   5.557   2.410  0.2304  0.3156 -0.6053
14002TIP3    H163497   0.770   5.518   2.361  0.5217  1.4227 -1.0897
14002TIP3    H263498   0.739   5.617   2.472 -0.1421 -0.9813  0.9509
14003TIP3   OH263499   1.538   5.894   5.768  0.2118 -0.2408  0.2017
14003TIP3    H163500   1.622   5.885   5.813  0.3940  0.1027 -0.0635
14003TIP3    H263501   1.559   5.940   5.687  0.0338 -1.6487 -0.6692
14004TIP3   OH263502   6.294   1.902  14.429  0.1613  0.0970  0.0195
14004TIP3    H163503   6.255   1.913  14.342 -2.0050 -2.7665  0.4939
14004TIP3    H263504   6.356   1.829  14.418 -0.8282 -0.9420  0.9877
14005TIP3   OH263505   6.663   3.457  17.211  0.6343  0.2963 -0.0354
14005TIP3    H163506   6.708   3.484  17.131 -1.1973  0.2835 -1.1198
14005TIP3    H263507   6.634   3.367  17.194 -0.1436  0.4409  0.4493
14006TIP3   OH263508   0.043   3.635  14.710 -0.0195 -0.4185  0.0130
14006TIP3    H163509   0.024   3.725  14.681  0.2455 -0.6957 -1.0800
14006TIP3    H263510   0.083   3.645  14.796 -1.1511  0.4319  0.4620
14007TIP3   OH263511   3.970   2.683  14.781 -0.2865 -0.1361  0.4280
14007TIP3    H163512   4.010   2.727  14.855 -0.7908  1.6501 -0.2990
14007TIP3    H263513   3.883   2.658  14.812  0.4628 -1.9030  1.2606
14008TIP3   OH263514   1.705   6.519  15.354  0.6326  0.4871 -0.4489
14008TIP3    H163515   1.650   6.593  15.329  1.2952  1.2107  0.1757
14008TIP3    H263516   1.671   6.491  15.439  1.4736  1.2196  0.1500
14009TIP3   OH263517   3.411   3.882  11.618 -0.0979  0.0960  0.1863
14009TIP3    H163518   3.326   3.899  11.578 -0.9905 -0.0727  1.9116
14009TIP3    H263519   3.409   3.788  11.639  0.9826 -0.1646 -0.7218
14010TIP3   OH263520   4.514   2.286   2.413 -0.5229  0.1445  0.0111
14010TIP3    H163521   4.603   2.317   2.392 -0.7946  0.0125 -1.4347
14010TIP3    H263522   4.528   2.210   2.469  0.2933  0.0819 -0.2579
14011TIP3   OH263523   4.006   1.294  10.623 -0.9636 -1.0125 -0.4058
14011TIP3    H163524   3.929   1.241  10.642 -0.9421 -0.4333  1.4409
14011TIP3    H263525   3.977   1.355  10.556 -3.5957  2.1766  3.2061
14012TIP3   OH263526   1.035   3.356   5.516  0.0267  0.7989  0.4221
14012TIP3    H163527   0.987   3.289   5.566 -1.4533  0.0164 -1.8449
14012TIP3    H263528   1.114   3.312   5.487 -0.2000  0.5186  0.2201
14013TIP3   OH263529   1.243   3.343  11.643 -0.2317  0.3133 -0.3081
14013TIP3    H163530   1.231   3.266  11.588  1.3783  0.3781 -0.7946
14013TIP3    H263531   1.188   3.411  11.603  1.1643  0.4575 -2.0640
14014TIP3   OH263532   1.511   5.772  12.126 -0.6542 -0.0068  0.0051
14014TIP3    H163533   1.529   5.822  12.206 -1.1665  1.4237 -0.7316
14014TIP3    H263534   1.415   5.764  12.125 -0.5719 -1.3085  0.2533
14015TIP3   OH263535   3.590   2.454   3.619 -0.0446 -0.0005  0.2192
14015TIP3    H163536   3.602   2.369   3.578 -0.6158 -0.5414  1.1566
14015TIP3    H263537   3.642   2.450   3.699 -2.6195 -0.7048  1.9766
14016TIP3   OH263538   0.722   4.935   0.472  0.5766  0.7604 -0.0571
14016TIP3    H163539   0.657   4.892   0.528  1.0245 -1.2599 -1.0088
14016TIP3    H263540   0.685   5.022   0.456 -1.3110  0.1127  0.4404
14017TIP3   OH263541   1.912   5.378   0.755  0.0632  0.0128 -0.0109
14017TIP3    H163542   1.907   5.363   0.660 -0.0856  1.8895 -0.3475
14017TIP3    H263543   1.954   5.464   0.763  1.9674 -0.9856  1.7220
14018TIP3   OH263544   0.358   2.319   6.643  0.3696 -0.0196 -0.3711
14018TIP3    H163545   0.412   2.255   6.596  0.1151  0.1463 -0.8952
14018TIP3    H263546   0.321   2.374   6.574  1.0244  1.0402  0.1108
14019TIP3   OH263547   4.675   1.009  13.822 -0.0756  0.4774 -0.6669
14019TIP3    H163548   4.640   1.092  13.789 -0.0167  0.4245 -0.8670
14019TIP3    H263549   4.597   0.956  13.840 -0.1542  0.9503  0.4803
14020TIP3   OH263550   5.625   4.441  11.197  0.5127  0.0053 -0.1844
14020TIP3    H163551   5.705   4.399  11.165 -2.0768 -3.5816 -2.5992
14020TIP3    H263552   5.618   4.521  11.144  1.1978 -0.9640 -1.8137
14021TIP3   OH263553   4.101   3.075   4.628 -0.1808  0.1458  1.1230
14021TIP3    H163554   4.017   3.031   4.614 -0.1372 -0.0186  1.3745
14021TIP3    H263555   4.165   3.004   4.628  0.1520  0.3939 -0.5916
14022TIP3   OH263556   5.277   6.127  12.832  0.2254  0.3343 -0.1674
14022TIP3    H163557   5.371   6.142  12.836  0.2908 -0.2177  0.5158
14022TIP3    H263558   5.256   6.127  12.738  0.6550  1.9100 -0.2977
14023TIP3   OH263559   0.833   1.446  16.131 -0.5355 -0.0505 -0.7154
14023TIP3    H163560   0.808   1.354  16.122  0.7935 -0.4011 -1.0681
14023TIP3    H263561   0.909   1.456  16.074 -0.5984  1.2418 -0.5933
14024TIP3   OH263562   4.252   1.864  13.011 -0.5243 -0.3601 -0.2830
14024TIP3    H163563   4.325   1.802  13.017 -0.9922 -0.8045  2.2122
14024TIP3    H263564   4.195   1.829  12.943 -0.3639 -2.2462  0.4927
14025TIP3   OH263565   5.607   3.037   3.161  0.0400  0.3329  0.4542
14025TIP3    H163566   5.540   3.038   3.229 -0.9831  2.0532 -0.5048
14025TIP3    H263567   5.600   2.950   3.122 -1.7363  0.4989  0.3188
14026TIP3   OH263568   1.551   0.779   0.545  0.4797  0.3680 -0.1282
14026TIP3    H163569   1.498   0.708   0.507  0.8530  0.1165 -0.1791
14026TIP3    H263570   1.629   0.782   0.490  0.9241  0.1535  0.4886
14027TIP3   OH263571   0.198   0.670   1.955 -0.1500 -0.3186 -0.3508
14027TIP3    H163572   0.286   0.685   1.920  0.5906 -1.0885  1.0812
14027TIP3    H263573   0.166   0.594   1.906  0.1205 -0.2474 -0.6407
14028TIP3   OH263574   1.210   0.145   2.701 -0.5691 -0.3028 -0.5638
14028TIP3    H163575   1.279   0.082   2.679  0.3072  0.2547  0.4790
14028TIP3    H263576   1.231   0.223   2.650  0.4646  0.3851  0.8532
14029TIP3   OH263577   0.332   5.976   4.396  0.0239 -0.6610  0.3738
14029TIP3    H163578   0.310   5.883   4.391 -1.3940 -0.3244 -0.0761
14029TIP3    H263579   0.253   6.021   4.368  1.3347  0.6516 -1.5084
14030TIP3   OH263580   6.056   4.073  16.229  0.0809 -0.1845  0.3228
14030TIP3    H163581   6.121   4.026  16.177  1.1027  1.8837 -0.3677
14030TIP3    H263582   6.107   4.126  16.289 -0.9681  1.1745  0.0534
14031TIP3   OH263583   4.028   2.983   0.288 -1.0797  0.3097  0.1005
14031TIP3    H163584   4.045   2.975   0.194 -0.4187  0.9743  0.1547
14031TIP3    H263585   4.071   3.064   0.314 -0.8362 -0.1124  1.0784
14032TIP3   OH263586   5.267   2.557   2.215  0.1641 -0.7055 -0.2791
14032TIP3    H163587   5.174   2.536   2.200 -0.4356  1.7554 -0.3782
14032TIP3    H263588   5.299   2.584   2.129  0.5962 -0.2152  0.0318
14033TIP3   OH263589   1.140   3.351  11.298  0.3270  0.4142 -0.0904
14033TIP3    H163590   1.209   3.307  11.347  0.0720  0.8588  0.6839
14033TIP3    H263591   1.110   3.285  11.234  0.6268 -0.1900  0.3804
14034TIP3   OH263592   5.653   3.882  10.445  0.3895 -0.1766 -0.1465
14034TIP3    H163593   5.666   3.818  10.515  0.4978 -1.6683 -1.4778
14034TIP3    H263594   5.677   3.835  10.365 -0.2604  1.2987 -1.2454
14035TIP3   OH263595   2.549   4.722  12.375  0.0005  0.2589  0.2469
14035TIP3    H163596   2.597   4.639  12.367 -0.7307 -0.4888  2.7038
14035TIP3    H263597   2.475   4.713  12.315  1.2970  0.2587 -1.4428
14036TIP3   OH263598   3.420   2.374   4.511  0.9553  0.4200  0.7317
14036TIP3    H163599   3.437   2.439   4.443 -1.1073  1.0914  0.7863
14036TIP3    H263600   3.504   2.329   4.523  1.6016  0.8651 -1.6245
14037TIP3   OH263601   3.062   1.143   4.288 -0.8094  0.2428  0.0915
14037TIP3    H163602   3.060   1.051   4.262 -1.7217  0.8501 -2.2667
14037TIP3    H263603   3.154   1.169   4.279 -0.2507 -0.7686  2.3028
14038TIP3   OH263604   1.848   2.730  14.695 -0.6747  0.6760 -1.0120
14038TIP3    H163605   1.796   2.651  14.713  0.7340 -0.3153 -1.1744
14038TIP3    H263606   1.786   2.790  14.653 -1.6898 -0.4630 -1.2015
14039TIP3   OH263607   2.179   2.159   3.438  0.0296  0.1139  0.1529
14039TIP3    H163608   2.255   2.202   3.476 -0.9460 -0.0978  2.5007
14039TIP3    H263609   2.110   2.169   3.504 -1.0794 -2.4665 -0.4987
14040TIP3   OH263610   1.211   0.419  13.884  0.0408 -0.0908  0.1706
14040TIP3    H163611   1.302   0.392  13.895 -0.1538 -0.6676  0.4019
14040TIP3    H263612   1.178   0.429  13.973  0.1412  1.0590  0.0971
14041TIP3   OH263613   1.733   0.736  14.298 -0.5368  0.6376 -0.2552
14041TIP3    H163614   1.703   0.743  14.389 -1.2564  0.0930 -0.4409
14041TIP3    H263615   1.825   0.710  14.305 -0.9357 -0.6977  0.3260
14042TIP3   OH263616   2.479   5.373  14.580 -0.1136 -0.2800 -0.4125
14042TIP3    H163617   2.556   5.417  14.618 -0.4839  1.2415 -1.3243
14042TIP3    H263618   2.413   5.377  14.648 -0.1461  0.6477 -0.4850
14043TIP3   OH263619   2.947   6.500  11.691 -0.3834  0.1290  0.7288
14043TIP3    H163620   2.961   6.584  11.736  0.9942  0.3306 -0.0277
14043TIP3    H263621   2.981   6.514  11.603  0.6300 -1.4540  0.8256
14044TIP3   OH263622   0.327   4.589   5.483  0.2687  0.1712  0.3845
14044TIP3    H163623   0.400   4.592   5.544  0.9116 -0.4874 -0.3345
14044TIP3    H263624   0.344   4.660   5.421  0.4417 -0.1428  0.0672
14045TIP3   OH263625   0.865   0.158  14.482 -0.0319  0.2062 -0.3532
14045TIP3    H163626   0.921   0.190  14.553 -0.0098  0.7313 -0.6025
14045TIP3    H263627   0.920   0.162  14.404  0.1286 -0.9024 -0.3220
14046TIP3   OH263628   4.864   3.805   3.597  0.6831 -0.1532 -0.4952
14046TIP3    H163629   4.890   3.770   3.512  3.0074 -0.4922  0.2829
14046TIP3    H263630   4.775   3.773   3.610  1.1229 -2.0454 -1.7838
14047TIP3   OH263631   6.093   5.737  14.263 -0.2622 -0.4846  0.2403
14047TIP3    H163632   6.124   5.652  14.294 -1.8188 -0.7974  1.0246
14047TIP3    H263633   6.051   5.718  14.179 -1.8489 -0.7581  1.0665
14048TIP3   OH263634   5.613   5.343  15.749 -0.1935  0.1339  0.0575
14048TIP3    H163635   5.659   5.281  15.693 -0.4149  0.3484 -0.3634
14048TIP3    H263636   5.669   5.352  15.826 -1.5765 -2.9489  1.5997
14049TIP3   OH263637   3.818   4.717   3.874  0.0239 -0.2950 -0.4647
14049TIP3    H163638   3.758   4.752   3.940  0.8051 -0.3457  0.2870
14049TIP3    H263639   3.822   4.623   3.892  2.2113  0.0255  1.1075
14050TIP3   OH263640   2.896   2.075  11.013  0.1749 -0.1387 -0.4194
14050TIP3    H163641   2.815   2.044  10.973  0.6265 -2.9722  0.5728
14050TIP3    H263642   2.875   2.161  11.048 -2.8862 -1.3023  1.0205
14051TIP3   OH263643   4.288   3.327  17.083 -0.8701  0.2473 -0.1484
14051TIP3    H163644   4.304   3.421  17.093  0.2764 -0.0915  1.8902
14051TIP3    H263645   4.224   3.307  17.151 -0.9355 -0.4837 -0.4220
14052TIP3   OH263646   6.389   5.940  16.036 -0.2167 -0.2394  0.3575
14052TIP3    H163647   6.470   5.898  16.064  1.3381  2.8932  1.0083
14052TIP3    H263648   6.386   5.926  15.941  0.6165 -1.0886  0.4430
14053TIP3   OH263649   6.702   2.491   1.896 -0.0512 -0.0684  0.0709
14053TIP3    H163650   6.778   2.500   1.954 -0.4167  3.0250  0.2240
14053TIP3    H263651   6.668   2.404   1.915  2.1225 -0.6766  1.6371
14054TIP3   OH263652   4.272   0.699  11.565 -0.4318 -0.5975  0.0723
14054TIP3    H163653   4.209   0.679  11.496 -1.8562  0.2965  1.0744
14054TIP3    H263654   4.281   0.617  11.614 -1.6210 -0.4875  0.5211
14055TIP3   OH263655   4.204   5.526  15.023  0.0682 -0.7480  0.0642
14055TIP3    H163656   4.138   5.594  15.039  0.5979 -0.1806 -0.1131
14055TIP3    H263657   4.269   5.569  14.968 -1.0559 -2.2487 -2.6464
14056TIP3   OH263658   5.935   0.732  11.082 -0.1157  0.4033 -0.0582
14056TIP3    H163659   5.955   0.820  11.049 -1.9105  0.1016 -2.1988
14056TIP3    H263660   6.019   0.700  11.115  0.9530  2.2872 -0.7439
14057TIP3   OH263661   0.732   1.749   2.744  0.1163  0.2796 -0.0899
14057TIP3    H163662   0.752   1.708   2.828 -0.9901 -0.5284 -0.1842
14057TIP3    H263663   0.646   1.714   2.720  0.7530 -0.1603 -1.9580
14058TIP3   OH263664   1.570   0.749   3.418 -0.5754  0.4231 -0.1838
14058TIP3    H163665   1.481   0.715   3.426 -1.0753  1.9610  1.4432
14058TIP3    H263666   1.569   0.831   3.468  1.5371  0.9038 -0.8339
14059TIP3   OH263667   5.594   3.937   3.122 -0.1305  0.0983 -0.2431
14059TIP3    H163668   5.512   3.947   3.074  0.4959  0.0383 -1.3421
14059TIP3    H263669   5.645   4.015   3.099  0.5630 -0.4119 -0.4477
14060TIP3   OH263670   2.828   5.613   3.735  0.4405  0.3582  0.0077
14060TIP3    H163671   2.817   5.532   3.687 -1.0376  0.8628 -0.5356
14060TIP3    H263672   2.745   5.628   3.779 -0.0010  2.5035 -1.3810
14061TIP3   OH263673   6.016   3.890   2.013  0.5090 -0.3069 -0.3029
14061TIP3    H163674   6.082   3.874   1.946  0.6195 -1.3883  0.0424
14061TIP3    H263675   6.025   3.816   2.074  0.1025  0.4086  0.6529
14062TIP3   OH263676   0.428   1.596  15.853 -0.1932 -0.0499 -0.5690
14062TIP3    H163677   0.457   1.570  15.940 -0.2762 -2.1180 -1.1051
14062TIP3    H263678   0.333   1.597  15.858 -0.1884  0.3210 -0.5148
14063TIP3   OH263679   3.314   5.362   5.143  0.6663 -0.0729  0.5499
14063TIP3    H163680   3.253   5.401   5.206 -0.7820  1.3654 -1.5824
14063TIP3    H263681   3.400   5.393   5.171 -0.1291  2.1034  0.7988
14064TIP3   OH263682   5.419   0.933  13.659  0.4195  0.3507 -0.1947
14064TIP3    H163683   5.353   0.984  13.705 -0.1187  0.7733 -1.3775
14064TIP3    H263684   5.444   0.864  13.720  0.0516  1.1342  0.8636
14065TIP3   OH263685   1.564   3.371  11.547 -0.5393  0.4842 -0.5592
14065TIP3    H163686   1.481   3.342  11.509 -1.0138 -0.6113  1.2112
14065TIP3    H263687   1.621   3.295  11.540  0.3732  1.2405 -1.7866
14066TIP3   OH263688   1.168   4.228   4.108  0.3474 -0.5704 -0.5412
14066TIP3    H163689   1.221   4.149   4.098 -0.1104 -1.2884  1.9954
14066TIP3    H263690   1.141   4.227   4.200  0.5432  2.6860 -0.3215
14067TIP3   OH263691   1.987   3.260   4.310 -0.2959 -0.5777  0.0289
14067TIP3    H163692   2.051   3.284   4.377 -0.5513  0.5151 -0.0859
14067TIP3    H263693   1.983   3.337   4.253 -0.7256 -1.1534 -0.7326
14068TIP3   OH263694   1.582   2.208   0.627 -0.5456  0.1753 -0.5568
14068TIP3    H163695   1.548   2.250   0.547  1.7762  1.8598 -0.7532
14068TIP3    H263696   1.660   2.161   0.598  0.3402  0.8284  0.7026
14069TIP3   OH263697   6.637   3.083   4.810 -0.0736 -0.0029  0.1933
14069TIP3    H163698   6.602   3.107   4.724  0.2543 -1.2797 -0.3266
14069TIP3    H263699   6.715   3.137   4.820 -0.4923  0.6473 -0.0077
14070TIP3   OH263700   5.921   6.613  11.511  0.1639  0.4550 -0.6640
14070TIP3    H163701   5.997   6.669  11.494  0.0470  0.3991 -1.4140
14070TIP3    H263702   5.864   6.666  11.567 -0.0064  1.1469 -1.4655
14071TIP3   OH263703   0.821   0.596  13.281  0.4860  0.6347 -0.1836
14071TIP3    H163704   0.792   0.652  13.210 -0.0902 -0.8480 -1.1610
14071TIP3    H263705   0.767   0.622  13.356  1.1425  2.2464 -0.2380
14072TIP3   OH263706   3.239   5.863  11.633 -0.2276  0.5214 -0.8171
14072TIP3    H163707   3.296   5.910  11.694  0.1472  1.5724 -1.9330
14072TIP3    H263708   3.266   5.771  11.641 -0.2026  0.6270  0.5843
14073TIP3   OH263709   4.417   4.307  13.463 -0.0826 -0.2179  0.3412
14073TIP3    H163710   4.372   4.317  13.378  0.2344 -1.7833 -0.0338
14073TIP3    H263711   4.424   4.396  13.496  0.2661  0.5032 -1.5339
14074TIP3   OH263712   0.426   3.553   1.377  0.1983  0.5861  0.9293
14074TIP3    H163713   0.416   3.483   1.441  0.9778  0.3459  0.7939
14074TIP3    H263714   0.445   3.507   1.295 -3.1885  0.7096 -0.0723
14075TIP3   OH263715   5.185   4.364   1.139  0.4310 -0.2379 -0.6951
14075TIP3    H163716   5.227   4.321   1.064  0.7475  1.2347 -1.3984
14075TIP3    H263717   5.162   4.292   1.198  2.8146 -1.2339 -0.8458
14076TIP3   OH263718   3.583   2.890  11.816 -0.0835 -0.0890 -0.2851
14076TIP3    H163719   3.636   2.939  11.878 -0.3614  0.7572 -0.7006
14076TIP3    H263720   3.495   2.889  11.855 -0.2650  0.4683 -0.6702
14077TIP3   OH263721   0.736   1.415   3.690 -0.2395 -0.4385 -0.0892
14077TIP3    H163722   0.823   1.445   3.661  0.8005 -1.6465  1.5879
14077TIP3    H263723   0.685   1.496   3.698 -0.4498  0.1149 -4.2837
14078TIP3   OH263724   1.429   5.241   0.035 -0.3216  0.2820  0.0813
14078TIP3    H163725   1.520   5.270   0.047  0.7205 -1.1434 -3.2476
14078TIP3    H263726   1.387   5.314  -0.011 -0.4715  0.3834  0.3786
14079TIP3   OH263727   0.287   2.100  14.745 -0.2406  0.1309  0.1354
14079TIP3    H163728   0.240   2.180  14.722  1.7838  1.4493  0.3847
14079TIP3    H263729   0.369   2.130  14.784  0.1808 -2.0749  1.1112
14080TIP3   OH263730   6.444   4.548  12.317 -0.2264 -0.2464 -0.0208
14080TIP3    H163731   6.444   4.453  12.310 -0.6616 -0.1382 -1.8077
14080TIP3    H263732   6.494   4.578  12.241 -0.8068  0.9805  0.0601
14081TIP3   OH263733   0.558   0.384   2.476  0.2901  0.0583  0.2124
14081TIP3    H163734   0.558   0.297   2.516 -3.2526  0.0195  0.4370
14081TIP3    H263735   0.528   0.369   2.386  0.2478  0.9595  0.0614
14082TIP3   OH263736   0.208   1.187  13.608  0.1584 -0.3715  0.4933
14082TIP3    H163737   0.128   1.233  13.582  0.7199  0.2412 -0.1531
14082TIP3    H263738   0.188   1.154  13.696 -0.8041 -0.2281  0.3444
14083TIP3   OH263739   4.522   0.405   3.583 -0.4568  0.1233  0.6190
14083TIP3    H163740   4.501   0.356   3.662  1.0108 -1.1964  0.2540
14083TIP3    H263741   4.504   0.345   3.511 -0.8811  0.9731 -0.0146
14084TIP3   OH263742   6.424   0.066  11.189 -0.0517  0.1040  0.3576
14084TIP3    H163743   6.345   0.084  11.138 -1.1575 -1.5297  1.4202
14084TIP3    H263744   6.403   0.096  11.278 -0.0503 -1.6455  0.9794
14085TIP3   OH263745   2.562   4.937  11.146  0.1848 -0.1030 -0.1811
14085TIP3    H163746   2.533   4.911  11.058 -2.3628 -0.1938  0.5897
14085TIP3    H263747   2.537   5.029  11.152  0.5921 -0.0255  0.3505
14086TIP3   OH263748   1.223   4.638  14.130  0.2780  0.4212 -0.1693
14086TIP3    H163749   1.311   4.636  14.092  0.0972  2.0180 -0.7372
14086TIP3    H263750   1.234   4.685  14.212  0.0557  0.0728  0.0609
14087TIP3   OH263751   6.241   3.167  12.041  0.4398 -0.0047  0.0033
14087TIP3    H163752   6.161   3.217  12.031 -1.0248 -1.9706  1.2844
14087TIP3    H263753   6.241   3.138  12.132  1.8822 -1.2238 -0.3402
14088TIP3   OH263754   2.998   3.172   4.702  0.5943 -0.6155 -0.3906
14088TIP3    H163755   3.050   3.227   4.644 -0.0830  1.7478  1.1018
14088TIP3    H263756   2.991   3.222   4.783 -3.6194 -0.8979 -0.3207
14089TIP3   OH263757   3.680   5.769   6.116 -0.0753  0.3126 -0.2654
14089TIP3    H163758   3.618   5.700   6.091 -3.4332  1.3488  4.1195
14089TIP3    H263759   3.653   5.845   6.065  0.6054 -0.3229 -1.6370
14090TIP3   OH263760   1.093   1.385  13.893  0.2002 -0.0666  0.4237
14090TIP3    H163761   1.132   1.467  13.861  2.0851 -0.0670  2.4760
14090TIP3    H263762   1.050   1.348  13.816 -1.0986  3.0245 -0.5146
14091TIP3   OH263763   4.103   3.199  15.039 -0.4036  0.4590 -0.2023
14091TIP3    H163764   4.094   3.203  14.944  0.8677 -0.4180 -0.3873
14091TIP3    H263765   4.164   3.269  15.061  1.3011 -0.8990 -0.3704
14092TIP3   OH263766   1.618   1.214  11.065 -0.3444 -0.5763  0.0079
14092TIP3    H163767   1.568   1.242  10.988 -1.4256 -1.8798  0.2213
14092TIP3    H263768   1.600   1.281  11.131  0.8305  0.7198 -0.9210
14093TIP3   OH263769   1.169   2.299   4.752  0.4787 -0.0629 -0.0095
14093TIP3    H163770   1.120   2.247   4.689  1.3263 -0.2811 -0.4960
14093TIP3    H263771   1.146   2.261   4.837 -0.9891  0.4925 -0.1256
14094TIP3   OH263772   4.936   2.972   2.550  0.1866  0.3489 -0.2184
14094TIP3    H163773   4.935   3.049   2.608  1.2321  0.1032  0.1520
14094TIP3    H263774   4.852   2.929   2.565 -0.9269  2.0347 -1.2933
14095TIP3   OH263775   0.753   5.058   2.555  0.4953 -0.3424  0.1457
14095TIP3    H163776   0.725   5.090   2.469  0.8514 -1.2762 -0.3316
14095TIP3    H263777   0.818   5.122   2.584 -0.1497  0.3690  0.0523
14096TIP3   OH263778   5.895   3.428   4.002  0.1525 -0.2066 -0.5721
14096TIP3    H163779   5.907   3.514   4.042  0.6089 -0.4065 -0.2712
14096TIP3    H263780   5.803   3.406   4.021  0.0964  0.1129 -0.4564
14097TIP3   OH263781   1.871   5.919  12.627 -0.7318 -0.2148  0.1279
14097TIP3    H163782   1.882   5.997  12.573 -2.8711 -0.4026 -0.6930
14097TIP3    H263783   1.954   5.909  12.672  0.6826  0.7347 -2.0953
14098TIP3   OH263784   4.223   5.915   4.902 -0.1618  0.0459 -0.1297
14098TIP3    H163785   4.287   5.855   4.940 -0.0752 -1.2137 -2.1332
14098TIP3    H263786   4.144   5.861   4.889 -0.2663  0.4826 -1.4366
14099TIP3   OH263787   1.956   3.646   5.234  0.0249  0.1971 -0.2566
14099TIP3    H163788   1.946   3.551   5.244  0.4133  0.2494  0.7127
14099TIP3    H263789   2.047   3.663   5.257 -0.7624  1.1475  2.6195
14100TIP3   OH263790   3.364   3.929   1.973 -0.0414  0.1813 -0.4289
14100TIP3    H163791   3.420   4.006   1.967 -2.8494  2.3804 -0.8619
14100TIP3    H263792   3.276   3.965   1.987 -1.1733 -3.0607  1.9394
14101TIP3   OH263793   0.211   2.453   4.600 -0.1970  0.0624 -0.0680
14101TIP3    H163794   0.131   2.458   4.652 -0.6962  2.1232 -0.9273
14101TIP3    H263795   0.189   2.497   4.518  1.5774 -0.0448 -0.6440
14102TIP3   OH263796   0.536   6.571   4.162  0.3195 -0.2737 -0.2908
14102TIP3    H163797   0.563   6.547   4.073  1.0397 -1.6193  0.2712
14102TIP3    H263798   0.509   6.489   4.202  0.6144  0.2129  0.9505
14103TIP3   OH263799   4.162   3.348   3.989 -0.5302  0.6846  0.1503
14103TIP3    H163800   4.257   3.357   3.980 -0.1359  0.9858  3.5751
14103TIP3    H263801   4.127   3.397   3.914  1.9573  1.0101 -0.9144
14104TIP3   OH263802   3.944   2.662  14.291 -0.0779  0.0488  0.6704
14104TIP3    H163803   3.896   2.606  14.230  0.8830  0.5305 -0.5669
14104TIP3    H263804   3.877   2.716  14.332 -0.7825 -0.5484  0.3194
14105TIP3   OH263805   5.722   4.061   1.433 -0.0462  0.0376 -0.4925
14105TIP3    H163806   5.642   4.065   1.486 -0.1543  0.4799 -0.6856
14105TIP3    H263807   5.787   4.023   1.492 -0.9946 -2.7859 -1.0865
14106TIP3   OH263808   0.252   2.604  17.052 -0.4437  0.4384  0.3288
14106TIP3    H163809   0.191   2.543  17.011  0.2955  0.2651 -0.5270
14106TIP3    H263810   0.326   2.609  16.992  0.0116  1.3098  0.9372
14107TIP3   OH263811   2.761   6.697  14.050 -0.0671  0.1127  0.2017
14107TIP3    H163812   2.854   6.718  14.054  0.1454 -0.7891  0.1091
14107TIP3    H263813   2.745   6.643  14.128 -0.6689  0.8525  0.6053
14108TIP3   OH263814   0.710   0.863   2.818  0.4348  0.1133  0.4543
14108TIP3    H163815   0.784   0.893   2.766  1.4609  1.0856  2.3662
14108TIP3    H263816   0.694   0.935   2.880 -1.3361 -0.5876  0.8715
14109TIP3   OH263817   5.977   1.644  15.545  0.3416  0.5418 -0.0920
14109TIP3    H163818   6.048   1.665  15.604  0.3652  0.0778  0.0425
14109TIP3    H263819   5.898   1.649  15.599  0.4615 -0.9686  0.2503
14110TIP3   OH263820   2.093   6.087   0.943  0.6820  0.2242  0.1158
14110TIP3    H163821   2.055   6.175   0.940  2.0634  0.8717  0.4809
14110TIP3    H263822   2.018   6.028   0.952 -0.3741  1.2510 -1.3979
14111TIP3   OH263823   5.175   2.310  14.555  0.1564  0.4690  0.2841
14111TIP3    H163824   5.168   2.404  14.571  1.4172  0.6558 -0.1315
14111TIP3    H263825   5.261   2.286  14.588 -0.0515 -0.4940  0.1597
14112TIP3   OH263826   4.659   3.135   0.561  0.3068  0.4033 -0.0435
14112TIP3    H163827   4.604   3.103   0.633 -0.5086  1.8428  0.0154
14112TIP3    H263828   4.749   3.114   0.588 -0.0437  0.1978  1.0048
14113TIP3   OH263829   4.694   5.048  10.322  0.2506  0.6064  0.3306
14113TIP3    H163830   4.632   4.986  10.284  0.2722 -0.6732  2.3002
14113TIP3    H263831   4.642   5.127  10.337 -0.4204  0.1927  0.2207
14114TIP3   OH263832   3.614   4.343  12.771 -0.2811 -0.1921  0.3486
14114TIP3    H163833   3.708   4.339  12.787 -0.3416  2.9919  2.3051
14114TIP3    H263834   3.606   4.341  12.676  2.1295  2.9531 -0.0768
14115TIP3   OH263835   0.755   2.448  16.706  0.0481 -0.0461  0.3920
14115TIP3    H163836   0.812   2.467  16.632 -1.4142  1.5681 -0.3923
14115TIP3    H263837   0.670   2.483  16.681 -0.8644 -0.7708  2.2502
14116TIP3   OH263838   6.424   4.743  13.104  0.0256 -0.7533  0.0435
14116TIP3    H163839   6.388   4.800  13.036  2.0483  0.4977 -0.0338
14116TIP3    H263840   6.347   4.713  13.153 -1.2069  0.9163 -0.7703
14117TIP3   OH263841   5.669   1.849  17.211  0.6525 -0.2281 -0.3718
14117TIP3    H163842   5.706   1.780  17.155  1.2338  0.5981 -1.0419
14117TIP3    H263843   5.579   1.822  17.227  1.5275 -2.4247  1.4681
14118TIP3   OH263844   5.382   4.058  14.286  0.2516  0.3295 -0.1478
14118TIP3    H163845   5.390   3.969  14.249 -0.4771 -0.2547  1.0451
14118TIP3    H263846   5.360   4.044  14.378  0.4810  1.7642  0.1510
14119TIP3   OH263847   6.057   5.842  10.516  0.7336  0.4934 -0.6803
14119TIP3    H163848   6.123   5.834  10.448 -0.1066 -0.4147 -1.4224
14119TIP3    H263849   6.038   5.752  10.543  0.1427  0.7638 -0.1527
14120TIP3   OH263850   3.534   4.157   5.620 -0.0076  0.0311  0.4829
14120TIP3    H163851   3.613   4.165   5.674  0.1492  1.1359  0.1324
14120TIP3    H263852   3.567   4.140   5.532  0.1322  3.6874 -0.3512
14121TIP3   OH263853   0.549   6.568   1.262  0.5290 -0.6308 -0.0284
14121TIP3    H163854   0.503   6.488   1.285  0.2199 -0.4250  0.0775
14121TIP3    H263855   0.631   6.539   1.222  0.1317 -1.0039 -0.5844
14122TIP3   OH263856   6.143   4.380   2.018 -0.5165  0.2298 -0.5844
14122TIP3    H163857   6.125   4.402   2.109  1.1695  0.5675 -0.3158
14122TIP3    H263858   6.147   4.284   2.017  1.9880  0.2665  0.2497
14123TIP3   OH263859   5.450   5.369   4.898 -0.5893 -0.1826 -0.0081
14123TIP3    H163860   5.503   5.398   4.973 -0.6555 -2.6923  1.1101
14123TIP3    H263861   5.359   5.377   4.929 -0.6770 -0.0150 -0.3092
14124TIP3   OH263862   4.128   6.692  12.766 -0.0331 -0.1230  0.2320
14124TIP3    H163863   4.221   6.698  12.788 -0.3648 -0.8736  2.0371
14124TIP3    H263864   4.089   6.646  12.840 -1.4633 -2.0640 -1.5945
14125TIP3   OH263865   6.382   6.205  16.385 -0.1596 -0.4380  0.4205
14125TIP3    H163866   6.399   6.226  16.293  2.1031 -0.9333  0.6750
14125TIP3    H263867   6.368   6.290  16.427  1.8793  0.0772  0.1460
14126TIP3   OH263868   5.482   4.208   4.008  0.3304 -0.6984  0.5734
14126TIP3    H163869   5.485   4.224   4.102  0.5777  0.1643  0.4313
14126TIP3    H263870   5.416   4.270   3.975  1.5058  0.2703 -0.0404
14127TIP3   OH263871   2.937   5.441   1.018  0.8296  0.0710 -0.0369
14127TIP3    H163872   3.011   5.498   1.037 -0.5934  1.1932  2.5928
14127TIP3    H263873   2.884   5.441   1.098 -2.9376  0.7461 -2.2453
14128TIP3   OH263874   6.191   6.370   4.640 -0.4334 -0.0505  0.4051
14128TIP3    H163875   6.174   6.282   4.607  0.8746 -0.0543 -0.3430
14128TIP3    H263876   6.217   6.420   4.562  0.4657  0.5406  1.0565
14129TIP3   OH263877   1.943   5.655   0.327 -0.4509 -0.2047  0.3675
14129TIP3    H163878   2.004   5.593   0.368  0.4130  1.2668  1.3839
14129TIP3    H263879   1.906   5.606   0.253  1.4927 -1.3662  0.0913
14130TIP3   OH263880   0.733   2.737   3.316 -0.2368 -0.0726  0.1631
14130TIP3    H163881   0.801   2.717   3.251 -0.5656 -0.7193  0.0089
14130TIP3    H263882   0.706   2.826   3.296  1.3553  0.6225  0.9344
14131TIP3   OH263883   0.879   3.223  13.863  0.3425  0.4946  0.2040
14131TIP3    H163884   0.946   3.167  13.902 -0.7040 -0.4679  0.6795
14131TIP3    H263885   0.846   3.172  13.789  1.7098  1.9362 -1.4927
14132TIP3   OH263886   5.637   2.280  12.686  0.3442 -0.1226  0.1259
14132TIP3    H163887   5.662   2.201  12.734 -0.1588 -0.3798 -0.0293
14132TIP3    H263888   5.597   2.337  12.752 -0.7680 -0.6647 -0.0611
14133TIP3   OH263889   6.472   4.186   0.766 -0.5244 -0.2219 -0.0726
14133TIP3    H163890   6.409   4.198   0.837  0.7775  1.5812  0.8823
14133TIP3    H263891   6.523   4.268   0.766  1.0245 -1.1315 -1.5554
14134TIP3   OH263892   6.023   6.669   0.912  0.2936 -0.2379  0.3501
14134TIP3    H163893   6.033   6.613   0.989  1.0087 -1.8862 -0.9036
14134TIP3    H263894   5.986   6.612   0.845  0.4471  0.9647 -0.7924
14135TIP3   OH263895   2.741   0.214  16.499 -0.0251  0.2818  0.0951
14135TIP3    H163896   2.834   0.230  16.482  0.6093  0.9734  3.5113
14135TIP3    H263897   2.738   0.125  16.536 -0.5871  0.5505  0.7199
14136TIP3   OH263898   5.523   5.383  13.025 -0.0229  0.0809  0.3229
14136TIP3    H163899   5.581   5.371  12.950 -0.7030 -0.6388 -0.0963
14136TIP3    H263900   5.448   5.326  13.008 -0.2102 -0.0619  1.5349
14137TIP3   OH263901   2.332   4.995   0.798  0.7988 -0.8591  0.1587
14137TIP3    H163902   2.390   5.007   0.873 -0.2515  2.2101  0.6284
14137TIP3    H263903   2.355   5.066   0.738 -0.5223 -1.3404 -0.9783
14138TIP3   OH263904   2.021   1.749  11.936 -0.0899 -0.5799  0.4333
14138TIP3    H163905   2.003   1.661  11.970 -0.1189 -0.1326  1.6125
14138TIP3    H263906   2.110   1.768  11.965 -0.4783  0.2067  1.1539
14139TIP3   OH263907   5.273   3.009   5.979 -0.4962 -0.3532 -0.2642
14139TIP3    H163908   5.232   2.987   6.063 -0.3761  2.6822  0.6886
14139TIP3    H263909   5.366   2.992   5.992 -0.4448  0.3489  0.3254
14140TIP3   OH263910   0.299   2.246   3.126  0.3897 -0.4925 -0.2911
14140TIP3    H163911   0.256   2.331   3.116 -0.6504 -1.0735 -0.8505
14140TIP3    H263912   0.274   2.217   3.214  1.7501  0.3068  0.3974
14141TIP3   OH263913   2.208   4.448  13.026 -0.0023  0.5137  0.4171
14141TIP3    H163914   2.250   4.469  13.109 -1.0430  0.9519  0.8491
14141TIP3    H263915   2.278   4.409  12.973  0.6645  0.1932  1.5021
14142TIP3   OH263916   2.144   6.573   3.863  0.1482  0.0002 -0.2904
14142TIP3    H163917   2.173   6.611   3.780  1.1230 -0.0284  0.0250
14142TIP3    H263918   2.137   6.479   3.845  0.6164 -0.0402 -0.2710
14143TIP3   OH263919   4.215   1.483   5.770  0.0783  0.4255  0.3020
14143TIP3    H163920   4.270   1.550   5.729 -0.3769  0.0049 -1.0302
14143TIP3    H263921   4.276   1.413   5.793  0.3642  0.7546  0.5841
14144TIP3   OH263922   0.524   4.909   4.247 -0.3728  0.7451  0.3572
14144TIP3    H163923   0.459   4.978   4.235 -0.1313  1.3491  2.1942
14144TIP3    H263924   0.599   4.938   4.195 -0.3851  1.7605  0.8596
14145TIP3   OH263925   4.639   5.495  15.614 -1.3499 -0.3595  0.0076
14145TIP3    H163926   4.622   5.564  15.550  1.5432  1.6259  1.1532
14145TIP3    H263927   4.632   5.539  15.699  4.0314 -0.2595  0.7285
14146TIP3   OH263928   2.415   4.070   1.885 -0.4606  0.4373 -0.1104
14146TIP3    H163929   2.360   4.078   1.963  1.1513  1.0528  1.0183
14146TIP3    H263930   2.441   3.978   1.883 -0.6337  0.3858 -0.0091
14147TIP3   OH263931   0.077   2.093   2.661 -0.3115 -0.3687  0.1201
14147TIP3    H163932   0.111   2.080   2.750 -2.6352 -0.7957  1.0253
14147TIP3    H263933   0.121   2.172   2.630  1.2070 -0.6950  1.2960
14148TIP3   OH263934   5.475   2.736   2.091  0.5958  0.2799  0.2030
14148TIP3    H163935   5.548   2.677   2.072 -0.6113 -2.1249  2.4401
14148TIP3    H263936   5.432   2.750   2.007  1.0771 -1.8970 -0.4593
14149TIP3   OH263937   3.637   2.551   4.635 -0.3883 -0.2674  0.5859
14149TIP3    H163938   3.593   2.590   4.559 -0.2746 -0.1891  0.5596
14149TIP3    H263939   3.702   2.616   4.661 -0.4935 -0.2520  0.8111
14150TIP3   OH263940   4.381   2.077  16.761  0.5478  0.5060 -0.1652
14150TIP3    H163941   4.294   2.063  16.724  0.0499  1.7428  0.4987
14150TIP3    H263942   4.441   2.047  16.692 -0.3592 -1.9602  0.0081
14151TIP3   OH263943   4.368   6.691  11.210 -0.4506 -0.4695 -0.3324
14151TIP3    H163944   4.387   6.728  11.124  1.1811  0.3503  0.3337
14151TIP3    H263945   4.416   6.608  11.212 -0.0472 -0.2351 -0.0391
14152TIP3   OH263946   5.341   0.852   3.125  0.5192  0.3393  0.4640
14152TIP3    H163947   5.353   0.782   3.189  1.0530  1.5573  1.7482
14152TIP3    H263948   5.256   0.834   3.085  0.4447 -0.7820  1.0888
14153TIP3   OH263949   1.522   4.706  13.763  0.0711  0.1507 -1.4010
14153TIP3    H163950   1.585   4.654  13.714  2.3424  1.4289 -0.0056
14153TIP3    H263951   1.550   4.797  13.751 -1.7519  0.8121 -1.0389
14154TIP3   OH263952   4.477   5.756   0.022 -0.1443  0.3275  0.5636
14154TIP3    H163953   4.491   5.662   0.031 -1.1352  0.0918 -0.1942
14154TIP3    H263954   4.447   5.784   0.109  1.1091  0.1482  1.0813
14155TIP3   OH263955   1.342   2.014  11.459  0.0292  0.2992  0.1342
14155TIP3    H163956   1.388   2.050  11.535  1.3809  1.0550 -0.9731
14155TIP3    H263957   1.379   1.927  11.447 -0.3922  0.0683  0.5096
14156TIP3   OH263958   0.607   4.075   5.804 -0.3080 -0.2484 -0.0321
14156TIP3    H163959   0.600   4.154   5.857 -0.3471  0.8911 -1.6412
14156TIP3    H263960   0.527   4.027   5.822 -0.5601  0.3718  0.5463
14157TIP3   OH263961   3.474   1.919   1.252  0.0415  0.3035 -0.1161
14157TIP3    H163962   3.533   1.915   1.327 -0.5410 -0.2812  0.3176
14157TIP3    H263963   3.503   1.849   1.194  0.8037  1.0673 -0.6855
14158TIP3   OH263964   5.995   5.370  14.768 -0.0686  0.2392  0.4174
14158TIP3    H163965   6.002   5.283  14.728 -0.0929  0.0569  0.8060
14158TIP3    H263966   6.077   5.380  14.817  0.1606  0.6494 -0.0416
14159TIP3   OH263967   4.883   4.361   3.942  0.4687  0.2029 -0.4678
14159TIP3    H163968   4.815   4.317   3.993  0.5440  0.5535 -0.0528
14159TIP3    H263969   4.841   4.382   3.859  0.6239 -1.2108 -0.9271
14160TIP3   OH263970   5.796   2.707  14.257 -0.2478  0.0431  0.2286
14160TIP3    H163971   5.718   2.670  14.299 -0.8399 -1.1095 -1.7749
14160TIP3    H263972   5.869   2.657  14.293 -0.6983 -0.6317  0.2220
14161TIP3   OH263973   5.066   0.183   2.491  0.8146  0.2679  0.2478
14161TIP3    H163974   5.015   0.226   2.423  1.2670  0.6682  0.1577
14161TIP3    H263975   5.003   0.128   2.537  0.5486 -0.1731 -0.6239
14162TIP3   OH263976   2.740   0.646   0.136  0.2409  0.2116 -0.4335
14162TIP3    H163977   2.785   0.696   0.204  1.3463 -1.4330  0.1043
14162TIP3    H263978   2.723   0.710   0.067  0.3457  1.6182  0.7822
14163TIP3   OH263979   0.319   1.317  17.045  0.3814  0.5785 -0.1226
14163TIP3    H163980   0.251   1.324  17.112 -0.3012 -0.2189 -0.7038
14163TIP3    H263981   0.395   1.282  17.090  1.0945  3.2329  0.9661
14164TIP3   OH263982   3.182   3.664  14.443 -0.0977 -0.4804  0.2104
14164TIP3    H163983   3.247   3.729  14.470  2.9377 -3.0074 -0.4668
14164TIP3    H263984   3.193   3.657  14.349 -0.5670 -1.7408  0.2310
14165TIP3   OH263985   2.091   3.425   2.495  0.2104  0.7579 -0.2125
14165TIP3    H163986   2.063   3.352   2.439 -0.2006  0.7911 -0.0552
14165TIP3    H263987   2.009   3.465   2.524  0.3979  0.0768  1.3110
14166TIP3   OH263988   4.258   4.094  12.802  0.0418 -0.1481 -0.4053
14166TIP3    H163989   4.189   4.148  12.763 -0.0646  0.4461  0.5574
14166TIP3    H263990   4.320   4.157  12.839  0.9262 -0.6870 -0.9645
14167TIP3   OH263991   5.203   5.390   3.039  1.1188 -0.2570  0.1021
14167TIP3    H163992   5.286   5.392   3.087  1.2095  1.4433 -0.0542
14167TIP3    H263993   5.213   5.457   2.971 -1.0241  1.3408  1.2183
14168TIP3   OH263994   4.896   4.664  16.221 -0.0086 -0.3366 -0.5556
14168TIP3    H163995   4.968   4.603  16.210 -0.7778 -1.2500 -0.6141
14168TIP3    H263996   4.820   4.610  16.242 -0.4580  0.6867  0.6338
14169TIP3   OH263997   2.419   5.242  17.169  0.7143  0.4040 -0.0362
14169TIP3    H163998   2.391   5.284  17.251  0.1787 -0.5669  0.2990
14169TIP3    H263999   2.354   5.270  17.105 -0.0242 -0.4027  0.3338
14170TIP3   OH264000   5.926   5.741  12.508  0.3033  0.4549 -0.0717
14170TIP3    H164001   5.974   5.800  12.451  2.4684  0.1748  1.3330
14170TIP3    H264002   5.861   5.796  12.551  0.2269  1.1375 -1.0303
14171TIP3   OH264003   0.504   4.822  11.446 -0.2531 -0.1181  0.0185
14171TIP3    H164004   0.527   4.914  11.434  2.2972 -0.6654 -0.0153
14171TIP3    H264005   0.507   4.809  11.541 -2.1106  0.1335  0.1364
14172TIP3   OH264006   0.445   5.622  12.113  0.0011 -0.6855 -0.5911
14172TIP3    H164007   0.480   5.537  12.138 -1.7964 -1.8200 -1.6524
14172TIP3    H264008   0.363   5.602  12.068 -0.5888  1.6290 -0.7175
14173TIP3   OH264009   3.908   4.967  10.398  0.4440  0.2823 -0.0177
14173TIP3    H164010   3.878   5.058  10.393  0.4682  0.2790 -0.2494
14173TIP3    H264011   3.827   4.916  10.407  0.2181  0.1466 -2.2302
14174TIP3   OH264012   5.301   0.922  14.044  0.2141 -0.0712  0.2165
14174TIP3    H164013   5.213   0.893  14.019  1.0472 -1.6628 -1.1160
14174TIP3    H264014   5.341   0.844  14.083  1.4766  0.2106 -0.4768
14175TIP3   OH264015   1.141   6.100  11.645  0.1719 -0.0015 -0.0075
14175TIP3    H164016   1.100   6.128  11.727 -2.0908 -1.9945 -0.3506
14175TIP3    H264017   1.212   6.041  11.673 -0.8354 -0.9858  0.5617
14176TIP3   OH264018   2.335   4.010  11.491  0.4843  0.2840 -0.4123
14176TIP3    H164019   2.342   4.095  11.449  1.9621 -0.2860 -1.4029
14176TIP3    H264020   2.360   3.947  11.423 -1.4191 -1.0342  0.0276
14177TIP3   OH264021   4.408   3.185  12.647 -0.0302  0.1491  0.2070
14177TIP3    H164022   4.433   3.209  12.737  0.2998 -0.6840  0.3442
14177TIP3    H264023   4.404   3.090  12.648 -0.3311  0.1486 -0.5932
14178TIP3   OH264024   6.207   2.493   3.332 -0.2297  0.3008  0.3666
14178TIP3    H164025   6.282   2.522   3.280  0.6470 -0.6845  1.0257
14178TIP3    H264026   6.174   2.416   3.285  1.7610 -1.7969  2.1431
14179TIP3   OH264027   6.708   3.678  16.975  0.0094  0.0253 -0.8226
14179TIP3    H164028   6.641   3.696  17.041 -0.5048 -1.0334 -1.0393
14179TIP3    H264029   6.662   3.633  16.905  0.8543 -0.2800 -1.1964
14180TIP3   OH264030   4.842   5.046  13.015  0.0860  0.0865 -0.3844
14180TIP3    H164031   4.934   5.019  13.018  0.2095  0.4523 -0.7392
14180TIP3    H264032   4.841   5.132  13.056 -0.3870 -0.6317  1.1857
14181TIP3   OH264033   5.812   5.772   3.047  0.4493 -0.4150 -0.0495
14181TIP3    H164034   5.753   5.744   3.117 -0.8995  1.0877 -0.5176
14181TIP3    H264035   5.759   5.831   2.993  1.4783 -1.4188 -2.2912
14182TIP3   OH264036   1.903   3.935   0.107 -1.0499 -0.5199 -0.6607
14182TIP3    H164037   1.963   3.992   0.156 -2.0471  1.4233 -1.5796
14182TIP3    H264038   1.920   3.847   0.141  2.5279 -0.1405 -1.0757
14183TIP3   OH264039   2.635   6.610   5.328  0.0163  0.0350  0.1803
14183TIP3    H164040   2.598   6.696   5.309  0.1943  0.3658  1.2953
14183TIP3    H264041   2.711   6.628   5.383  0.8634 -0.7536 -0.6834
14184TIP3   OH264042   5.727   6.161  16.632 -0.4521  0.7953 -0.2673
14184TIP3    H164043   5.675   6.238  16.610 -0.8755  0.9639  1.1948
14184TIP3    H264044   5.664   6.090  16.639 -0.0157  0.2075 -1.9795
14185TIP3   OH264045   6.571   4.750  16.475  0.1740  1.1763 -0.0835
14185TIP3    H164046   6.571   4.666  16.429  0.4135  1.0983  0.0613
14185TIP3    H264047   6.657   4.788  16.457  0.8373  0.4837  1.5017
14186TIP3   OH264048   3.160   4.383  13.084  0.1255  0.1048  0.0882
14186TIP3    H164049   3.217   4.341  13.148 -0.1061  1.5749  1.2939
14186TIP3    H264050   3.212   4.455  13.048  0.2662 -0.7122 -1.4394
14187TIP3   OH264051   4.135   4.833   3.189  0.1521  0.0013 -0.4666
14187TIP3    H164052   4.213   4.839   3.245  0.3095 -0.7134 -0.6105
14187TIP3    H264053   4.159   4.881   3.110 -0.1973  1.3357  0.1996
14188TIP3   OH264054   5.853   1.375  16.354 -0.1568 -0.3759 -0.6524
14188TIP3    H164055   5.806   1.456  16.332  1.7381  0.7031 -0.9389
14188TIP3    H264056   5.786   1.318  16.391 -1.8060  0.8486 -1.6135
14189TIP3   OH264057   2.186   1.843   5.210  0.0286 -0.0452  0.1916
14189TIP3    H164058   2.112   1.902   5.227  0.1102  0.0447  0.2406
14189TIP3    H264059   2.146   1.761   5.183 -0.0809  0.1079 -0.1189
14190TIP3   OH264060   0.800   6.254   4.432  0.1164  0.1542 -0.6404
14190TIP3    H164061   0.742   6.188   4.395  1.7892 -0.3520 -2.5551
14190TIP3    H264062   0.743   6.328   4.452 -1.4293 -0.9734 -0.7371
14191TIP3   OH264063   4.918   4.739  10.781  0.1677  0.1464  0.5318
14191TIP3    H164064   4.901   4.673  10.713  1.2027  0.2434  0.1561
14191TIP3    H264065   4.924   4.688  10.862  1.2073 -0.2687  0.2096
14192TIP3   OH264066   0.493   1.132  14.737  0.0659  0.0533 -0.2963
14192TIP3    H164067   0.467   1.206  14.793 -0.3713  0.3924 -0.9405
14192TIP3    H264068   0.448   1.147  14.654  1.3948  0.0087 -1.0448
14193TIP3   OH264069   5.006   0.425   1.670 -0.1736 -0.1048 -0.2309
14193TIP3    H164070   5.084   0.449   1.720 -0.5864  1.2891 -0.2052
14193TIP3    H264071   5.035   0.357   1.610  1.0251  0.2991 -0.1209
14194TIP3   OH264072   0.369   6.782   4.779 -0.1357  0.0296  0.0898
14194TIP3    H164073   0.307   6.727   4.730  1.0797  0.9527 -2.7301
14194TIP3    H264074   0.450   6.775   4.729  0.6074  2.7948  0.7695
14195TIP3   OH264075   4.188   5.880   0.575 -0.1734  0.1062  0.3334
14195TIP3    H164076   4.169   5.974   0.573  1.2869  0.4103 -0.4831
14195TIP3    H264077   4.237   5.867   0.656  1.1357  0.3883 -0.3869
14196TIP3   OH264078   2.348   1.180  15.633  0.2759 -0.0003  0.4521
14196TIP3    H164079   2.374   1.145  15.547  0.7449  1.2586  0.0553
14196TIP3    H264080   2.254   1.195  15.625 -0.1381 -2.0274  0.9665
14197TIP3   OH264081   4.126   2.733  15.613  0.2759  0.2571  0.2056
14197TIP3    H164082   4.125   2.670  15.541  0.5746 -0.1964  0.5946
14197TIP3    H264083   4.063   2.699  15.676  0.3745  0.3906  0.3770
14198TIP3   OH264084   4.282   4.593  11.238  0.4215  0.1050 -0.5403
14198TIP3    H164085   4.277   4.503  11.206  1.2770 -0.5321  0.9986
14198TIP3    H264086   4.225   4.595  11.315  2.0437  0.2191  0.7380
14199TIP3   OH264087   2.698   3.815   1.430  0.2478  0.1350  0.5777
14199TIP3    H164088   2.680   3.875   1.502 -1.4927  0.4837 -0.1019
14199TIP3    H264089   2.792   3.823   1.416  0.3764  1.2058  1.7949
14200TIP3   OH264090   2.296   4.691  15.101  0.2349  0.2115  0.5648
14200TIP3    H164091   2.279   4.756  15.033 -1.5653  1.7764  2.3856
14200TIP3    H264092   2.295   4.607  15.055 -0.0110  1.2598 -1.4468
14201TIP3   OH264093   1.721   6.641  13.263  0.3785  0.2126 -0.2858
14201TIP3    H164094   1.757   6.601  13.185  0.5059  1.3024 -0.8064
14201TIP3    H264095   1.675   6.719  13.231  2.8472  2.3334  0.9398
14202TIP3   OH264096   6.710   0.288  12.328  0.9412 -0.6666 -0.5335
14202TIP3    H164097   6.686   0.204  12.288 -1.0023  0.3222 -1.6262
14202TIP3    H264098   6.800   0.303  12.299  1.8648 -2.9688  0.8430
14203TIP3   OH264099   4.692   1.612  15.876 -0.1777 -0.0207 -0.6787
14203TIP3    H164100   4.650   1.671  15.814 -1.6991  1.0915  1.3131
14203TIP3    H264101   4.622   1.554  15.907 -0.3153  1.5837  2.3827
14204TIP3   OH264102   1.922   5.029  16.056 -0.5003  0.3652  0.1202
14204TIP3    H164103   1.906   5.117  16.092 -0.2395  0.3317  0.3209
14204TIP3    H264104   2.009   5.035  16.017  0.0330 -0.1309  1.1803
14205TIP3   OH264105   0.355   3.239  13.593  0.0674  0.1854 -0.4499
14205TIP3    H164106   0.419   3.236  13.665  1.6313 -0.0426 -1.7982
14205TIP3    H264107   0.362   3.329  13.559  0.7030 -0.2365 -1.4745
14206TIP3   OH264108   6.525   4.934   5.226  0.4810  0.8894 -0.2477
14206TIP3    H164109   6.516   4.927   5.131  0.6983  1.9217 -0.3564
14206TIP3    H264110   6.436   4.925   5.260  0.6243 -1.7301 -0.3516
14207TIP3   OH264111   6.807   2.664  13.618 -0.0644 -0.7370  0.4874
14207TIP3    H164112   6.883   2.609  13.601  0.0982 -0.6685  0.9837
14207TIP3    H264113   6.811   2.682  13.712 -1.4696 -1.8845  0.7982
14208TIP3   OH264114   6.224   5.504   6.334  0.3831  0.2027  0.2740
14208TIP3    H164115   6.151   5.564   6.350 -0.3122 -0.0917 -1.6385
14208TIP3    H264116   6.207   5.429   6.392 -1.0722 -0.0539 -0.4579
14209TIP3   OH264117   5.472   6.344  14.167 -0.3686 -0.1252 -0.1034
14209TIP3    H164118   5.422   6.411  14.215 -0.7758  0.0369 -0.7510
14209TIP3    H264119   5.561   6.379  14.164 -0.7648  0.8499 -1.2575
14210TIP3   OH264120   1.151   3.919   2.977 -0.8147  0.4417  0.7795
14210TIP3    H164121   1.144   3.964   3.061 -2.1830  0.2509  0.7936
14210TIP3    H264122   1.241   3.887   2.974 -0.6731  0.6766  2.0590
14211TIP3   OH264123   1.720   0.717   3.709 -0.0186  0.1029 -0.7243
14211TIP3    H164124   1.649   0.713   3.773  1.9962  1.7595  1.7990
14211TIP3    H264125   1.719   0.631   3.666 -1.5510 -1.0436  1.4605
14212TIP3   OH264126   3.880   4.846  16.489  0.0155  0.0396  0.4551
14212TIP3    H164127   3.865   4.899  16.411  0.8940 -0.7243 -0.2458
14212TIP3    H264128   3.858   4.904  16.562  3.3500  2.2922 -0.1320
14213TIP3   OH264129   2.879   6.592  16.545  0.3862 -0.3010 -0.2472
14213TIP3    H164130   2.895   6.684  16.528  0.4800 -0.2480  0.1233
14213TIP3    H264131   2.891   6.582  16.640 -1.0449 -0.3910 -0.0456
14214TIP3   OH264132   5.598   1.150  14.165 -0.2708  0.1015  0.4864
14214TIP3    H164133   5.643   1.079  14.119 -1.7749 -1.0957  0.7756
14214TIP3    H264134   5.664   1.218  14.174  0.7265 -0.5207 -1.4146
14215TIP3   OH264135   4.108   4.719   1.155  0.3312 -0.1822 -0.6291
14215TIP3    H164136   4.191   4.734   1.108  0.3179  1.5277 -0.1842
14215TIP3    H264137   4.134   4.670   1.234  0.8413 -0.1431 -0.7671
14216TIP3   OH264138   0.012   4.242  15.382 -0.0977  0.6724  0.0797
14216TIP3    H164139  -0.083   4.252  15.382 -0.1790  0.0063 -0.6099
14216TIP3    H264140   0.031   4.185  15.456 -0.3708 -0.2381 -0.5324
14217TIP3   OH264141   5.732   4.009  14.306 -0.1179  0.1224  0.2788
14217TIP3    H164142   5.659   3.987  14.363 -1.7495  0.8212 -1.4426
14217TIP3    H264143   5.756   3.927  14.264 -2.0646  0.3989 -1.4984
14218TIP3   OH264144   3.919   6.058   4.155 -0.4286  0.1112  0.4785
14218TIP3    H164145   3.986   6.013   4.206  0.7678  2.2704  0.9325
14218TIP3    H264146   3.959   6.071   4.069  0.2685  2.3362  1.0574
14219TIP3   OH264147   2.835   4.171   1.409 -0.9698  0.4196  0.0272
14219TIP3    H164148   2.802   4.232   1.474  0.9090  0.3871  1.0918
14219TIP3    H264149   2.785   4.090   1.424 -1.7349  0.9296  0.2587
14220TIP3   OH264150   3.874   2.211  15.225 -0.3312 -0.2805  0.5609
14220TIP3    H164151   3.787   2.183  15.254 -0.6171 -0.0930 -0.0957
14220TIP3    H264152   3.912   2.253  15.302 -0.2237 -1.6919  1.3031
14221TIP3   OH264153   5.703   5.933  16.861 -0.3533 -0.5815 -0.0866
14221TIP3    H164154   5.728   5.841  16.863  0.5657 -0.3379  1.5160
14221TIP3    H264155   5.615   5.933  16.823 -0.2124 -2.0640 -0.4806
14222TIP3   OH264156   0.527   0.546  14.123  0.3915 -0.1279  0.0198
14222TIP3    H164157   0.605   0.492  14.137  1.2660  1.1261  0.2305
14222TIP3    H264158   0.510   0.540  14.029  1.8331  0.9627 -0.3504
14223TIP3   OH264159   2.026   4.284   1.397 -0.3759  0.0036  0.4054
14223TIP3    H164160   1.977   4.249   1.322 -0.4537 -1.3326  1.0421
14223TIP3    H264161   2.071   4.207   1.433  2.5611  1.2186 -0.4070
14224TIP3   OH264162   1.209   2.910  11.304  0.2379 -0.1267  0.1486
14224TIP3    H164163   1.273   2.914  11.375 -1.1806  1.7413  1.4297
14224TIP3    H264164   1.252   2.860  11.235  2.0930 -1.0647  1.8947
14225TIP3   OH264165   6.296   2.719   4.517  0.5131  0.0181 -0.0224
14225TIP3    H164166   6.230   2.649   4.522  0.6133 -0.0424  0.4864
14225TIP3    H264167   6.255   2.786   4.461 -0.2948  0.3197  0.9028
14226TIP3   OH264168   3.849   1.618   4.717 -0.7831 -0.8123 -1.1004
14226TIP3    H164169   3.813   1.529   4.715 -0.1749 -1.1019  0.0309
14226TIP3    H264170   3.771   1.675   4.714 -1.1336 -1.3164 -3.1633
14227TIP3   OH264171   4.391   0.105  17.098  0.2518  0.2453  0.0154
14227TIP3    H164172   4.305   0.068  17.077 -0.6539  1.3691  1.5577
14227TIP3    H264173   4.413   0.068  17.183  1.8166 -0.8378 -0.8150
14228TIP3   OH264174   5.435   6.441  12.872 -0.6083 -0.4169 -0.1930
14228TIP3    H164175   5.366   6.432  12.806 -0.0771 -1.5517 -0.6239
14228TIP3    H264176   5.509   6.477  12.825  0.0281 -1.9611 -0.4346
14229TIP3   OH264177   1.238   1.729  14.802 -0.2233 -0.4524  0.5609
14229TIP3    H164178   1.158   1.782  14.807 -0.4865 -0.9762  2.3135
14229TIP3    H264179   1.213   1.652  14.752 -0.6563 -0.3381  0.5972
14230TIP3   OH264180   5.924   1.106  16.084  0.2596 -0.6292  0.0565
14230TIP3    H164181   5.831   1.096  16.107  0.5220 -0.7503  1.0795
14230TIP3    H264182   5.932   1.199  16.059 -0.1411 -0.6309 -0.0912
14231TIP3   OH264183   2.462   4.612  14.705 -0.1351  0.1869  0.1507
14231TIP3    H164184   2.489   4.549  14.638 -2.3449  0.6310 -1.2611
14231TIP3    H264185   2.415   4.559  14.770 -1.9747  0.2567 -1.0253
14232TIP3   OH264186   1.131   1.516  14.693  0.6648 -0.7176 -0.7490
14232TIP3    H164187   1.189   1.460  14.642  0.0237  0.7080 -3.2605
14232TIP3    H264188   1.060   1.458  14.722  0.3613 -1.4073 -2.6971
14233TIP3   OH264189   0.003   0.114  16.119  0.1570  0.3652  0.1741
14233TIP3    H164190   0.079   0.171  16.122  0.7664 -0.3559 -0.7087
14233TIP3    H264191   0.013   0.056  16.195 -0.0080  0.8763  0.5848
14234TIP3   OH264192   1.575   0.499  14.941 -0.0351 -0.6538 -0.0926
14234TIP3    H164193   1.542   0.538  14.861  2.7947  1.0273 -0.5809
14234TIP3    H264194   1.599   0.409  14.917 -2.7555 -1.4787 -0.0302
14235TIP3   OH264195   5.195   6.403  10.720 -0.1055  0.3788  0.0278
14235TIP3    H164196   5.271   6.345  10.720 -1.6624 -1.8697 -1.9821
14235TIP3    H264197   5.232   6.491  10.708  2.1859 -0.7925 -2.9546
14236TIP3   OH264198   3.097   4.005   1.998 -0.1457 -0.5581 -0.1300
14236TIP3    H164199   3.055   3.938   2.051  0.3277 -0.1472  0.7885
14236TIP3    H264200   3.037   4.080   2.001 -0.0999 -0.5210 -0.1367
14237TIP3   OH264201   2.093   1.781   0.067 -0.0878 -0.0840 -0.3642
14237TIP3    H164202   2.163   1.717   0.062 -0.0348  0.0684 -2.0555
14237TIP3    H264203   2.136   1.862   0.096 -0.1840 -0.7840  1.9307
14238TIP3   OH264204   1.048   5.671   6.633  0.2985 -0.4583  0.1032
14238TIP3    H164205   1.115   5.626   6.582  0.9110 -0.5828  0.9999
14238TIP3    H264206   1.066   5.764   6.620 -1.5649 -0.3387 -2.5562
14239TIP3   OH264207   2.118   0.891  15.521 -0.0378 -0.5975  0.3366
14239TIP3    H164208   2.051   0.847  15.574 -0.2541 -1.2562 -0.4576
14239TIP3    H264209   2.195   0.834  15.528 -1.0768 -2.6473 -2.8006
14240TIP3   OH264210   3.406   5.034   6.195  0.3245 -0.0130 -0.4535
14240TIP3    H164211   3.433   5.110   6.143  0.6786 -0.3706 -0.8049
14240TIP3    H264212   3.313   5.024   6.176  0.1563  0.6508  0.0084
14241TIP3   OH264213   4.546   6.239  16.898 -0.0750 -0.4253  0.0215
14241TIP3    H164214   4.480   6.287  16.848  0.7751 -0.8159 -1.5532
14241TIP3    H264215   4.628   6.286  16.880  0.5952 -1.8026 -0.6767
14242TIP3   OH264216   4.353   2.218   3.175  0.0034 -0.3548  0.3407
14242TIP3    H164217   4.339   2.191   3.266  0.2398 -1.3047  0.0949
14242TIP3    H264218   4.344   2.138   3.124  1.2645 -0.0754 -0.3423
14243TIP3   OH264219   1.342   1.369   1.084 -0.0271  0.0919  0.1792
14243TIP3    H164220   1.385   1.399   1.004  0.9465  0.8428  0.9651
14243TIP3    H264221   1.248   1.377   1.065  0.1231 -1.3236 -1.4648
14244TIP3   OH264222   0.448   6.720  13.573 -0.3690 -0.3373  0.1416
14244TIP3    H164223   0.440   6.625  13.572 -1.8131 -0.3805  3.2366
14244TIP3    H264224   0.460   6.742  13.665  1.0953  2.4470 -0.5984
14245TIP3   OH264225   2.942   6.692  17.058 -0.2815  0.1160 -0.1526
14245TIP3    H164226   2.860   6.719  17.100 -0.0688  0.1037  0.2757
14245TIP3    H264227   2.981   6.774  17.026 -0.1699  0.1890  0.1729
14246TIP3   OH264228   2.511   3.372   0.950 -0.4088  0.4764  0.0897
14246TIP3    H164229   2.419   3.397   0.945 -0.0346  1.7588 -1.0171
14246TIP3    H264230   2.553   3.419   0.878  1.0544 -0.3749  0.3356
14247TIP3   OH264231   2.176   0.404   4.598 -0.1419  0.0095  0.2278
14247TIP3    H164232   2.099   0.354   4.624 -0.4709 -0.1171 -0.9401
14247TIP3    H264233   2.161   0.425   4.506  0.7795  0.8070  0.2436
14248TIP3   OH264234   1.953   6.826  11.960 -0.1293  0.3206  0.0860
14248TIP3    H164235   1.949   6.838  11.865 -1.0843 -1.5476 -0.1516
14248TIP3    H264236   1.891   6.755  11.978  1.5872 -0.8264  1.8578
14249TIP3   OH264237   2.337   3.777  16.388  0.1859 -0.2265 -0.1352
14249TIP3    H164238   2.354   3.865  16.353  1.3715 -0.2057  0.4471
14249TIP3    H264239   2.254   3.785  16.435  0.2937  0.5915 -0.0733
14250TIP3   OH264240   2.507   2.907   2.773  0.2519  0.0238  0.2705
14250TIP3    H164241   2.508   2.961   2.694 -0.4458 -1.2953 -0.6755
14250TIP3    H264242   2.418   2.918   2.808  0.9976  1.7783  1.7521
14251TIP3   OH264243   2.151   6.663  16.190 -0.6911 -0.7006  0.7177
14251TIP3    H164244   2.200   6.628  16.264  0.3399  1.4738  1.1384
14251TIP3    H264245   2.061   6.671  16.221 -0.4804 -0.8204  1.3647
14252TIP3   OH264246   3.364   4.520   2.637  0.3180 -0.4075  0.0199
14252TIP3    H164247   3.343   4.605   2.676  0.9389 -0.7878  1.2416
14252TIP3    H264248   3.374   4.538   2.543  0.1995  0.8129  0.2247
14253TIP3   OH264249   6.156   3.714  10.678  0.1384 -0.5002  0.2216
14253TIP3    H164250   6.084   3.652  10.664  0.4497 -0.2999 -3.0342
14253TIP3    H264251   6.122   3.776  10.743 -1.0592 -2.6597  1.7782
14254TIP3   OH264252   5.747   5.291  13.328  0.3397  0.4845  0.3753
14254TIP3    H164253   5.697   5.283  13.409 -0.2384 -1.7665 -0.1357
14254TIP3    H264254   5.734   5.382  13.300 -0.5737  0.9126  2.0564
14255TIP3   OH264255   2.589   0.887   1.651 -0.1559  0.2493 -0.2342
14255TIP3    H164256   2.578   0.970   1.605  0.8017  0.9685  0.7561
14255TIP3    H264257   2.535   0.895   1.730  0.3134  0.1389  0.1067
14256TIP3   OH264258   2.898   6.444   3.811 -0.0910 -0.2088  0.5454
14256TIP3    H164259   2.954   6.516   3.782 -0.9523 -0.3352 -1.5772
14256TIP3    H264260   2.948   6.365   3.791 -1.0332 -0.3373 -1.6515
14257TIP3   OH264261   1.222   2.020   0.024 -0.3039  0.1011  0.2317
14257TIP3    H164262   1.232   2.053   0.113  0.8849  0.8546 -0.1537
14257TIP3    H264263   1.180   2.091  -0.024  0.0557  0.1301 -0.0470
14258TIP3   OH264264   3.917   4.244  13.946  0.1707  0.2604  0.2575
14258TIP3    H164265   3.921   4.339  13.955  0.4923  0.1455  1.4419
14258TIP3    H264266   3.929   4.229  13.852 -2.8561  1.5313 -0.4649
14259TIP3   OH264267   3.427   3.187   0.550  0.1575  0.1780 -0.0099
14259TIP3    H164268   3.496   3.226   0.497  0.2231  1.0921  0.7289
14259TIP3    H264269   3.403   3.107   0.503  0.0395  1.0753 -1.5327
14260TIP3   OH264270   5.486   6.590  15.106  0.0001  0.4138 -0.4591
14260TIP3    H164271   5.431   6.515  15.085  1.4557 -1.0870  0.8331
14260TIP3    H264272   5.430   6.666  15.089 -2.5151 -1.0028  0.8692
14261TIP3   OH264273   6.367   0.781   2.860  0.5496  0.1622 -0.0553
14261TIP3    H164274   6.459   0.786   2.885  0.0896  1.0539  1.5907
14261TIP3    H264275   6.321   0.837   2.923 -0.9055  1.3371 -2.0291
14262TIP3   OH264276   0.513   0.961   0.106  0.0921 -0.4100 -0.3534
14262TIP3    H164277   0.582   1.014   0.066  0.5199 -2.1475 -2.0684
14262TIP3    H264278   0.559   0.888   0.147 -0.6375 -1.0713 -0.6861
14263TIP3   OH264279   5.090   1.282   5.738 -0.7980  0.3817 -0.6725
14263TIP3    H164280   5.097   1.255   5.830 -1.9478 -0.5710 -0.8418
14263TIP3    H264281   5.168   1.245   5.696  0.2584  1.6426  0.0687
14264TIP3   OH264282   0.030   4.700   5.322  0.0654  0.0485  0.0639
14264TIP3    H164283  -0.006   4.662   5.402 -0.8125  1.7118  0.5119
14264TIP3    H264284   0.089   4.769   5.353 -1.0918  1.4242 -0.6782
14265TIP3   OH264285   4.935   3.667  17.122 -0.1574 -0.2175 -0.3748
14265TIP3    H164286   4.914   3.574  17.132 -0.7648  0.0382  0.9658
14265TIP3    H264287   4.992   3.686  17.196  1.3750  0.1168 -1.5791
14266TIP3   OH264288   6.439   0.737  15.084  0.1109  0.2235  0.2700
14266TIP3    H164289   6.416   0.682  15.009 -1.3596  1.2807 -0.1232
14266TIP3    H264290   6.501   0.800  15.048 -0.3557  0.5361 -0.0122
14267TIP3   OH264291   0.573   3.094   4.658  0.2373 -0.1818 -0.1188
14267TIP3    H164292   0.526   3.165   4.700  0.7565  1.1492 -1.6577
14267TIP3    H264293   0.663   3.101   4.691  0.6107  0.7736 -1.2526
14268TIP3   OH264294   5.131   2.622   3.107 -0.4583  0.2801  0.6483
14268TIP3    H164295   5.121   2.528   3.123 -1.6140  0.2916  0.1297
14268TIP3    H264296   5.220   2.632   3.076 -0.8913 -0.9340 -1.1417
14269TIP3   OH264297   2.465   4.367  12.899 -0.8394 -0.4224  0.2660
14269TIP3    H164298   2.491   4.458  12.889  2.7754 -1.0902  2.0144
14269TIP3    H264299   2.466   4.332  12.810  0.1459  0.7014 -0.1927
14270TIP3   OH264300   1.203   6.253  15.678 -0.3646 -0.4412  0.4439
14270TIP3    H164301   1.261   6.255  15.602 -2.0909 -1.8324 -1.0036
14270TIP3    H264302   1.211   6.164  15.713 -1.2999 -0.5341  0.4565
14271TIP3   OH264303   2.066   5.373   2.399  0.8205 -0.3681  0.1659
14271TIP3    H164304   2.009   5.345   2.471  0.7522 -1.6299 -0.3515
14271TIP3    H264305   2.012   5.362   2.320  0.3707  2.4153  0.0063
14272TIP3   OH264306   1.173   5.129   5.454  0.1152  0.7549 -0.0458
14272TIP3    H164307   1.249   5.072   5.445 -0.4197 -0.5890  2.6707
14272TIP3    H264308   1.103   5.085   5.406  0.2115  0.1747  0.3446
14273TIP3   OH264309   4.855   5.677  12.678 -0.4791  0.4081 -0.2818
14273TIP3    H164310   4.885   5.751  12.731  0.1260 -0.9073  1.3228
14273TIP3    H264311   4.923   5.610  12.690 -2.2634 -1.3732  0.5074
14274TIP3   OH264312   0.409   0.924   1.514 -0.1126 -0.6914  0.0103
14274TIP3    H164313   0.488   0.894   1.469 -1.7672 -1.8160 -2.3407
14274TIP3    H264314   0.415   1.020   1.511  1.2315 -0.7619  0.0087
14275TIP3   OH264315   5.033   3.358  16.235 -0.2447  0.2818  0.0532
14275TIP3    H164316   4.991   3.382  16.152  1.3557  2.8014 -0.1258
14275TIP3    H264317   5.097   3.291  16.210 -1.5300 -0.8933 -0.2513
14276TIP3   OH264318   3.722   5.191   5.131 -0.1440 -0.5866 -0.0410
14276TIP3    H164319   3.753   5.257   5.068 -2.9010 -0.3628 -1.3193
14276TIP3    H264320   3.790   5.124   5.131  2.4888  1.8565  0.8345
14277TIP3   OH264321   5.245   1.598   4.873  0.7973  0.6859  0.0958
14277TIP3    H164322   5.299   1.674   4.893  0.5295  0.9307 -0.1157
14277TIP3    H264323   5.212   1.569   4.958 -0.8274  2.0790 -0.0107
14278TIP3   OH264324   1.628   6.787   1.978 -0.0476  0.0467 -0.0924
14278TIP3    H164325   1.674   6.849   1.922  2.1012 -2.7468 -1.7096
14278TIP3    H264326   1.661   6.804   2.066  1.2583  0.5814 -0.6626
14279TIP3   OH264327   0.700   3.500   5.918 -0.3372 -0.5926 -0.1796
14279TIP3    H164328   0.699   3.418   5.969  0.2190  0.1909  1.1421
14279TIP3    H264329   0.793   3.522   5.911 -0.5492  0.9215  1.1796
14280TIP3   OH264330   3.239   3.006  14.986 -0.4166 -0.3761  0.4884
14280TIP3    H164331   3.264   2.914  14.980 -0.9764 -0.5639  0.9283
14280TIP3    H264332   3.169   3.017  14.922 -0.4749 -0.3036  0.5633
14281TIP3   OH264333   4.549   4.814   3.653 -0.4469  0.1799 -0.6979
14281TIP3    H164334   4.476   4.776   3.605 -1.1353 -0.1206  0.5423
14281TIP3    H264335   4.601   4.739   3.682 -1.8250  0.0659  1.7857
14282TIP3   OH264336   6.179   3.628   5.257  0.4281  0.1433 -0.2691
14282TIP3    H164337   6.128   3.703   5.289  0.5792  1.1751 -2.2356
14282TIP3    H264338   6.262   3.666   5.229  0.6975 -0.8385 -0.8549
14283TIP3   OH264339   2.350   6.440   6.265  0.4614  0.4175 -0.0539
14283TIP3    H164340   2.376   6.406   6.351  0.6724  0.3179 -0.1574
14283TIP3    H264341   2.292   6.513   6.285  0.8621  0.6723  0.1770
14284TIP3   OH264342   4.445   4.765  11.593 -0.3628 -0.3147  0.2623
14284TIP3    H164343   4.376   4.711  11.553  0.4539 -1.5874  0.4891
14284TIP3    H264344   4.406   4.851  11.602 -1.3995 -0.6086 -1.0337
14285TIP3   OH264345   3.528   3.862   0.463  0.1072 -0.1621 -0.0435
14285TIP3    H164346   3.482   3.923   0.405  0.1724 -0.5934 -0.5628
14285TIP3    H264347   3.577   3.918   0.523  1.3057  0.3414 -1.4097
14286TIP3   OH264348   1.163   5.006  14.962  0.2805  0.3086  0.2220
14286TIP3    H164349   1.256   4.988  14.949  0.7195  0.5728  2.4759
14286TIP3    H264350   1.139   4.950  15.037 -0.9566  1.4023  0.6655
14287TIP3   OH264351   2.065   4.185   0.978 -0.3050  0.2697  0.2742
14287TIP3    H164352   2.150   4.214   1.013 -0.3958  0.8387  0.0347
14287TIP3    H264353   2.085   4.156   0.889 -0.1245 -0.9062  0.6903
14288TIP3   OH264354   5.159   1.099   3.081  0.2063  0.5517  0.0524
14288TIP3    H164355   5.162   1.189   3.113 -1.4442  0.6283  0.0919
14288TIP3    H264356   5.248   1.066   3.094  0.4579  1.6804  1.4846
14289TIP3   OH264357   2.105   3.772   3.982  0.5940 -0.3413  0.3974
14289TIP3    H164358   2.118   3.767   4.076  1.0169  0.1983  0.3758
14289TIP3    H264359   2.191   3.751   3.945  0.7420  0.6123  0.1694
14290TIP3   OH264360   3.718   0.372  14.182 -0.3433 -0.0939 -0.6948
14290TIP3    H164361   3.656   0.330  14.241  0.1075  0.7258  0.3951
14290TIP3    H264362   3.687   0.463  14.175  0.1525  0.0607 -0.9499
14291TIP3   OH264363   1.092   3.676  13.158 -0.2194  0.8147  0.3423
14291TIP3    H164364   1.077   3.695  13.065 -0.3299 -2.5344 -0.4342
14291TIP3    H264365   1.187   3.683  13.168  0.2653 -2.2075 -1.0190
14292TIP3   OH264366   2.924   5.315   5.902  0.1982 -0.2542  0.1709
14292TIP3    H164367   2.868   5.296   5.978  0.5034  0.0118  0.4583
14292TIP3    H264368   2.991   5.246   5.904 -0.9008 -1.4228 -0.9664
14293TIP3   OH264369   5.877   4.272   5.040 -0.3065 -0.0471  0.1545
14293TIP3    H164370   5.838   4.312   4.963 -0.8713 -1.3216 -0.2453
14293TIP3    H264371   5.858   4.333   5.111 -1.3962  0.2616 -0.3825
14294TIP3   OH264372   4.100   4.615   0.811  0.1700  0.2257 -0.2506
14294TIP3    H164373   4.123   4.704   0.836 -0.3644  0.6369 -1.1765
14294TIP3    H264374   4.179   4.564   0.828  0.1343  0.6540  1.3298
14295TIP3   OH264375   0.665   6.406  13.699  0.5662  0.0187 -0.3518
14295TIP3    H164376   0.617   6.326  13.677 -4.1326  2.0623  1.0039
14295TIP3    H264377   0.696   6.392  13.788 -2.2985  0.3327  0.7950
14296TIP3   OH264378   4.921   3.416   3.478 -0.0931 -0.1535  0.1331
14296TIP3    H164379   5.002   3.467   3.476  0.3765 -0.8690  0.5268
14296TIP3    H264380   4.950   3.325   3.472 -0.8288 -0.4546  0.9700
14297TIP3   OH264381   0.176   0.068   5.307  0.0626  0.2374 -0.5656
14297TIP3    H164382   0.226   0.041   5.230 -0.7906 -2.2834 -0.3551
14297TIP3    H264383   0.240   0.106   5.366  1.0871  0.3377 -1.7135
14298TIP3   OH264384   0.338   0.845  12.683 -0.1239 -0.3186 -0.2914
14298TIP3    H164385   0.332   0.934  12.648  1.5414  0.4070  1.1147
14298TIP3    H264386   0.418   0.810  12.646  0.2797 -0.4835  0.7066
14299TIP3   OH264387   4.799   4.824  14.663  0.1155 -0.9695  0.0170
14299TIP3    H164388   4.722   4.845  14.715 -0.2004  1.9232 -1.4324
14299TIP3    H264389   4.847   4.759  14.715 -1.1788  0.2583  2.9135
14300TIP3   OH264390   4.836   0.229  16.837 -0.6962  0.1723  0.1820
14300TIP3    H164391   4.833   0.193  16.749 -0.7677 -0.5146  0.4598
14300TIP3    H264392   4.765   0.186  16.884  1.1410 -1.7436  1.3951
14301TIP3   OH264393   0.639   0.888   5.194  0.7985  0.0311  0.2414
14301TIP3    H164394   0.653   0.848   5.280 -0.5698  0.2599  0.6052
14301TIP3    H264395   0.554   0.932   5.202  0.9587  0.6253 -1.0257
14302TIP3   OH264396   2.227   0.535   0.007  0.3109 -0.2645  0.1983
14302TIP3    H164397   2.139   0.499   0.019  0.1970 -0.1500 -0.2876
14302TIP3    H264398   2.275   0.467  -0.040  0.0742  0.2297 -0.7831
14303TIP3   OH264399   5.195   5.818   0.505 -0.4799  0.1464  0.1768
14303TIP3    H164400   5.208   5.907   0.538  0.9991  0.2920 -0.6770
14303TIP3    H264401   5.109   5.792   0.538 -0.6946  1.6726  0.9158
14304TIP3   OH264402   2.281   1.496  11.910  0.0752  0.2835 -0.1628
14304TIP3    H164403   2.376   1.502  11.922 -0.0378  2.3059 -0.0843
14304TIP3    H264404   2.244   1.534  11.989 -0.8953 -2.1137  0.6480
14305TIP3   OH264405   4.507   4.698  10.303  0.2770  0.6084  0.0818
14305TIP3    H164406   4.494   4.675  10.395 -0.3477  2.4828  0.5070
14305TIP3    H264407   4.474   4.623  10.254 -2.2446  0.8088  1.3596
14306TIP3   OH264408   0.954   4.593  10.454 -0.0120  0.1818 -0.2158
14306TIP3    H164409   1.039   4.626  10.481 -0.3420  0.6998  0.2200
14306TIP3    H264410   0.908   4.577  10.536 -0.8245  1.2242 -0.4399
14307TIP3   OH264411   3.794   4.740   4.399 -0.0375 -0.3616  0.2115
14307TIP3    H164412   3.757   4.724   4.312 -0.8924 -1.0123  0.6871
14307TIP3    H264413   3.725   4.787   4.446  0.8661  1.0655  0.1789
14308TIP3   OH264414   5.377   6.669   0.062 -0.8623  0.1981  0.0013
14308TIP3    H164415   5.445   6.647  -0.001 -0.9978  0.0945 -0.1073
14308TIP3    H264416   5.425   6.686   0.144 -0.8161 -1.3343  0.3173
14309TIP3   OH264417   1.314   2.938   2.258  0.0319  0.0899  0.7837
14309TIP3    H164418   1.269   2.872   2.310  0.4614  0.8118  2.1118
14309TIP3    H264419   1.338   3.006   2.320  1.9087  0.2900 -0.0710
14310TIP3   OH264420   5.233   1.082   1.315  0.4090  0.0417 -0.3695
14310TIP3    H164421   5.142   1.064   1.338  0.4489 -0.1627 -0.3651
14310TIP3    H264422   5.264   1.001   1.274  0.4156  0.3099 -0.9055
14311TIP3   OH264423   4.272   3.865  16.244  0.0876  0.3326  0.6025
14311TIP3    H164424   4.198   3.918  16.273 -0.6944 -0.4835  0.1457
14311TIP3    H264425   4.286   3.891  16.153 -0.4138 -0.3510  0.3213
14312TIP3   OH264426   3.483   3.327  10.481 -0.1777 -0.6877  0.0898
14312TIP3    H164427   3.455   3.243  10.517 -0.4394  0.0079  1.5751
14312TIP3    H264428   3.417   3.349  10.416 -3.0790  0.7569  3.2618
14313TIP3   OH264429   1.509   4.172  13.230 -0.2312  0.0630  0.1185
14313TIP3    H164430   1.583   4.113  13.211 -0.0901 -0.0877  1.0606
14313TIP3    H264431   1.453   4.121  13.288 -0.3788  0.6681  0.5137
14314TIP3   OH264432   5.803   4.970   0.608 -0.4703  0.0348 -0.5100
14314TIP3    H164433   5.803   5.053   0.656  0.2871 -0.4394  0.3546
14314TIP3    H264434   5.766   4.907   0.670  1.2436 -0.7418 -0.2027
14315TIP3   OH264435   0.765   0.401  15.429 -0.2904  0.1266  0.0391
14315TIP3    H164436   0.743   0.460  15.501 -1.5070 -0.5495  0.2461
14315TIP3    H264437   0.798   0.459  15.360 -1.5392  1.0874  0.2073
14316TIP3   OH264438   4.612   3.599  16.254 -0.0895 -0.4232  0.0534
14316TIP3    H164439   4.648   3.522  16.298 -0.7795 -1.4516 -1.1092
14316TIP3    H264440   4.554   3.639  16.319  0.1599 -0.9700  0.6263
14317TIP3   OH264441   3.923   5.415   1.210 -0.1077  0.1784 -0.5968
14317TIP3    H164442   3.866   5.346   1.243  0.4491 -0.3229 -0.6801
14317TIP3    H264443   3.937   5.473   1.285 -1.9050  1.1297 -0.9303
14318TIP3   OH264444   2.372   2.420   6.326 -0.0926  0.7825 -0.2456
14318TIP3    H164445   2.288   2.466   6.320 -1.2725 -1.2487 -0.3077
14318TIP3    H264446   2.351   2.337   6.368  1.4318 -0.8193 -2.4073
14319TIP3   OH264447   2.655   1.828  11.926  0.0344  1.0294 -0.2153
14319TIP3    H164448   2.716   1.801  11.857  0.4449 -0.5775  0.7142
14319TIP3    H264449   2.611   1.906  11.890  2.2556  1.9529 -1.1081
14320TIP3   OH264450   5.826   3.217  11.906  0.3866 -0.1119 -0.2772
14320TIP3    H164451   5.887   3.184  11.841 -1.2939 -1.5386 -1.1988
14320TIP3    H264452   5.778   3.286  11.862 -0.3743 -0.7020 -0.3882
14321TIP3   OH264453   3.041   2.676   2.300  0.1379 -0.1611 -0.9166
14321TIP3    H164454   2.988   2.690   2.222  0.1036 -0.2747 -0.9150
14321TIP3    H264455   3.095   2.599   2.279  1.9570  1.2789 -1.7786
14322TIP3   OH264456   3.680   5.427  11.507 -0.3657 -0.2902  0.0490
14322TIP3    H164457   3.631   5.368  11.565  0.2062 -0.2170  0.6189
14322TIP3    H264458   3.615   5.492  11.479 -1.2200 -1.6267 -1.2441
14323TIP3   OH264459   0.215   5.312  10.118 -0.0610  0.6681 -0.5728
14323TIP3    H164460   0.301   5.270  10.116 -0.1826  0.0225  2.4986
14323TIP3    H264461   0.156   5.247  10.079  0.6112  0.5052 -1.3400
14324TIP3   OH264462   3.812   4.012  15.585  0.4021  0.2517 -0.0908
14324TIP3    H164463   3.833   4.048  15.671 -0.6232  0.0900  0.2468
14324TIP3    H264464   3.793   4.089  15.531 -0.4085  0.2983  0.2446
14325TIP3   OH264465   2.879   2.400  15.414  0.3344  0.7803 -0.4077
14325TIP3    H164466   2.877   2.313  15.454 -4.1735  1.4267  1.3924
14325TIP3    H264467   2.842   2.387  15.327 -1.8818  0.9361  0.4319
14326TIP3   OH264468   5.467   6.324  15.963  0.4996  0.6701  0.1188
14326TIP3    H164469   5.384   6.294  16.000  0.1541 -0.2532 -1.3016
14326TIP3    H264470   5.479   6.270  15.884  2.2078  1.1217  0.0255
14327TIP3   OH264471   6.224   4.494  15.923 -0.0675 -0.2388 -0.1316
14327TIP3    H164472   6.267   4.468  16.004 -0.4978 -1.3560 -0.2374
14327TIP3    H264473   6.131   4.498  15.946  0.0635  2.5910  0.2150
14328TIP3   OH264474   4.510   2.813   4.347 -0.3697  0.0319  0.7818
14328TIP3    H164475   4.558   2.856   4.418 -2.7248 -0.0562  2.5590
14328TIP3    H264476   4.491   2.725   4.381 -2.1100  0.2074  0.3627
14329TIP3   OH264477   5.361   0.797   2.525  0.4275 -0.1949 -0.7758
14329TIP3    H164478   5.405   0.712   2.522 -0.8006 -0.8711 -0.2896
14329TIP3    H264479   5.418   0.854   2.474  1.6230 -1.1367 -0.5620
14330TIP3   OH264480   3.175   1.368  11.723  0.4300  0.2856  0.2950
14330TIP3    H164481   3.099   1.317  11.752  0.3116 -0.0190 -0.5335
14330TIP3    H264482   3.138   1.434  11.664  0.8654 -0.2038 -0.5360
14331TIP3   OH264483   3.227   0.074  13.851  0.0097 -0.0299 -0.5086
14331TIP3    H164484   3.259   0.108  13.935 -0.6041 -1.0909  0.1852
14331TIP3    H264485   3.176   0.146  13.814  0.1015  0.3764  0.1400
14332TIP3   OH264486   4.715   6.387  15.259  0.3106  0.7365 -0.1638
14332TIP3    H164487   4.706   6.448  15.332 -0.3423 -0.9984  1.2823
14332TIP3    H264488   4.646   6.411  15.198  0.5127  1.8604  0.0390
14333TIP3   OH264489   6.622   0.768  15.938 -0.2165  0.5639  0.2614
14333TIP3    H164490   6.623   0.716  16.018  1.5850 -1.0438 -0.7046
14333TIP3    H264491   6.710   0.805  15.932  0.3143 -0.8071 -1.7914
14334TIP3   OH264492   6.515   2.608   6.241 -0.0353 -0.2728 -0.5809
14334TIP3    H164493   6.433   2.646   6.209  0.4022  1.4133  0.2003
14334TIP3    H264494   6.573   2.607   6.164 -0.4899 -0.6501 -0.9262
14335TIP3   OH264495   3.681   6.253   1.228 -0.1870 -0.2885  0.1245
14335TIP3    H164496   3.627   6.189   1.274  1.4966 -1.6193  0.3639
14335TIP3    H264497   3.749   6.277   1.292 -0.2309  1.0355 -0.2915
14336TIP3   OH264498   2.460   2.247  14.783  0.0067  0.1639  0.4927
14336TIP3    H164499   2.532   2.307  14.802  1.2208 -0.9771 -0.2589
14336TIP3    H264500   2.425   2.223  14.869 -0.1423  1.5002  0.8235
14337TIP3   OH264501   3.626   5.467  12.816 -0.1950 -0.2433 -0.3185
14337TIP3    H164502   3.608   5.405  12.886 -0.5206 -0.8927 -0.9652
14337TIP3    H264503   3.663   5.414  12.745 -0.4087  0.3067 -0.8552
14338TIP3   OH264504   6.127   1.698   4.699 -0.0340 -0.0797  0.5350
14338TIP3    H164505   6.137   1.779   4.650  0.0565  0.4511  1.4117
14338TIP3    H264506   6.107   1.632   4.633 -2.5399  1.0807  0.0375
14339TIP3   OH264507   3.109   1.435   2.212 -0.1542  0.4454  0.6351
14339TIP3    H164508   3.077   1.397   2.294  1.8779 -0.7466  0.9275
14339TIP3    H264509   3.179   1.494   2.238  0.8123 -0.2783 -0.2311
14340TIP3   OH264510   0.992   5.916  12.917  0.0997  0.3428  0.4429
14340TIP3    H164511   1.076   5.956  12.894  0.9629 -1.9368 -0.6841
14340TIP3    H264512   1.002   5.892  13.010  0.5901  0.3197  0.3877
14341TIP3   OH264513   3.766   4.283  11.002 -0.1707  0.5043  0.4732
14341TIP3    H164514   3.781   4.367  10.959 -1.4574 -0.6655 -2.5408
14341TIP3    H264515   3.671   4.280  11.016  0.0276  0.1208  1.9549
14342TIP3   OH264516   3.534   6.386  15.967  0.7474  0.0169  0.2710
14342TIP3    H164517   3.528   6.291  15.960 -1.2032 -0.0809  2.1379
14342TIP3    H264518   3.570   6.415  15.883 -3.5864 -1.9869 -2.6256
14343TIP3   OH264519   5.611   3.656  15.912  0.6793 -0.1894 -0.5132
14343TIP3    H164520   5.618   3.751  15.914  1.9020 -0.2638  0.9609
14343TIP3    H264521   5.625   3.633  15.820 -2.2969  1.1525 -1.4051
14344TIP3   OH264522   1.220   3.918   0.694  0.1099 -0.0518 -0.7319
14344TIP3    H164523   1.270   3.854   0.744 -1.0200  1.0172  1.9602
14344TIP3    H264524   1.149   3.867   0.655  0.5382 -0.8015 -0.5473
14345TIP3   OH264525   2.357   0.318  17.153  0.6727  0.2884 -0.3335
14345TIP3    H164526   2.358   0.337  17.059 -0.9805 -0.2685 -0.5064
14345TIP3    H264527   2.291   0.249  17.163  2.4601 -1.3583  0.9578
14346TIP3   OH264528   6.364   2.187  15.012  0.2014 -0.3469  0.6616
14346TIP3    H164529   6.448   2.141  15.010 -0.0126 -0.7554  0.8774
14346TIP3    H264530   6.306   2.131  14.961  0.4306  0.6987 -0.8082
14347TIP3   OH264531   0.251   4.528  14.359 -0.3967 -0.5332 -0.2726
14347TIP3    H164532   0.170   4.578  14.345  0.4750  1.4684  1.3873
14347TIP3    H264533   0.316   4.570  14.303  0.2403 -0.0573  0.7919
14348TIP3   OH264534   5.300   3.747   3.195 -0.4411 -0.8453  0.5407
14348TIP3    H164535   5.282   3.672   3.139 -2.2387  0.1878 -0.3660
14348TIP3    H264536   5.288   3.714   3.284 -0.0634 -1.8908  0.2179
14349TIP3   OH264537   4.329   3.447  13.404  0.1831 -0.1531 -0.2011
14349TIP3    H164538   4.401   3.484  13.352  1.5744 -2.1412  0.1829
14349TIP3    H264539   4.326   3.355  13.378 -0.8563 -0.5891  1.3228
14350TIP3   OH264540   0.410   1.669  14.452 -0.5757 -0.0453 -0.6662
14350TIP3    H164541   0.409   1.648  14.358  0.3642 -0.7338 -0.5452
14350TIP3    H264542   0.462   1.598  14.491 -0.9755  0.2281  0.3763
14351TIP3   OH264543   2.650   3.794   0.206  0.0962 -0.2104 -0.4038
14351TIP3    H164544   2.721   3.729   0.203  0.2288 -0.0386 -1.1680
14351TIP3    H264545   2.688   3.868   0.253  0.5266 -0.0017 -1.0719
14352TIP3   OH264546   1.371   1.674   2.343 -0.1327 -0.1322 -0.1130
14352TIP3    H164547   1.357   1.767   2.363 -0.0895  0.2288 -1.6297
14352TIP3    H264548   1.436   1.675   2.273 -0.9973 -1.2560 -0.9595
14353TIP3   OH264549   4.732   6.809   6.584  0.0186 -0.1210  0.4431
14353TIP3    H164550   4.668   6.838   6.519  0.1378  0.4631  0.5897
14353TIP3    H264551   4.774   6.889   6.615  1.2410 -0.5271 -0.0792
14354TIP3   OH264552   2.622   2.241   2.454 -0.3196  0.5817  0.0557
14354TIP3    H164553   2.664   2.269   2.372  0.1136  2.0037  0.7256
14354TIP3    H264554   2.660   2.299   2.521 -2.1934  0.8533  0.9408
14355TIP3   OH264555   5.479   1.448   2.792  0.2127 -0.0222 -0.5582
14355TIP3    H164556   5.480   1.354   2.779 -0.2555  0.0333 -1.0093
14355TIP3    H264557   5.386   1.472   2.789  0.3122  0.4212 -0.2207
14356TIP3   OH264558   4.185   5.511  15.452 -0.3410  0.6971  0.8413
14356TIP3    H164559   4.260   5.472  15.497 -1.6288 -2.3219  0.5391
14356TIP3    H264560   4.172   5.456  15.375 -1.6229  2.4283 -0.2437
14357TIP3   OH264561   3.533   0.840   0.384 -0.3000 -0.6153  0.8631
14357TIP3    H164562   3.551   0.899   0.458  0.6975 -1.8396  1.6315
14357TIP3    H264563   3.451   0.797   0.408  0.4062 -1.5680  1.6620
14358TIP3   OH264564   5.724   1.851  12.907 -0.2141  0.5211  0.5266
14358TIP3    H164565   5.807   1.888  12.874  0.4258  0.1157  1.6453
14358TIP3    H264566   5.656   1.905  12.866  0.4880 -0.4067 -2.0605
14359TIP3   OH264567   1.792   3.816  15.272 -0.7709  0.2347 -0.0121
14359TIP3    H164568   1.861   3.829  15.336  0.3680  1.8398 -1.4708
14359TIP3    H264569   1.733   3.891  15.285  0.2112  1.3731 -1.6479
14360TIP3   OH264570   2.750   5.752  16.532 -0.0155 -0.6874 -0.6563
14360TIP3    H164571   2.692   5.686  16.571  0.2724 -0.8610 -0.5132
14360TIP3    H264572   2.705   5.835  16.545 -1.5253 -1.0646 -2.9127
14361TIP3   OH264573   0.839   5.584  14.522  0.1764 -0.1626  0.2489
14361TIP3    H164574   0.910   5.522  14.507  1.5750  1.3517  0.3184
14361TIP3    H264575   0.856   5.619  14.610 -0.0546  0.9513 -0.1385
14362TIP3   OH264576   3.533   2.017   4.817  0.1325 -0.7128 -0.1377
14362TIP3    H164577   3.506   1.957   4.886  1.4080 -2.2438 -0.9138
14362TIP3    H264578   3.451   2.040   4.773 -0.6074 -0.2996  1.3691
14363TIP3   OH264579   1.660   0.312  16.229 -0.4607  0.3957  0.3035
14363TIP3    H164580   1.624   0.287  16.315  0.2631 -1.6385  0.0763
14363TIP3    H264581   1.737   0.257  16.219 -1.1793 -0.2687 -2.1482
14364TIP3   OH264582   6.566   3.362  13.765  0.0761 -0.0661 -0.1224
14364TIP3    H164583   6.656   3.373  13.796  0.3945 -0.4311 -0.8986
14364TIP3    H264584   6.561   3.269  13.741 -0.4704 -0.0181 -0.1965
14365TIP3   OH264585   0.196   5.381  16.913 -0.0322  0.5564  0.5451
14365TIP3    H164586   0.104   5.358  16.922 -0.1552  0.6048 -0.4861
14365TIP3    H264587   0.224   5.403  17.002 -0.8676  0.0167  0.9494
14366TIP3   OH264588   2.449   1.080   5.494 -0.4895  0.0236  0.1009
14366TIP3    H164589   2.394   1.153   5.466 -1.1184 -0.8048 -0.9361
14366TIP3    H264590   2.536   1.101   5.461 -0.3249  0.9859  1.0950
14367TIP3   OH264591   6.691   0.658  15.227 -0.0982  0.4299 -0.6293
14367TIP3    H164592   6.658   0.691  15.310  1.5436 -0.7641  0.5410
14367TIP3    H264593   6.626   0.687  15.163 -1.1398  1.8125  0.9685
14368TIP3   OH264594   3.834   6.117  14.151  0.4652  0.4616 -0.0127
14368TIP3    H164595   3.805   6.038  14.105 -1.0783  1.3140 -0.5578
14368TIP3    H264596   3.923   6.131  14.118  0.4213 -0.5359 -0.6070
14369TIP3   OH264597   3.056   1.998  14.442  0.0847  0.3008  0.3204
14369TIP3    H164598   2.988   2.066  14.431  0.4579  0.7083  0.5040
14369TIP3    H264599   3.029   1.950  14.520 -1.8972 -1.8005 -1.5156
14370TIP3   OH264600   6.617   2.661   3.879  0.2390  0.4962 -0.3916
14370TIP3    H164601   6.536   2.611   3.870  0.2766  0.4308 -0.3687
14370TIP3    H264602   6.612   2.700   3.966  1.4237 -1.6474  0.7260
14371TIP3   OH264603   0.178   5.543  15.449  0.3374  0.2749 -0.2606
14371TIP3    H164604   0.118   5.489  15.397 -0.4043  1.4833 -0.7222
14371TIP3    H264605   0.176   5.504  15.536  0.2408 -0.7436 -0.6993
14372TIP3   OH264606   1.382   4.933  14.629  0.0895  0.0680 -0.3882
14372TIP3    H164607   1.291   4.931  14.660 -0.2802 -2.1630 -1.3965
14372TIP3    H264608   1.402   5.026  14.619 -1.5047  0.6819  1.4336
14373TIP3   OH264609   5.669   1.750  16.842  0.0009  0.2183 -0.0242
14373TIP3    H164610   5.677   1.693  16.918  0.0195 -1.5190 -1.2811
14373TIP3    H264611   5.576   1.744  16.818  0.1222  0.2656 -0.5094
14374TIP3   OH264612   5.638   4.367  11.891 -0.2655 -0.0181  0.4699
14374TIP3    H164613   5.708   4.364  11.827 -0.5458  0.8801  0.0963
14374TIP3    H264614   5.613   4.459  11.894 -0.6371 -0.1384  1.4590
14375TIP3   OH264615   0.445   3.756  11.430  0.4909 -0.0616 -0.2519
14375TIP3    H164616   0.350   3.760  11.417  0.1517 -2.2957  0.9635
14375TIP3    H264617   0.457   3.779  11.522  0.8855 -1.5026  0.0864
14376TIP3   OH264618   2.601   3.451  12.588  0.5483  0.0996 -0.4608
14376TIP3    H164619   2.630   3.533  12.628 -0.1147  0.6174 -1.0269
14376TIP3    H264620   2.682   3.404  12.570  0.8692 -0.3205  1.8107
14377TIP3   OH264621   1.558   3.452   2.209 -0.2482  0.2856 -0.3302
14377TIP3    H164622   1.599   3.513   2.271  0.7899  0.1878 -0.9033
14377TIP3    H264623   1.623   3.441   2.140 -1.2044  0.0271 -1.2077
14378TIP3   OH264624   6.407   1.446   6.024  0.2460  0.3747 -0.6362
14378TIP3    H164625   6.414   1.396   6.106 -2.2783  1.4853  0.3493
14378TIP3    H264626   6.348   1.395   5.969  1.1008  0.1712 -1.4048
14379TIP3   OH264627   6.644   6.827  13.017  0.4413  0.5583 -0.5220
14379TIP3    H164628   6.620   6.872  13.098 -0.7427  0.9980 -1.0894
14379TIP3    H264629   6.561   6.816  12.970  0.9754 -0.5261 -1.2602
14380TIP3   OH264630   4.112   2.737  11.468 -0.1811  0.4647 -0.3792
14380TIP3    H164631   4.204   2.712  11.468 -0.0546  0.8975  0.2056
14380TIP3    H264632   4.070   2.678  11.531 -0.0662  1.0482  0.2622
14381TIP3   OH264633   1.416   0.211  13.055 -0.0484 -0.1256 -0.5314
14381TIP3    H164634   1.449   0.277  13.116  1.2184 -0.3609 -0.9271
14381TIP3    H264635   1.392   0.261  12.977  0.3391 -0.0514 -0.6078
14382TIP3   OH264636   3.626   6.277   5.470 -0.2149  0.0295 -0.7452
14382TIP3    H164637   3.688   6.332   5.517  1.3008  0.6957 -3.2817
14382TIP3    H264638   3.578   6.229   5.538  1.9542  0.7032  1.3844
14383TIP3   OH264639   4.076   1.370  11.483  0.2246 -0.2849  0.1685
14383TIP3    H164640   4.169   1.353  11.499 -0.0485 -0.3823  1.7828
14383TIP3    H264641   4.045   1.293  11.436  0.3724 -1.5687  2.0652
14384TIP3   OH264642   1.803   2.881  16.572  0.0482 -0.1508 -0.2817
14384TIP3    H164643   1.774   2.968  16.598 -0.9485 -0.5662  0.0596
14384TIP3    H264644   1.894   2.893  16.546 -0.5250  1.3137 -1.8478
14385TIP3   OH264645   2.155   1.222   1.001  0.3568  0.2016 -0.1593
14385TIP3    H164646   2.117   1.154   1.057 -1.1433 -0.3967 -1.8150
14385TIP3    H264647   2.219   1.266   1.057 -0.5809 -0.7955  1.8009
14386TIP3   OH264648   5.630   2.085  12.070 -0.0292  0.2907 -0.2046
14386TIP3    H164649   5.648   2.143  12.144  0.6804 -1.5342  1.1435
14386TIP3    H264650   5.682   2.121  11.998 -0.8359  2.1839  0.1214
14387TIP3   OH264651   5.162   0.926  14.411 -0.6178  0.3921 -0.1763
14387TIP3    H164652   5.154   1.004  14.356 -0.2183 -0.2294 -1.1329
14387TIP3    H264653   5.165   0.960  14.500  2.1961  1.6942 -0.6617
14388TIP3   OH264654   1.612   4.424  12.782 -0.0648  0.0018  0.1163
14388TIP3    H164655   1.541   4.461  12.836  0.8673  1.2901  0.5083
14388TIP3    H264656   1.574   4.345  12.744 -0.6477 -1.2678  3.0539
14389TIP3   OH264657   5.752   0.310   2.840 -0.1398  0.5061  0.6303
14389TIP3    H164658   5.729   0.217   2.841  2.0476 -0.1829 -1.6030
14389TIP3    H264659   5.715   0.345   2.921 -1.6859 -2.1247  1.1714
14390TIP3   OH264660   0.937   2.662  15.016  0.3700  0.1235  0.0491
14390TIP3    H164661   0.846   2.642  14.996  0.3726  0.8579 -0.7611
14390TIP3    H264662   0.971   2.582  15.056 -0.5123 -0.2989 -0.0244
14391TIP3   OH264663   3.766   2.130  12.941  0.3705 -0.2362  0.7717
14391TIP3    H164664   3.738   2.212  12.982  0.6050  0.6168 -0.7157
14391TIP3    H264665   3.762   2.147  12.847  2.2789 -1.2884  0.4389
14392TIP3   OH264666   0.703   6.366  15.722  0.2343  0.3972 -0.0088
14392TIP3    H164667   0.662   6.279  15.718  0.7494  0.1108  0.8162
14392TIP3    H264668   0.790   6.353  15.686 -0.0853  0.8288 -0.9634
14393TIP3   OH264669   4.899   5.141  16.103 -0.6234  0.5816 -0.0549
14393TIP3    H164670   4.938   5.193  16.174 -0.3603  0.6306 -0.2353
14393TIP3    H264671   4.932   5.053  16.118  0.6357  0.8729 -0.9811
14394TIP3   OH264672   6.120   4.264   4.735 -0.4495  0.1130  0.4044
14394TIP3    H164673   6.075   4.305   4.662 -1.2994 -2.3583 -0.5645
14394TIP3    H264674   6.084   4.175   4.739  1.3010 -0.5965  2.3087
14395TIP3   OH264675   3.271   5.459  11.501  0.2628  0.6346  0.3371
14395TIP3    H164676   3.184   5.486  11.471  0.6713  1.8439  0.1844
14395TIP3    H264677   3.288   5.377  11.454 -1.2447 -0.2434  1.2384
14396TIP3   OH264678   2.913   0.005   3.647  0.1131  0.4371  0.4302
14396TIP3    H164679   2.916  -0.074   3.593 -1.1827 -0.2245  1.2557
14396TIP3    H264680   2.886   0.074   3.588 -2.3246 -0.4753  0.3748
14397TIP3   OH264681   2.991   3.842  10.347  0.3085 -0.3035 -0.0287
14397TIP3    H164682   2.984   3.936  10.330  1.9351 -0.0838  0.2958
14397TIP3    H264683   2.996   3.836  10.442 -1.0290 -0.8519  0.0250
14398TIP3   OH264684   2.548   4.788   5.250  0.0213 -0.0835 -0.0917
14398TIP3    H164685   2.465   4.754   5.217 -1.6033  0.7362  2.7815
14398TIP3    H264686   2.580   4.846   5.181 -0.3598 -2.4164 -2.3780
14399TIP3   OH264687   5.153   3.935   6.496 -0.3023 -0.1372 -0.0906
14399TIP3    H164688   5.177   4.019   6.455 -1.2046  0.1056 -0.1654
14399TIP3    H264689   5.207   3.870   6.452  0.2784  0.3891 -0.1633
14400TIP3   OH264690   2.967   0.084  16.661  0.1242 -0.6099 -0.2456
14400TIP3    H164691   2.984   0.102  16.753  0.1052 -0.2072 -0.3203
14400TIP3    H264692   3.034   0.134  16.614  0.6851 -1.4985 -0.4181
14401TIP3   OH264693   5.072   5.928  12.886  0.0549  0.7745  0.1369
14401TIP3    H164694   5.123   6.008  12.879 -0.5922  1.1533 -0.3807
14401TIP3    H264695   4.981   5.957  12.881 -0.1734 -0.0614 -0.9848
14402TIP3   OH264696   3.862   4.542   0.271  0.6262 -1.0030  0.3842
14402TIP3    H164697   3.827   4.587   0.193  1.1529 -0.2971  0.5484
14402TIP3    H264698   3.938   4.495   0.239  1.8708  0.6454  0.7524
14403TIP3   OH264699   4.430   2.818  15.156  0.1097  0.3389  0.6954
14403TIP3    H164700   4.444   2.901  15.111  0.5784  0.8727  1.7845
14403TIP3    H264701   4.359   2.776  15.108 -0.2568  1.4508  0.2346
14404TIP3   OH264702   3.319   0.698   0.484  0.4216  0.3346  0.6841
14404TIP3    H164703   3.309   0.700   0.579 -1.0783  0.4409  0.5524
14404TIP3    H264704   3.245   0.646   0.453 -0.2910  1.9666 -0.5453
14405TIP3   OH264705   5.781   1.170   4.968  0.8893  0.8473 -0.1462
14405TIP3    H164706   5.765   1.093   5.024  1.1496  0.5708 -0.4456
14405TIP3    H264707   5.827   1.134   4.892 -0.2128  1.0791 -0.9480
14406TIP3   OH264708   4.669   6.829  15.829  0.1585  0.2030 -0.0138
14406TIP3    H164709   4.575   6.827  15.813  0.5513  0.6188 -2.7963
14406TIP3    H264710   4.683   6.761  15.896 -2.0696  0.0355  0.3550
14407TIP3   OH264711   2.869   4.191   0.579  0.1526 -0.3362 -0.0033
14407TIP3    H164712   2.932   4.122   0.557  0.7762 -0.1685  1.2059
14407TIP3    H264713   2.922   4.262   0.614 -0.7815 -0.5874  2.0318
14408TIP3   OH264714   0.891   4.361   2.708  0.2307  0.3354 -0.2322
14408TIP3    H164715   0.871   4.444   2.753 -0.6476 -0.5689  1.1065
14408TIP3    H264716   0.849   4.370   2.623 -2.2162  0.2650  0.8802
14409TIP3   OH264717   4.117   4.854   0.258  0.0763 -0.1496  0.6793
14409TIP3    H164718   4.046   4.853   0.195  1.5705  1.9272 -1.2182
14409TIP3    H264719   4.105   4.775   0.310 -2.0609 -1.2171 -1.2805
14410TIP3   OH264720   0.616   0.285  13.566 -0.0710 -0.1293 -0.1117
14410TIP3    H164721   0.638   0.378  13.573 -0.7184 -0.0307  0.7241
14410TIP3    H264722   0.604   0.256  13.656  0.7275 -1.1852 -0.3305
14411TIP3   OH264723   5.035   4.038   0.735 -0.9320  0.3326  0.0946
14411TIP3    H164724   5.109   4.030   0.676 -1.7041 -0.3716 -0.8032
14411TIP3    H264725   5.042   3.963   0.793 -1.8539 -0.6920 -1.0704
14412TIP3   OH264726   3.588   4.871  11.674  0.2047 -0.2192 -0.5896
14412TIP3    H164727   3.666   4.913  11.639 -0.3531  0.5789 -0.9184
14412TIP3    H264728   3.617   4.827  11.753  0.4685  2.5059  0.9393
14413TIP3   OH264729   4.340   5.613  15.967 -0.2544  0.4021 -0.2338
14413TIP3    H164730   4.423   5.606  15.920  0.1262 -1.3657  0.6361
14413TIP3    H264731   4.294   5.685  15.923  0.2815 -0.8022 -2.9665
14414TIP3   OH264732   4.473   3.181  16.294  0.2269  0.1552  0.0810
14414TIP3    H164733   4.443   3.218  16.377  0.7661  1.0463 -0.1146
14414TIP3    H264734   4.561   3.217  16.281  0.3431 -0.3590 -0.6369
14415TIP3   OH264735   3.687   1.594  10.920  0.3793  0.4707  0.7243
14415TIP3    H164736   3.755   1.552  10.867  1.3288  1.6688  0.9450
14415TIP3    H264737   3.732   1.667  10.963 -0.8570  0.7665  1.5650
14416TIP3   OH264738   5.804   4.641  12.882  0.2361 -0.2103 -0.4562
14416TIP3    H164739   5.843   4.688  12.957 -1.3255 -0.9275  0.8703
14416TIP3    H264740   5.870   4.576  12.858  0.2337 -0.8957  1.2464
14417TIP3   OH264741   2.593   3.075   3.884 -0.3859  0.1255 -0.9845
14417TIP3    H164742   2.685   3.098   3.902 -0.1097 -1.7271  0.2234
14417TIP3    H264743   2.568   3.019   3.957 -2.5016  0.5734 -1.3156
14418TIP3   OH264744   1.328   4.653  13.274 -0.8475 -0.2484 -0.7176
14418TIP3    H164745   1.304   4.687  13.361 -1.3832  0.5761 -1.1779
14418TIP3    H264746   1.358   4.564  13.291  3.1642  1.1787  0.9379
14419TIP3   OH264747   3.932   3.874  10.596  0.2189 -0.0359 -0.2249
14419TIP3    H164748   4.016   3.836  10.569 -0.4253 -1.8006  0.1266
14419TIP3    H264749   3.951   3.916  10.680  0.9221  0.3045 -0.5422
14420TIP3   OH264750   2.398   3.511  14.929 -0.3418 -0.4501  0.1046
14420TIP3    H164751   2.344   3.591  14.934 -1.4757 -1.2459  1.6591
14420TIP3    H264752   2.462   3.521  14.999 -0.0532 -0.6070 -0.1369
14421TIP3   OH264753   2.999   0.771  10.992 -0.2265 -1.0183  0.1860
14421TIP3    H164754   3.070   0.819  11.035 -0.4386 -1.0691  0.6043
14421TIP3    H264755   3.035   0.684  10.975  0.0133 -0.8508 -0.1684
14422TIP3   OH264756   5.948   2.513  15.177 -0.1901 -0.4520 -0.1399
14422TIP3    H164757   5.911   2.599  15.159  0.8837 -0.0488 -0.4669
14422TIP3    H264758   5.914   2.491  15.264  1.9155  1.6677  1.3449
14423TIP3   OH264759   5.714   2.097  15.227  0.2861 -0.1645 -0.3980
14423TIP3    H164760   5.753   2.044  15.296  1.7103  1.9810  0.5566
14423TIP3    H264761   5.635   2.133  15.267  0.8358  0.6656 -0.0377
14424TIP3   OH264762   1.995   6.738  12.351 -0.4882 -0.2476  0.3441
14424TIP3    H164763   2.081   6.709  12.383 -0.0729 -0.5261 -0.9778
14424TIP3    H264764   2.014   6.783  12.269 -1.6145 -0.2795  0.0505
14425TIP3   OH264765   2.889   4.008  16.532  0.2493 -0.0131  0.1066
14425TIP3    H164766   2.924   3.979  16.447  0.3137  0.8388 -0.1692
14425TIP3    H264767   2.800   4.036  16.513  0.3582  0.4475  0.2595
14426TIP3   OH264768   4.413   5.136  16.066  0.1046  0.0121 -0.9644
14426TIP3    H164769   4.328   5.173  16.092  0.3567 -0.8148  1.2374
14426TIP3    H264770   4.392   5.078  15.993 -0.8349  1.5627 -2.0033
14427TIP3   OH264771   3.530   4.888   2.155  0.0747  0.4294 -0.1512
14427TIP3    H164772   3.446   4.880   2.200  0.4923  1.3852  0.8404
14427TIP3    H264773   3.564   4.799   2.151 -0.2293  0.2534  0.9475
14428TIP3   OH264774   3.347   2.743  12.220  0.3783  0.4029  0.7525
14428TIP3    H164775   3.397   2.690  12.282  0.5817  1.2281  1.3206
14428TIP3    H264776   3.347   2.831  12.259 -0.8673  0.5853  0.3767
14429TIP3   OH264777   1.167   4.385   2.575  0.0870 -0.1272 -0.2480
14429TIP3    H164778   1.115   4.332   2.515 -1.4490  0.8540  0.1595
14429TIP3    H264779   1.122   4.377   2.659  0.3953  1.0134  0.0362
14430TIP3   OH264780   0.046   3.996  16.017 -0.2224  0.6700  0.1184
14430TIP3    H164781   0.110   3.939  16.058  1.0597  2.0805  0.1641
14430TIP3    H264782   0.022   3.951  15.936  1.2954  0.3621 -0.1940
14431TIP3   OH264783   2.811   3.579  16.032  0.6338  0.2553 -0.3678
14431TIP3    H164784   2.751   3.649  16.006  1.0710  1.1179  0.8358
14431TIP3    H264785   2.894   3.602  15.991  0.9856  0.9097  0.6665
14432TIP3   OH264786   2.144   6.181   2.637 -0.1638  0.1152 -0.3194
14432TIP3    H164787   2.073   6.222   2.687  1.1952 -0.2582  2.0603
14432TIP3    H264788   2.152   6.236   2.558 -2.5106  0.6256 -0.2936
14433TIP3   OH264789   1.371   1.825  12.273  0.7408  0.7382 -0.4255
14433TIP3    H164790   1.448   1.775  12.247  1.4056  1.3346  0.3516
14433TIP3    H264791   1.299   1.763  12.266  0.8173  0.8496 -3.7254
14434TIP3   OH264792   5.538   6.096  11.969  0.4862  0.2409  0.5023
14434TIP3    H164793   5.514   6.082  11.877  0.3626  0.2692  0.5302
14434TIP3    H264794   5.629   6.125  11.966  0.6653 -0.3142  0.4223
14435TIP3   OH264795   2.654   3.229  12.855 -0.2407 -0.3743  0.1392
14435TIP3    H164796   2.672   3.137  12.871  2.8730 -0.0202 -0.6495
14435TIP3    H264797   2.723   3.257  12.794 -1.8390  2.1848 -0.6777
14436TIP3   OH264798   1.500   1.961  10.982 -0.6684  0.0591  0.4564
14436TIP3    H164799   1.433   1.964  10.914 -0.9406  1.0207  0.7507
14436TIP3    H264800   1.461   2.006  11.057 -0.2962 -0.8117  1.1945
14437TIP3   OH264801   4.159   1.616  16.834  0.1995  0.5669 -0.4818
14437TIP3    H164802   4.074   1.576  16.815  0.3616  1.1926 -2.9247
14437TIP3    H264803   4.157   1.634  16.928 -1.8558 -0.5622 -0.2501
14438TIP3   OH264804   1.905   1.187   3.576 -0.3489 -0.5751 -0.2649
14438TIP3    H164805   1.824   1.136   3.590 -0.3358 -0.2242  1.3521
14438TIP3    H264806   1.886   1.242   3.500 -2.8126  1.6539  1.7629
14439TIP3   OH264807   5.132   5.627   4.447 -0.8616 -0.0881  0.6709
14439TIP3    H164808   5.073   5.602   4.376 -0.7293  0.8202  0.2221
14439TIP3    H264809   5.211   5.576   4.432 -0.1382  1.3817 -0.9324
14440TIP3   OH264810   2.965   1.813   2.050 -0.7795 -0.0780 -0.1141
14440TIP3    H164811   2.961   1.785   1.959  0.0426  1.1593 -0.5601
14440TIP3    H264812   3.054   1.790   2.078 -1.1225 -0.7197  0.4759
14441TIP3   OH264813   1.440   4.370  16.626  0.0564  0.1472 -0.1582
14441TIP3    H164814   1.404   4.312  16.558  0.3050 -0.3683  0.1454
14441TIP3    H264815   1.363   4.410  16.666 -0.2556 -1.5121  0.9901
14442TIP3   OH264816   4.341   1.009   5.020 -0.1548  0.1840 -0.1733
14442TIP3    H164817   4.344   0.998   5.115  0.2270  0.5429 -0.1369
14442TIP3    H264818   4.426   0.977   4.989 -1.1715 -2.2554 -0.6818
14443TIP3   OH264819   3.128   3.372  12.403 -0.3139 -0.1928 -0.2985
14443TIP3    H164820   3.098   3.350  12.315  1.1323 -1.2832 -0.5570
14443TIP3    H264821   3.092   3.303  12.458 -0.3598 -0.0991 -0.2122
14444TIP3   OH264822   5.133   3.564   5.387 -0.4721  0.0123  0.0825
14444TIP3    H164823   5.089   3.615   5.319  1.0319  0.0733 -0.8855
14444TIP3    H264824   5.220   3.603   5.394 -1.0676  1.1369  3.2822
14445TIP3   OH264825   5.715   5.703  14.988  0.7129 -0.4224  0.4659
14445TIP3    H164826   5.762   5.784  15.011  1.3172 -0.3586 -0.9007
14445TIP3    H264827   5.626   5.717  15.021 -0.4399  2.5902 -3.2055
14446TIP3   OH264828   4.067   4.677   5.083  0.3134  0.0411  0.1915
14446TIP3    H164829   4.157   4.656   5.057  0.0624 -1.4953  0.4631
14446TIP3    H264830   4.014   4.611   5.039 -0.3584 -1.1900  2.6604
14447TIP3   OH264831   2.914   4.363   5.718  0.0841 -0.0914  0.5019
14447TIP3    H164832   2.991   4.401   5.677  0.4213  0.0159  1.2193
14447TIP3    H264833   2.948   4.302   5.783 -0.4382 -0.3089  0.5802
14448TIP3   OH264834   4.550   5.963  15.756 -0.0824 -0.2437 -0.3110
14448TIP3    H164835   4.578   6.013  15.832 -2.7432 -1.0117  1.2904
14448TIP3    H264836   4.466   6.001  15.730  0.5393 -0.2886 -2.6283
14449TIP3   OH264837   0.404   0.563  15.696  0.0383  0.5915  0.5054
14449TIP3    H164838   0.331   0.522  15.741  0.9549 -1.6079  0.1595
14449TIP3    H264839   0.396   0.656  15.715 -2.3699  0.3198  1.1043
14450TIP3   OH264840   3.969   3.404   2.273 -0.4078 -0.3404 -0.1083
14450TIP3    H164841   4.045   3.462   2.265  0.0491 -0.9272 -0.1146
14450TIP3    H264842   3.897   3.462   2.295 -0.0865  0.3112 -0.7297
14451TIP3   OH264843   0.602   1.432  13.946  0.3119  0.4791  0.2745
14451TIP3    H164844   0.507   1.437  13.938  0.1059 -0.4664  1.7035
14451TIP3    H264845   0.631   1.523  13.945 -0.7475  0.8434  1.0091
14452TIP3   OH264846   1.153   1.035  10.823  0.1416 -0.4821 -0.3748
14452TIP3    H164847   1.077   1.031  10.765  0.3213 -1.9180 -0.5495
14452TIP3    H264848   1.226   1.058  10.765  0.1999 -1.2294 -0.6097
14453TIP3   OH264849   3.929   1.179   2.186 -0.5293 -0.0983  0.2110
14453TIP3    H164850   3.985   1.222   2.251 -1.4694  2.0942 -0.3510
14453TIP3    H264851   3.968   1.200   2.102 -1.3341  0.1679 -0.1077
14454TIP3   OH264852   1.261   4.742  13.033  0.3050  0.2736  0.1148
14454TIP3    H164853   1.279   4.699  13.117  0.4434 -3.1895 -1.4984
14454TIP3    H264854   1.165   4.747  13.029  0.3071  0.7593  0.6117
14455TIP3   OH264855   0.138   0.780   5.093 -0.1327 -0.2879 -0.4438
14455TIP3    H164856   0.208   0.823   5.043  0.0677 -2.6958 -2.4370
14455TIP3    H264857   0.065   0.774   5.031 -0.3006 -2.2895 -0.1166
14456TIP3   OH264858   4.106   1.240  13.490 -0.6708 -0.0503 -0.4416
14456TIP3    H164859   4.032   1.216  13.546 -1.3905  0.3273 -1.2089
14456TIP3    H264860   4.068   1.295  13.422  0.3399  0.2239 -0.8027
14457TIP3   OH264861   2.195   6.744  11.315 -0.4003  0.2223  0.1431
14457TIP3    H164862   2.288   6.741  11.341 -1.2384 -1.1417  3.5608
14457TIP3    H264863   2.193   6.806  11.242  3.2060  0.1626 -0.2322
14458TIP3   OH264864   5.188   0.819  12.407  0.1600 -0.0621  0.3902
14458TIP3    H164865   5.278   0.814  12.375  0.4603 -0.1248  1.2124
14458TIP3    H264866   5.163   0.911  12.395 -0.3951 -0.4452 -1.7128
14459TIP3   OH264867   6.190   3.112   0.432  0.0639  0.0893  0.1349
14459TIP3    H164868   6.227   3.023   0.428  2.0196  0.8713 -0.2802
14459TIP3    H264869   6.163   3.122   0.524  0.8897 -0.5517  0.4656
14460TIP3   OH264870   1.330   1.617   5.439  0.2095 -0.0015 -0.1740
14460TIP3    H164871   1.306   1.544   5.496  1.0340 -0.7901 -0.8106
14460TIP3    H264872   1.348   1.577   5.354  2.3847  0.6606 -0.0982
14461TIP3   OH264873   5.890   4.357  16.421  0.4910 -0.2823 -0.2064
14461TIP3    H164874   5.853   4.305  16.493  0.8401 -0.2896 -0.0341
14461TIP3    H264875   5.975   4.386  16.452  0.0778  0.8670 -0.0813
14462TIP3   OH264876   1.507   0.433  12.147  0.2404  0.1260  0.4781
14462TIP3    H164877   1.467   0.370  12.087  0.1432  1.6462 -1.1234
14462TIP3    H264878   1.546   0.499  12.090 -1.4277  2.6385  2.0647
14463TIP3   OH264879   1.393   5.055  13.728 -0.4483 -0.4178 -0.4205
14463TIP3    H164880   1.382   4.983  13.666  2.2021 -0.5522 -0.8324
14463TIP3    H264881   1.358   5.020  13.811 -0.4275 -1.6760 -0.9186
14464TIP3   OH264882   3.656   5.427  16.632 -0.2061 -0.1418 -0.3083
14464TIP3    H164883   3.622   5.469  16.711  0.1777  0.1593 -0.3046
14464TIP3    H264884   3.589   5.445  16.566 -1.4231 -1.9343  0.3696
14465TIP3   OH264885   0.984   4.624  16.011  0.4140  0.0294  0.2486
14465TIP3    H164886   0.952   4.657  16.095 -0.1010 -0.8967  0.4362
14465TIP3    H264887   1.079   4.636  16.015  0.3882  0.0368  0.9521
14466TIP3   OH264888   0.620   4.903  12.295  0.0122  0.1133  0.0698
14466TIP3    H164889   0.709   4.910  12.262 -0.1647  2.4750 -0.0933
14466TIP3    H264890   0.626   4.844  12.370  1.6724  0.1309 -0.0218
14467TIP3   OH264891   3.487   2.900   2.745  0.3729  0.0417 -0.5064
14467TIP3    H164892   3.577   2.909   2.714 -0.2438  1.2830 -2.1074
14467TIP3    H264893   3.435   2.892   2.664 -0.8793 -1.6010  0.3964
14468TIP3   OH264894   4.021   4.946  13.017  0.2893 -0.2298  0.8159
14468TIP3    H164895   4.082   5.020  13.007 -1.2746  1.3210  2.1781
14468TIP3    H264896   3.943   4.973  12.968  0.0629 -1.4791  0.4459
14469TIP3   OH264897   1.371   3.794   1.155 -0.2676 -0.5491  0.8292
14469TIP3    H164898   1.396   3.791   1.063 -0.5876 -0.9987  0.7536
14469TIP3    H264899   1.276   3.791   1.154 -0.4986  2.8101  1.0366
14470TIP3   OH264900   1.607   5.833  14.981 -0.0626  0.3604  0.3059
14470TIP3    H164901   1.601   5.895  14.908 -0.0946 -0.0100 -0.0134
14470TIP3    H264902   1.602   5.887  15.060  1.0409  0.8731  0.0361
14471TIP3   OH264903   2.913   6.505   2.343 -0.1204  0.6512  1.2167
14471TIP3    H164904   2.850   6.480   2.275  0.4111  0.9703  0.5960
14471TIP3    H264905   2.999   6.488   2.304  0.1871  0.3989  1.9862
14472TIP3   OH264906   0.721   4.993   5.796 -0.2215 -0.1108  0.2369
14472TIP3    H164907   0.656   4.928   5.768 -0.0483 -0.0050 -0.4383
14472TIP3    H264908   0.673   5.053   5.852 -0.5332 -0.4621  0.3458
14473TIP3   OH264909   5.718   1.343  12.111  0.3271  0.1497  0.6170
14473TIP3    H164910   5.738   1.436  12.123  1.0672  0.4332 -2.1089
14473TIP3    H264911   5.628   1.343  12.078  0.3591 -0.0908  0.5297
14474TIP3   OH264912   6.307   5.065   3.674 -0.2544 -0.0700 -0.1354
14474TIP3    H164913   6.318   5.026   3.761 -1.2667 -0.3301 -0.1172
14474TIP3    H264914   6.331   5.157   3.687 -1.7891  0.2363  0.7726
14475TIP3   OH264915   3.669   5.627   3.161  0.2278 -0.1732  0.3961
14475TIP3    H164916   3.741   5.570   3.189  0.0066  1.1017  4.1382
14475TIP3    H264917   3.705   5.715   3.169 -1.5106  0.4604  1.7992
14476TIP3   OH264918   0.391   6.469  15.191 -0.3713  0.6676  0.0935
14476TIP3    H164919   0.468   6.412  15.186 -0.1386  0.9923 -0.0292
14476TIP3    H264920   0.331   6.422  15.248  0.4476  1.0302  1.2979
14477TIP3   OH264921   2.948   2.925  11.658 -0.3859  0.7725  0.8115
14477TIP3    H164922   2.898   3.003  11.633 -0.2623  0.7364  0.4455
14477TIP3    H264923   2.881   2.859  11.677 -0.4981  1.0987  1.5644
14478TIP3   OH264924   5.088   2.637   1.652  0.1697  0.3516 -0.2082
14478TIP3    H164925   5.018   2.702   1.658 -0.2329 -0.0754 -0.2204
14478TIP3    H264926   5.168   2.688   1.640 -0.2037  0.8197 -0.7156
14479TIP3   OH264927   2.486   1.786   0.568  0.0109  0.3305  0.0838
14479TIP3    H164928   2.581   1.773   0.561  0.0853  0.7572  0.2366
14479TIP3    H264929   2.477   1.878   0.595 -0.4846  0.6300 -1.0652
14480TIP3   OH264930   6.811   0.635   0.194 -0.3377 -0.3421 -0.0317
14480TIP3    H164931   6.782   0.704   0.134  0.1968  0.0718  0.1787
14480TIP3    H264932   6.730   0.590   0.220 -0.8777  1.1365  0.9737
14481TIP3   OH264933   3.291   2.267  17.246  0.5662  0.9670  0.0925
14481TIP3    H164934   3.343   2.191  17.272 -2.3044 -0.6689  1.6262
14481TIP3    H264935   3.294   2.267  17.150  1.2764 -0.6127  0.0839
14482TIP3   OH264936   2.096   3.735   3.127 -0.1102  0.1932  0.0218
14482TIP3    H164937   2.032   3.801   3.152  0.3033  0.4480  0.4348
14482TIP3    H264938   2.085   3.665   3.190  0.2273  0.3760  0.2864
14483TIP3   OH264939   0.683   0.594  11.503  0.1448  0.3336  0.8680
14483TIP3    H164940   0.717   0.656  11.439  1.5233  0.9070  2.0781
14483TIP3    H264941   0.599   0.630  11.530  0.4133  1.0761  0.7317
14484TIP3   OH264942   0.360   5.094  11.022  0.0699  0.2776  0.2214
14484TIP3    H164943   0.367   5.003  10.993  0.4261  0.4549 -0.2573
14484TIP3    H264944   0.361   5.145  10.941 -0.7702  0.6733  0.4551
14485TIP3   OH264945   2.393   2.600  16.557 -0.3443  0.0660  0.0789
14485TIP3    H164946   2.467   2.544  16.537 -1.2899 -0.5793 -1.8229
14485TIP3    H264947   2.429   2.689  16.555  0.4955 -0.2693 -0.1151
14486TIP3   OH264948   1.111   3.129  14.806  0.3250  0.2410 -0.0456
14486TIP3    H164949   1.183   3.066  14.808  0.1874  0.0378 -0.9099
14486TIP3    H264950   1.033   3.076  14.822  0.0841 -0.0417 -1.8806
14487TIP3   OH264951   5.693   4.315  13.040 -0.0980  0.3220 -0.0172
14487TIP3    H164952   5.767   4.370  13.065  0.3872  0.3476 -1.4441
14487TIP3    H264953   5.617   4.372  13.053  0.2252  0.6831  0.3435
14488TIP3   OH264954   5.747   5.303  12.527 -0.1177 -0.0765 -0.1227
14488TIP3    H164955   5.791   5.349  12.455  1.1135 -3.0114 -1.4399
14488TIP3    H264956   5.660   5.282  12.493  0.0087 -0.3670 -0.2683
14489TIP3   OH264957   1.568   5.169   3.911  0.0319  0.2706 -0.2592
14489TIP3    H164958   1.626   5.139   3.841 -0.6076 -1.5927 -0.0323
14489TIP3    H264959   1.486   5.121   3.896 -0.6137  0.9686  0.9020
14490TIP3   OH264960   6.416   6.525  16.230  0.3122 -0.2952 -0.4744
14490TIP3    H164961   6.355   6.452  16.217 -1.1476  0.8621 -0.4442
14490TIP3    H264962   6.476   6.521  16.156 -1.9702  0.5518 -2.4994
14491TIP3   OH264963   4.981   3.019  12.865  0.2108  0.0235  0.1283
14491TIP3    H164964   4.898   3.064  12.874  0.3184 -0.0474  2.0504
14491TIP3    H264965   5.029   3.067  12.798 -0.4513  1.5496  0.7119
14492TIP3   OH264966   3.352   4.090   0.846 -0.0647  0.3215  0.6196
14492TIP3    H164967   3.416   4.027   0.881 -0.3746 -1.7869 -2.2363
14492TIP3    H264968   3.296   4.111   0.921 -1.4291 -4.7322  1.4043
14493TIP3   OH264969   3.807   1.750   5.299 -0.0538  0.0196  0.1918
14493TIP3    H164970   3.901   1.767   5.290  0.0899 -1.2759 -1.1186
14493TIP3    H264971   3.765   1.823   5.253  0.3880 -0.3738 -0.8718
14494TIP3   OH264972   1.712   4.325  13.667 -0.1951 -0.2116 -0.1274
14494TIP3    H164973   1.668   4.407  13.647 -0.7270 -0.4454  0.0610
14494TIP3    H264974   1.799   4.351  13.698 -0.8452  0.3590  1.3219
14495TIP3   OH264975   0.364   4.471   0.845  0.9981 -0.0047  0.5312
14495TIP3    H164976   0.433   4.536   0.857  0.3383  0.9524 -0.5411
14495TIP3    H264977   0.300   4.515   0.788  0.3085 -1.4453  0.1427
14496TIP3   OH264978   5.850   2.215   0.681  0.3658  0.1235 -0.2355
14496TIP3    H164979   5.791   2.288   0.697 -1.5421 -1.1336 -1.1577
14496TIP3    H264980   5.821   2.146   0.741  0.6440 -0.6383 -0.9495
14497TIP3   OH264981   1.532   1.195  11.663  0.4135  0.1092 -0.0328
14497TIP3    H164982   1.609   1.185  11.719  0.6767  1.1416 -0.1786
14497TIP3    H264983   1.543   1.129  11.594  0.2279 -0.9786  0.9484
14498TIP3   OH264984   4.744   0.626   1.323 -0.1850 -0.2359 -0.1581
14498TIP3    H164985   4.816   0.664   1.374  0.6651  1.4697 -2.4156
14498TIP3    H264986   4.723   0.694   1.258 -3.3443 -0.9962 -0.0781
14499TIP3   OH264987   4.989   0.160  14.791  0.1792 -0.1299  0.0249
14499TIP3    H164988   4.926   0.226  14.817  0.5432  1.3149 -2.4100
14499TIP3    H264989   5.065   0.176  14.847 -0.7499 -0.4272  1.4261
14500TIP3   OH264990   0.360   1.740   3.362 -0.0841  0.0054 -0.0098
14500TIP3    H164991   0.412   1.659   3.368  0.6905  0.4506 -0.4571
14500TIP3    H264992   0.423   1.810   3.382 -0.8646  0.4665  0.8873
14501TIP3   OH264993   0.381   0.586  17.068 -0.0209  0.0597  0.0431
14501TIP3    H164994   0.454   0.534  17.034 -1.8337 -1.8883 -1.1456
14501TIP3    H264995   0.330   0.525  17.121 -0.5153  1.5137  1.3173
14502TIP3   OH264996   2.301   0.357   3.817  0.0926 -0.5875  0.7195
14502TIP3    H164997   2.259   0.441   3.799  1.8521  0.3185  0.6239
14502TIP3    H264998   2.263   0.297   3.752  0.5251  0.7063 -0.7862
14503TIP3   OH264999   2.907   0.137   0.864  0.3356 -0.4797  0.1718
14503TIP3    H165000   2.843   0.066   0.875  0.2630 -0.2365  1.5439
14503TIP3    H265001   2.990   0.100   0.894  0.5407 -0.3524 -0.2357
14504TIP3   OH265002   3.726   2.824  13.482  0.7501 -0.2931 -0.3138
14504TIP3    H165003   3.739   2.730  13.492 -1.9068 -0.6947 -0.1380
14504TIP3    H265004   3.661   2.833  13.413 -0.5144  1.2891  1.0067
14505TIP3   OH265005   2.624   1.775   1.501  0.2964 -0.7590 -0.4300
14505TIP3    H165006   2.569   1.698   1.514 -0.4716 -0.4682 -1.7583
14505TIP3    H265007   2.698   1.743   1.449  1.1696 -1.0363  0.9089
14506TIP3   OH265008   4.632   2.501   3.711 -0.5210  0.0145  0.2607
14506TIP3    H165009   4.691   2.452   3.768 -2.0534 -0.4354  1.5465
14506TIP3    H265010   4.648   2.593   3.734  0.2755 -0.0465 -0.0291
14507TIP3   OH265011   6.743   4.218  11.058  0.4429  0.4249 -1.0658
14507TIP3    H165012   6.681   4.226  11.130 -0.7574 -1.9820 -1.7170
14507TIP3    H265013   6.734   4.300  11.009 -0.1448  1.2711  0.4159
14508TIP3   OH265014   2.950   4.271  15.277  0.0396 -0.0036  0.0675
14508TIP3    H165015   2.990   4.357  15.290 -2.1322  0.9112  1.5438
14508TIP3    H265016   2.947   4.233  15.365 -1.4605 -0.3772 -0.1130
14509TIP3   OH265017   1.559   3.727   1.354 -0.0979  0.2746 -0.1577
14509TIP3    H165018   1.606   3.809   1.368  0.9984 -0.3232 -0.2667
14509TIP3    H265019   1.497   3.747   1.284 -0.2016  1.1442  0.1683
14510TIP3   OH265020   1.896   0.070  13.890  0.3569  0.1551 -0.4784
14510TIP3    H165021   1.875   0.007  13.820 -0.7661  0.1063 -0.1240
14510TIP3    H265022   1.984   0.045  13.919 -0.5678 -2.1628  0.5889
14511TIP3   OH265023   2.272   1.770   1.973  0.1143  0.2711  0.8173
14511TIP3    H165024   2.335   1.767   1.900 -1.9483  0.7413 -1.1058
14511TIP3    H265025   2.245   1.678   1.985  1.5125 -0.0149  2.0376
14512TIP3   OH265026   6.677   0.644   0.439 -0.0140 -0.2896 -0.5489
14512TIP3    H165027   6.680   0.593   0.520  0.3981  0.7310  0.0987
14512TIP3    H265028   6.769   0.657   0.416 -0.0676  1.1748 -0.0279
14513TIP3   OH265029   0.023   1.977   0.497 -0.0990 -0.0504  0.6266
14513TIP3    H165030  -0.062   1.986   0.541 -0.6438 -0.2988 -0.3484
14513TIP3    H265031   0.005   1.920   0.422  0.4911  1.4583 -0.7113
14514TIP3   OH265032   5.500   4.168   6.243  0.8285 -0.3560  1.0548
14514TIP3    H165033   5.568   4.157   6.176 -0.2586 -1.7637  0.1444
14514TIP3    H265034   5.507   4.090   6.298 -0.8521 -1.1574  0.1888
14515TIP3   OH265035   2.734   6.395   2.160  0.4900  0.0511 -0.1050
14515TIP3    H165036   2.655   6.351   2.131  0.4272  1.0957 -1.6375
14515TIP3    H265037   2.804   6.358   2.107  0.5658  1.1427 -0.7957
14516TIP3   OH265038   0.575   3.416   2.271  0.2186  0.4036  0.2077
14516TIP3    H165039   0.667   3.444   2.267 -0.0280  1.1583 -0.5477
14516TIP3    H265040   0.548   3.409   2.179  0.4846 -3.2268  0.2634
14517TIP3   OH265041   5.935   6.684  15.959 -1.0341  0.1068 -0.1307
14517TIP3    H165042   5.936   6.742  15.882 -0.5849  0.7766  0.3676
14517TIP3    H265043   6.022   6.693  15.997 -1.3411 -0.0038  0.6132
14518TIP3   OH265044   6.349   4.314  14.544 -0.0958 -0.1720 -0.5590
14518TIP3    H165045   6.259   4.289  14.562  0.1273  0.1284  1.1079
14518TIP3    H265046   6.402   4.246  14.587  0.4716  0.6478  0.0742
14519TIP3   OH265047   0.596   0.081   2.580  0.0074  0.0183  0.0584
14519TIP3    H165048   0.650   0.083   2.659 -0.6287 -1.8907  0.6027
14519TIP3    H265049   0.566  -0.010   2.574  0.5348 -0.0574 -2.7435
14520TIP3   OH265050   1.783   2.955   1.312 -0.0014 -0.7007 -0.0798
14520TIP3    H165051   1.806   2.962   1.404  1.8250 -1.1671 -0.4523
14520TIP3    H265052   1.738   2.871   1.304  0.9931 -1.2797  0.2038
14521TIP3   OH265053   5.945   4.996  14.083  0.3408  0.3033 -0.1251
14521TIP3    H165054   5.956   5.089  14.103  0.2488  0.4789 -0.8483
14521TIP3    H265055   6.028   4.956  14.106  0.4971  0.6253 -0.1253
14522TIP3   OH265056   6.707   2.076  16.819 -0.2094 -0.5483  0.2561
14522TIP3    H165057   6.727   1.983  16.830  0.1808 -0.2558  2.5775
14522TIP3    H265058   6.782   2.112  16.771  0.8503 -1.0153  1.5128
14523TIP3   OH265059   1.562   0.867  15.464 -0.0742  0.2114  0.6067
14523TIP3    H165060   1.475   0.826  15.461  0.5364 -1.0852  0.3178
14523TIP3    H265061   1.571   0.908  15.378  0.9198 -2.5182 -0.7105
14524TIP3   OH265062   6.367   3.882   1.848 -0.1686 -0.2712 -0.5760
14524TIP3    H165063   6.431   3.946   1.817  0.0766  0.2042  0.8134
14524TIP3    H265064   6.394   3.864   1.938 -1.4008 -0.8408 -0.3052
14525TIP3   OH265065   3.615   1.243   3.984  0.1609 -0.2800  0.4409
14525TIP3    H165066   3.693   1.260   4.036  0.1421 -2.0002  1.1114
14525TIP3    H265067   3.559   1.319   3.998  0.4783 -0.3462  2.3431
14526TIP3   OH265068   1.161   4.934  16.174  0.2557  0.2748 -0.5268
14526TIP3    H165069   1.163   4.983  16.092 -0.4638 -0.0375 -0.7451
14526TIP3    H265070   1.111   4.855  16.153  0.1080  0.1691  0.1965
14527TIP3   OH265071   2.541   2.003  15.250 -0.1997 -0.0801 -0.0217
14527TIP3    H165072   2.589   1.920  15.248 -0.0567 -0.1107  2.3976
14527TIP3    H265073   2.471   1.989  15.313 -2.0910  0.7017 -1.8404
14528TIP3   OH265074   3.210   5.840  12.497  0.5464 -0.2766 -0.1225
14528TIP3    H165075   3.255   5.860  12.415  0.5028 -0.1849 -0.1247
14528TIP3    H265076   3.179   5.925  12.529  0.0758 -0.3758 -0.2973
14529TIP3   OH265077   3.944   1.044  17.068  0.3772  0.4284  0.0290
14529TIP3    H165078   4.029   1.085  17.053 -0.3115  2.0721  0.3743
14529TIP3    H265079   3.938   1.035  17.163 -0.4244  1.7303  0.1269
14530TIP3   OH265080   4.254   0.009   1.155  0.1329  0.2306  0.0629
14530TIP3    H165081   4.319   0.030   1.088 -1.0338 -0.1431 -1.2260
14530TIP3    H265082   4.272  -0.082   1.179  0.3806  0.2794  0.0642
14531TIP3   OH265083   5.374   0.719  13.111  0.2888 -0.0076  0.4510
14531TIP3    H165084   5.341   0.665  13.040  0.3709  1.2159 -0.5512
14531TIP3    H265085   5.305   0.783  13.126  0.3545 -0.1414  1.3630
14532TIP3   OH265086   4.961   2.415   0.872  0.0052 -0.5633 -0.0461
14532TIP3    H165087   4.901   2.409   0.946 -0.4541 -2.3686 -0.5148
14532TIP3    H265088   5.048   2.411   0.911 -0.2036  0.1776  0.5068
14533TIP3   OH265089   0.794   1.168  12.041  0.2971 -0.6161 -0.2160
14533TIP3    H165090   0.873   1.220  12.055  0.3567 -1.1617  1.9974
14533TIP3    H265091   0.745   1.178  12.123 -1.4741 -1.0545 -1.1866
14534TIP3   OH265092   5.188   1.984  14.688  0.2425 -0.2096 -0.5558
14534TIP3    H165093   5.270   1.980  14.639  0.2845  2.7735 -0.8725
14534TIP3    H265094   5.206   2.045  14.760 -1.4650 -0.1718 -0.1227
14535TIP3   OH265095   0.946   2.831   4.415 -0.3279 -0.0046 -0.0374
14535TIP3    H165096   0.941   2.805   4.507  0.8740  1.7946  0.5853
14535TIP3    H265097   1.034   2.806   4.387  0.4263  2.1162  0.2352
14536TIP3   OH265098   4.202   0.589  16.037 -0.4430 -0.7785  0.1080
14536TIP3    H165099   4.182   0.651  15.967 -1.3921 -0.3205  0.7616
14536TIP3    H265100   4.127   0.594  16.096  0.9057 -0.1364  1.8864
14537TIP3   OH265101   2.381   1.231   5.775  0.0245  0.0166 -0.0272
14537TIP3    H165102   2.359   1.178   5.698 -1.0930 -0.1391  0.3859
14537TIP3    H265103   2.299   1.271   5.802  0.8267  1.9538 -0.2743
14538TIP3   OH265104   1.889   2.701   2.403 -0.3744  0.7500  0.1434
14538TIP3    H165105   1.869   2.616   2.362 -1.0168 -0.4353  2.6889
14538TIP3    H265106   1.978   2.722   2.373 -0.6621 -0.2019 -1.4866
14539TIP3   OH265107   2.488   2.121  12.808 -0.3573 -0.3394 -0.4894
14539TIP3    H165108   2.476   2.097  12.716 -2.6265  1.3864 -0.7486
14539TIP3    H265109   2.538   2.203  12.804 -2.8583  1.3102 -0.4943
14540TIP3   OH265110   1.536   5.811   0.523 -0.0414  0.9737 -0.3721
14540TIP3    H165111   1.628   5.831   0.511 -0.2548  1.7059 -0.8444
14540TIP3    H265112   1.500   5.809   0.434 -0.5014  0.8036 -0.1843
14541TIP3   OH265113   3.721   4.678  13.676 -0.2925 -0.1345  0.0194
14541TIP3    H165114   3.774   4.729  13.615 -3.3460  0.5761 -2.3136
14541TIP3    H265115   3.724   4.589  13.641 -1.0546  0.0231 -0.4621
14542TIP3   OH265116   3.446   6.227  16.540  0.1478  0.0474 -0.1312
14542TIP3    H165117   3.451   6.320  16.522  0.7282 -0.2177 -1.4105
14542TIP3    H265118   3.537   6.200  16.554 -0.1234 -0.0858  1.6574
14543TIP3   OH265119   3.094   4.670  14.515  0.3377 -0.6033  0.1956
14543TIP3    H165120   3.058   4.664  14.427 -0.2039 -0.1759  0.3749
14543TIP3    H265121   3.029   4.722  14.564  1.0828 -0.0191  0.6003
14544TIP3   OH265122   5.534   4.238  14.614 -0.0321 -0.0782 -0.3246
14544TIP3    H165123   5.462   4.269  14.559  0.0572  1.2136  0.2733
14544TIP3    H265124   5.593   4.313  14.621  1.4651 -1.1394 -0.9065
14545TIP3   OH265125   2.805   3.458  13.876 -0.4368 -0.3416 -0.0531
14545TIP3    H165126   2.825   3.371  13.913 -0.8611 -0.9006 -1.0965
14545TIP3    H265127   2.712   3.453  13.856 -0.8623  0.9588  1.4037
14546TIP3   OH265128   6.462   0.482   4.201  0.2156  0.1437  0.4962
14546TIP3    H165129   6.536   0.541   4.212  0.3747 -0.1481  1.0008
14546TIP3    H265130   6.424   0.508   4.117  0.6682  0.5349  0.4046
14547TIP3   OH265131   1.777   1.113   1.120  0.1583 -0.4633  0.1551
14547TIP3    H165132   1.713   1.074   1.060 -0.3497 -1.2174  1.1472
14547TIP3    H265133   1.842   1.045   1.133 -0.0861 -0.5581  0.9533
14548TIP3   OH265134   2.890   6.262   5.063 -0.1952  0.2304 -0.1010
14548TIP3    H165135   2.827   6.334   5.074  0.0715  0.4274  0.1627
14548TIP3    H265136   2.908   6.233   5.153  0.2599  0.3231 -0.1642
14549TIP3   OH265137   4.883   1.164  11.259  0.8476 -0.1575  0.1186
14549TIP3    H165138   4.812   1.145  11.321  0.8806  0.3617  0.3260
14549TIP3    H265139   4.841   1.162  11.173  0.8452 -1.0907  0.1378
14550TIP3   OH265140   5.597   0.389   3.043 -0.4186  0.0596  0.2432
14550TIP3    H165141   5.611   0.481   3.063  0.0605  0.3176 -1.1724
14550TIP3    H265142   5.518   0.387   2.988 -0.0385 -0.2772 -0.3089
14551TIP3   OH265143   1.616   3.902  17.077 -0.3505 -0.0459 -0.6804
14551TIP3    H165144   1.674   3.970  17.112  0.3370 -1.2296  0.5230
14551TIP3    H265145   1.671   3.825  17.068 -1.3369 -0.7178 -1.1769
14552TIP3   OH265146   0.212   1.812   5.428  0.1641 -0.4297 -0.3873
14552TIP3    H165147   0.175   1.809   5.516  0.8718 -0.0725 -0.0640
14552TIP3    H265148   0.270   1.736   5.424  1.4718  0.5065  0.0924
14553TIP3   OH265149   3.822   5.801   2.991 -0.3324 -0.2933  0.1824
14553TIP3    H165150   3.813   5.734   2.924 -0.9171  0.3721 -0.4200
14553TIP3    H265151   3.902   5.848   2.968  0.7623 -1.5029  1.2912
14554TIP3   OH265152   3.227   2.459   0.148 -0.4474  0.2706 -0.5836
14554TIP3    H165153   3.234   2.376   0.102 -0.2186 -0.4660  0.7205
14554TIP3    H265154   3.215   2.524   0.079 -1.1863 -0.8992 -1.6048
14555TIP3   OH265155   2.062   4.873  16.827  0.0005 -0.5688 -0.0210
14555TIP3    H165156   2.067   4.781  16.853 -1.1148 -1.1626 -1.6978
14555TIP3    H265157   1.969   4.889  16.815  0.2932  0.2767 -1.3517
14556TIP3   OH265158   6.120   6.483  12.332 -0.1072  0.3098 -0.0158
14556TIP3    H165159   6.175   6.497  12.255 -1.2802  0.5834 -0.8447
14556TIP3    H265160   6.155   6.543  12.398  1.4915 -0.5821  0.0071
14557TIP3   OH265161   3.247   0.675  14.535 -0.1080  0.1956 -0.2935
14557TIP3    H165162   3.164   0.666  14.581  0.0655  0.1850  0.0195
14557TIP3    H265163   3.284   0.757  14.567  0.2707 -0.0907  0.0039
14558TIP3   OH265164   4.873   1.651   3.564  0.4593  0.1608  0.4397
14558TIP3    H165165   4.882   1.585   3.495  1.0046 -2.0246  2.4929
14558TIP3    H265166   4.960   1.659   3.602 -0.1674  0.0517  1.9694
14559TIP3   OH265167   6.757   4.910  13.142  0.6144  0.1506  0.0684
14559TIP3    H165168   6.851   4.919  13.126  0.5131 -2.3595 -3.0144
14559TIP3    H265169   6.717   4.973  13.083  0.3329  0.6186  0.7542
14560TIP3   OH265170   2.182   2.227  15.207 -0.0612  0.1279 -0.3638
14560TIP3    H165171   2.165   2.202  15.116 -0.2486  0.5726 -0.4535
14560TIP3    H265172   2.228   2.310  15.200 -0.0881  0.1686 -0.0488
14561TIP3   OH265173   4.371   0.881  17.042  0.1315  0.7952  0.0571
14561TIP3    H165174   4.299   0.854  17.099  1.4335 -0.5748  1.1457
14561TIP3    H265175   4.418   0.800  17.023 -0.1894  1.1972 -2.9874
14562TIP3   OH265176   1.886   6.164   4.756  0.6070  0.2016 -0.3791
14562TIP3    H165177   1.964   6.219   4.761  0.2729  0.8749 -2.0106
14562TIP3    H265178   1.816   6.217   4.792  1.0425 -0.8541  2.2808
14563TIP3   OH265179   0.582   3.705  16.882 -0.1291 -0.0375  0.7312
14563TIP3    H165180   0.632   3.632  16.847  0.7565  0.0602  1.7344
14563TIP3    H265181   0.648   3.773  16.899 -0.9058  0.9591 -0.0454
14564TIP3   OH265182   3.354   4.425  16.404 -0.1766  0.3070 -0.2248
14564TIP3    H165183   3.417   4.437  16.333 -1.1626 -0.5721 -1.2885
14564TIP3    H265184   3.388   4.351  16.455  0.6548  1.0876  0.3884
14565TIP3   OH265185   1.608   4.764  14.696  0.4366  0.2876  0.0201
14565TIP3    H165186   1.551   4.841  14.694  1.2318  0.8798 -1.2963
14565TIP3    H265187   1.633   4.751  14.605  1.7229 -0.4754  0.4586
14566TIP3   OH265188   3.687   2.673   2.514  0.1012  0.1366  0.2790
14566TIP3    H165189   3.709   2.686   2.422 -1.0671 -1.6540 -0.3142
14566TIP3    H265190   3.711   2.755   2.557 -2.3897  2.3276 -2.1811
14567TIP3   OH265191   4.211   3.309   3.180  0.2138 -0.1886  0.2441
14567TIP3    H165192   4.210   3.230   3.124  1.3732 -0.5777  0.7591
14567TIP3    H265193   4.122   3.344   3.171 -0.6427 -2.0788  0.7390
14568TIP3   OH265194   3.069   1.053   5.978 -0.2379 -0.8332 -0.3797
14568TIP3    H165195   3.079   1.071   5.884 -1.4675  0.4959 -0.3025
14568TIP3    H265196   3.156   1.026   6.007  0.1056 -1.5384 -1.9502
14569TIP3   OH265197   4.772   2.661  14.683 -0.1250 -0.8004 -0.2508
14569TIP3    H165198   4.851   2.642  14.733  0.5015  2.2726  0.1070
14569TIP3    H265199   4.802   2.670  14.593 -0.4734 -1.7347 -0.4733
14570TIP3   OH265200   2.199   4.130  10.382  0.0060  0.1372 -0.0675
14570TIP3    H165201   2.187   4.192  10.453  1.5435  0.6670 -0.2404
14570TIP3    H265202   2.146   4.165  10.310 -0.8758  0.0522  0.5301
14571TIP3   OH265203   3.889   0.917  13.681  0.1096 -0.5074  0.0715
14571TIP3    H165204   3.912   0.834  13.723  1.1588  0.0804  0.6967
14571TIP3    H265205   3.968   0.942  13.633  0.9151  1.5881  2.2845
14572TIP3   OH265206   5.647   4.852   3.297  0.0841 -0.0426  0.5483
14572TIP3    H165207   5.703   4.894   3.362  1.2483  0.5123 -0.7480
14572TIP3    H265208   5.617   4.772   3.339  3.0276 -1.1078  0.8312
14573TIP3   OH265209   6.100   4.728   2.443 -0.6579  0.2382  0.3797
14573TIP3    H165210   6.153   4.805   2.459 -0.2717  0.0261  0.1391
14573TIP3    H265211   6.023   4.761   2.397  0.8299  0.1737 -2.3900
14574TIP3   OH265212   5.742   3.313   3.304 -0.2286  0.3452 -0.2903
14574TIP3    H165213   5.654   3.324   3.268  0.2531 -1.4187 -2.1254
14574TIP3    H265214   5.743   3.224   3.338  0.5872  0.6739  0.5992
14575TIP3   OH265215   6.439   2.142  15.702 -0.4117  0.1667 -0.1775
14575TIP3    H165216   6.406   2.205  15.638  0.5083  0.7837 -0.0662
14575TIP3    H265217   6.500   2.086  15.653  0.2692  0.6185  0.1344
14576TIP3   OH265218   4.880   0.117  11.537 -0.1418  0.2850  0.5402
14576TIP3    H165219   4.957   0.125  11.480 -1.9666  1.2099 -2.0124
14576TIP3    H265220   4.863   0.207  11.566 -0.7234  0.2311  0.3813
14577TIP3   OH265221   5.057   0.534  14.345  0.3761  0.3410  0.0240
14577TIP3    H165222   5.095   0.473  14.409  0.1320  1.2800  1.1042
14577TIP3    H265223   5.132   0.561  14.291  0.9837  0.9903  1.1459
14578TIP3   OH265224   2.538   6.442   2.497 -0.3857  0.3198  0.4821
14578TIP3    H165225   2.545   6.505   2.426  0.0574  0.7072  0.8678
14578TIP3    H265226   2.478   6.375   2.463  1.2841 -0.5081 -0.9887
14579TIP3   OH265227   0.044   5.550   1.316 -0.0203  0.3365  0.1983
14579TIP3    H165228  -0.052   5.558   1.322 -0.0227  2.3971 -1.2115
14579TIP3    H265229   0.069   5.619   1.254  2.5162  0.6382  1.4381
14580TIP3   OH265230   5.098   6.006  16.386 -0.2597 -0.9806  0.2267
14580TIP3    H165231   5.136   6.092  16.405 -0.9994 -0.8558  1.2448
14580TIP3    H265232   5.005   6.024  16.371 -0.1806 -1.4446 -0.9125
14581TIP3   OH265233   5.409   3.172  17.022  0.0559  0.1242 -0.8471
14581TIP3    H165234   5.483   3.228  17.043 -0.5794  0.9199 -0.6571
14581TIP3    H265235   5.447   3.098  16.976  1.5400 -1.5736  2.6797
14582TIP3   OH265236   0.590   1.015  12.603 -0.0232  0.8466  0.2762
14582TIP3    H165237   0.665   0.979  12.649 -0.5742 -1.6283 -0.6253
14582TIP3    H265238   0.612   1.006  12.510 -1.6634 -0.5999 -0.0228
14583TIP3   OH265239   3.120   6.139   4.180  0.0380  0.5000 -0.0808
14583TIP3    H165240   3.116   6.111   4.088  4.0116 -0.4193 -0.1789
14583TIP3    H265241   3.163   6.224   4.177  1.6202 -0.2091  0.8882
14584TIP3   OH265242   2.246   6.588  15.905 -0.1518  0.5758 -0.3724
14584TIP3    H165243   2.235   6.629  15.990 -0.4072 -0.5348  0.1453
14584TIP3    H265244   2.172   6.528  15.897  0.3562  0.0085 -0.9765
14585TIP3   OH265245   3.499   0.939  13.259 -0.4790 -0.3791  0.1894
14585TIP3    H165246   3.486   1.010  13.196  2.6158 -0.9175 -1.2504
14585TIP3    H265247   3.581   0.962  13.304 -0.1866 -2.2751  0.7190
14586TIP3   OH265248   6.483   3.240   0.852  0.3302  0.4381  0.2645
14586TIP3    H165249   6.481   3.274   0.763  1.3007  1.5724  0.6478
14586TIP3    H265250   6.477   3.145   0.841  4.2629  0.1655 -1.3409
14587TIP3   OH265251   4.126   0.806   3.448  0.1964  0.2975  0.1624
14587TIP3    H165252   4.194   0.792   3.513  1.1449 -3.4289 -1.3921
14587TIP3    H265253   4.054   0.847   3.497  1.6167 -0.3768  3.0207
14588TIP3   OH265254   6.224   3.091  11.622  0.0402  0.6977  0.3423
14588TIP3    H165255   6.255   3.038  11.695 -0.8067  1.4791  1.2980
14588TIP3    H265256   6.302   3.110  11.571  0.6156 -0.0108  0.9432
14589TIP3   OH265257   0.905   2.874  16.029 -0.7066 -0.2250  0.2491
14589TIP3    H165258   0.901   2.876  16.125  0.9327  1.3055  0.3331
14589TIP3    H265259   0.875   2.786  16.006  0.2335 -1.1502  2.2566
14590TIP3   OH265260   6.561   0.097  12.201 -0.0231 -0.3307 -0.3953
14590TIP3    H165261   6.474   0.088  12.239  0.2174  0.0290  0.2436
14590TIP3    H265262   6.596   0.008  12.199  0.8194 -0.1311  2.2778
14591TIP3   OH265263   3.324   0.678  10.337  1.0330 -0.2533 -0.1013
14591TIP3    H165264   3.404   0.691  10.389 -0.2600  2.1148  1.5082
14591TIP3    H265265   3.277   0.609  10.384  0.2595  1.2937  1.5220
14592TIP3   OH265266   4.142   5.770  16.930 -0.7453  0.2496  0.4512
14592TIP3    H165267   4.145   5.759  17.025  0.6893 -0.6430  0.3360
14592TIP3    H265268   4.088   5.698  16.898  0.8518 -0.9889  0.4293
14593TIP3   OH265269   4.475   6.242   2.078  0.5223  0.4764 -0.3935
14593TIP3    H165270   4.515   6.267   2.161  2.3048  1.0212 -1.3725
14593TIP3    H265271   4.518   6.297   2.012 -2.3504  1.6337 -1.4918
14594TIP3   OH265272   2.584   1.527  17.259  0.0031  0.5589  0.1192
14594TIP3    H165273   2.633   1.608  17.248 -1.0711  0.9383 -2.3581
14594TIP3    H265274   2.648   1.457  17.243  0.6983  0.8948  1.2969
14595TIP3   OH265275   2.628   0.733  13.493  0.7845 -0.2720  0.4707
14595TIP3    H165276   2.678   0.721  13.574  2.8497 -0.6450 -0.7852
14595TIP3    H265277   2.581   0.651  13.482  3.4425 -1.7862 -0.5565
14596TIP3   OH265278   0.893   2.373   0.787  0.3181 -0.1116 -0.0386
14596TIP3    H165279   0.848   2.289   0.780 -1.3898  0.5186  2.1057
14596TIP3    H265280   0.951   2.363   0.862  0.9298  0.3017 -0.4467
14597TIP3   OH265281   5.328   5.524   5.932  0.3345 -0.0662 -0.5526
14597TIP3    H165282   5.282   5.464   5.991 -1.9319  0.7390 -1.3888
14597TIP3    H265283   5.322   5.609   5.975 -0.3971  0.3305 -1.4105
14598TIP3   OH265284   5.746   1.084  12.838 -0.2880  0.0778 -0.2033
14598TIP3    H165285   5.682   1.038  12.892  0.1107 -0.5239 -0.2402
14598TIP3    H265286   5.762   1.166  12.885 -0.0529 -0.3724  0.5176
14599TIP3   OH265287   0.883   1.528   1.373  0.2935  0.4484  0.2760
14599TIP3    H165288   0.915   1.534   1.283  0.6284  0.1887  0.3745
14599TIP3    H265289   0.788   1.523   1.365  0.3936 -1.3410 -0.1701
14600TIP3   OH265290   1.786   6.423  12.147 -0.1458  0.1015 -0.1836
14600TIP3    H165291   1.871   6.410  12.189 -1.1045 -1.1756  1.4841
14600TIP3    H265292   1.727   6.447  12.218 -1.4078 -0.1118 -1.1134
14601TIP3   OH265293   2.679   5.929  11.512 -0.3368 -0.3765  0.3152
14601TIP3    H165294   2.672   6.023  11.494  0.2662 -0.6116 -1.4212
14601TIP3    H265295   2.629   5.916  11.592 -0.6193  1.3904  0.4740
14602TIP3   OH265296   1.267   2.643  10.447  0.0853  0.1457 -0.0261
14602TIP3    H165297   1.230   2.697  10.377 -0.2412  0.5029  0.4180
14602TIP3    H265298   1.354   2.681  10.462  0.1286  0.1126 -0.1939
14603TIP3   OH265299   2.527   6.807  14.267  1.0465 -0.4591 -0.4756
14603TIP3    H165300   2.555   6.715  14.267  2.2303 -0.1213 -0.6811
14603TIP3    H265301   2.530   6.833  14.359  1.8972 -0.2999 -0.5399
14604TIP3   OH265302   6.091   3.248   4.082  0.6889 -0.2344 -0.0587
14604TIP3    H165303   6.040   3.329   4.072  0.3561 -0.2132  1.5043
14604TIP3    H265304   6.037   3.180   4.041  0.3139  0.1054 -0.1346
14605TIP3   OH265305   5.136   3.672   1.917 -0.7758  0.5730 -0.1166
14605TIP3    H165306   5.205   3.727   1.956  0.2607 -0.1470 -0.8804
14605TIP3    H265307   5.107   3.617   1.990 -0.2334  0.5891  0.1233
14606TIP3   OH265308   2.696   3.381   3.144  0.2246 -0.6881 -0.5018
14606TIP3    H165309   2.760   3.384   3.216  1.1182 -0.7129 -1.2714
14606TIP3    H265310   2.741   3.425   3.071 -0.2565 -1.5744 -1.3564
14607TIP3   OH265311   1.024   0.841   1.326 -0.0346 -0.6346  0.0279
14607TIP3    H165312   1.097   0.826   1.266 -0.1899  0.7140 -0.5381
14607TIP3    H265313   0.987   0.926   1.299 -0.4116 -0.2168  1.7200
14608TIP3   OH265314   5.643   2.950  12.184  0.1896  0.7673 -0.6211
14608TIP3    H165315   5.584   2.963  12.258 -0.7467  0.6282 -1.3109
14608TIP3    H265316   5.689   3.032  12.174  1.2475  0.3818  0.8837
14609TIP3   OH265317   6.708   1.522  12.724 -0.2943  0.0573 -0.1022
14609TIP3    H165318   6.649   1.459  12.766 -1.6139  0.5055 -1.2075
14609TIP3    H265319   6.794   1.503  12.762 -0.5163 -2.7762 -0.7636
14610TIP3   OH265320   3.600   0.528   4.932  0.1867 -0.0224  0.4516
14610TIP3    H165321   3.577   0.498   4.844  1.0236  2.9920 -0.9450
14610TIP3    H265322   3.519   0.567   4.966  0.0620 -0.4982  0.7038
14611TIP3   OH265323   3.980   5.179  15.866  0.3293 -0.1267 -0.0670
14611TIP3    H165324   4.049   5.162  15.929  0.5565  0.5645 -0.1276
14611TIP3    H265325   3.924   5.244  15.908 -0.4035 -0.8290  0.0662
14612TIP3   OH265326   1.378   3.227  11.864  0.0252  0.3089  0.4387
14612TIP3    H165327   1.469   3.225  11.835 -0.0278  0.0433  0.2910
14612TIP3    H265328   1.335   3.287  11.804 -0.1547 -0.4889 -0.2431
14613TIP3   OH265329   6.333   3.875  10.506  0.6011  0.3339  0.2190
14613TIP3    H165330   6.329   3.966  10.535  2.3093  0.2015  1.0297
14613TIP3    H265331   6.257   3.833  10.545  0.3110  1.2043  0.6094
14614TIP3   OH265332   6.322   0.609  16.435 -0.8139  0.0404 -0.0792
14614TIP3    H165333   6.358   0.688  16.474  0.5175 -0.7740  0.4363
14614TIP3    H265334   6.290   0.558  16.510  0.3003 -0.8229 -0.1526
14615TIP3   OH265335   1.432   5.806   5.005 -0.2364 -0.2544  0.4153
14615TIP3    H165336   1.512   5.850   4.977 -0.2366 -1.1916 -1.1818
14615TIP3    H265337   1.463   5.727   5.049 -0.2206 -1.2628 -1.2914
14616TIP3   OH265338   3.743   2.941   0.429  0.3719 -0.1177 -0.4997
14616TIP3    H165339   3.664   2.887   0.431 -0.6403  1.2213 -1.7790
14616TIP3    H265340   3.814   2.880   0.448 -0.5801 -2.1677 -2.9037
14617TIP3   OH265341   5.800   4.488  15.480  0.3447  0.0325 -0.6282
14617TIP3    H165342   5.730   4.501  15.544 -0.5400 -0.4673 -1.4544
14617TIP3    H265343   5.878   4.470  15.533 -0.0705  0.9342  0.3190
14618TIP3   OH265344   4.942   1.787   2.049 -0.2879  0.4972 -0.5150
14618TIP3    H165345   5.028   1.792   2.090 -0.4653  1.1024 -0.2038
14618TIP3    H265346   4.927   1.875   2.014 -0.6579  0.3158 -0.8244
14619TIP3   OH265347   5.067   5.400   0.344 -0.5206  0.3766 -0.5729
14619TIP3    H165348   5.053   5.357   0.260 -2.5495 -0.1177 -0.0399
14619TIP3    H265349   4.988   5.381   0.395 -0.6387  3.0117  0.4271
14620TIP3   OH265350   5.360   4.848   2.241 -0.3986  0.2060  0.1555
14620TIP3    H165351   5.440   4.894   2.268  0.0166  0.0496 -0.7532
14620TIP3    H265352   5.350   4.871   2.148  0.2915 -2.1671 -0.5772
14621TIP3   OH265353   1.431   5.308  12.275  0.3506 -0.2417 -0.6451
14621TIP3    H165354   1.451   5.332  12.185  0.7177  0.6706 -0.3323
14621TIP3    H265355   1.514   5.278  12.311  0.6412  1.0983 -0.1053
14622TIP3   OH265356   1.239   1.269  11.971  0.0456 -0.2887 -0.0558
14622TIP3    H165357   1.152   1.282  12.007  0.5948  1.1558  0.8659
14622TIP3    H265358   1.286   1.220  12.038  0.1950 -0.2761 -0.1498
14623TIP3   OH265359   1.444   0.054   2.530  0.1005  0.3606  0.5547
14623TIP3    H165360   1.399   0.033   2.448 -0.6274  0.1643  0.9899
14623TIP3    H265361   1.512   0.116   2.505  0.8468 -0.8159 -0.4195
14624TIP3   OH265362   5.505   4.586  13.277  0.2526 -0.2427 -0.1887
14624TIP3    H165363   5.506   4.558  13.185 -3.3781 -4.0467  0.5903
14624TIP3    H265364   5.544   4.513  13.324 -0.1902  0.5321  1.4404
14625TIP3   OH265365   3.880   2.948  12.620 -0.0484 -0.2449  0.3824
14625TIP3    H165366   3.915   2.952  12.531 -0.6997 -3.1559 -0.1002
14625TIP3    H265367   3.954   2.917  12.674  0.4903  1.9775  1.0282
14626TIP3   OH265368   0.015   5.474   2.945 -0.0862  0.0242  0.1324
14626TIP3    H165369   0.077   5.408   2.975  1.6371  1.8722  0.9347
14626TIP3    H265370   0.061   5.519   2.873 -0.3720  1.5232  0.8342
14627TIP3   OH265371   4.003   0.135  11.407 -0.2410  0.2541  0.2142
14627TIP3    H165372   4.062   0.063  11.428 -0.8382 -0.4534 -0.4699
14627TIP3    H265373   3.980   0.121  11.315 -0.8033  0.9996  0.2348
14628TIP3   OH265374   3.928   1.582  12.828 -0.2759  0.3654 -0.0094
14628TIP3    H165375   3.995   1.605  12.893 -0.9827  0.9573  0.5206
14628TIP3    H265376   3.976   1.580  12.745  0.2891  1.3483  0.2801
14629TIP3   OH265377   2.071   2.181  13.071  0.9111 -0.6745  0.0542
14629TIP3    H165378   2.075   2.230  13.153  1.6911  1.8396 -1.3785
14629TIP3    H265379   1.978   2.164  13.058  0.7956 -1.4322  1.5873
14630TIP3   OH265380   4.253   1.925  11.724  0.3533 -0.1355  0.0836
14630TIP3    H165381   4.169   1.904  11.763  1.2295 -0.3096  2.0097
14630TIP3    H265382   4.263   1.862  11.652 -0.7932 -0.6456  0.3509
14631TIP3   OH265383   1.365   2.410   0.859  0.0540  0.1705  0.3180
14631TIP3    H165384   1.409   2.494   0.843 -0.0337  0.4610  1.5217
14631TIP3    H265385   1.435   2.353   0.892  0.4975 -0.7905 -2.0497
14632TIP3   OH265386   6.641   6.390  11.945 -0.2668 -0.2110  0.5650
14632TIP3    H165387   6.702   6.381  12.019  0.3893  0.1370  0.0837
14632TIP3    H265388   6.668   6.322  11.884 -1.4575 -1.1648  1.0650
14633TIP3   OH265389   5.069   4.972  11.790 -0.4030 -0.2797 -0.1749
14633TIP3    H165390   5.118   4.960  11.871 -0.1679 -0.6202 -0.3652
14633TIP3    H265391   4.997   5.031  11.813 -0.9616 -1.2082  0.5305
14634TIP3   OH265392   6.499   4.203  16.072  0.0978  0.7228  0.4020
14634TIP3    H165393   6.513   4.116  16.034  2.9073  0.6424  1.4473
14634TIP3    H265394   6.500   4.188  16.167 -1.6708  1.6471  0.6124
14635TIP3   OH265395   1.810   4.149   1.638 -0.3300 -0.3087 -0.4694
14635TIP3    H165396   1.724   4.156   1.679  0.5202  1.0331  1.2110
14635TIP3    H265397   1.822   4.233   1.593  0.0051 -0.5681 -0.8634
14636TIP3   OH265398   6.105   1.102  11.416  0.2537  0.0735  0.0872
14636TIP3    H165399   6.091   1.056  11.333 -0.3292 -1.8387  1.1833
14636TIP3    H265400   6.125   1.192  11.391 -0.2711 -0.3734 -2.1070
14637TIP3   OH265401   0.589   1.568   0.085  0.5826 -0.5050 -0.4312
14637TIP3    H165402   0.500   1.603   0.089  1.0998  0.9404 -1.0730
14637TIP3    H265403   0.644   1.639   0.118  1.5423 -1.2751 -0.3326
14638TIP3   OH265404   5.118   6.123   2.971  0.5410 -0.1178 -0.0261
14638TIP3    H165405   5.033   6.146   2.932  2.1601  2.6097 -2.2884
14638TIP3    H265406   5.119   6.169   3.055 -1.0772 -2.1581  1.2090
14639TIP3   OH265407   0.284   4.551   3.205  1.2183  0.3707 -0.0211
14639TIP3    H165408   0.313   4.525   3.117  0.6608  0.1074 -0.1323
14639TIP3    H265409   0.331   4.493   3.264  0.0870 -0.8268 -0.2590
14640TIP3   OH265410   6.073   5.963   5.385  1.0293 -0.0554 -0.3559
14640TIP3    H165411   6.012   6.002   5.322  0.2030 -0.2514  0.3008
14640TIP3    H265412   6.152   6.017   5.379 -0.3331  2.3155  1.1019
14641TIP3   OH265413   1.985   5.708   3.724  0.4420 -0.2808  0.1799
14641TIP3    H165414   2.045   5.672   3.659  0.4083 -0.2388  0.1253
14641TIP3    H265415   2.034   5.708   3.806  0.1085 -1.3976  0.3955
14642TIP3   OH265416   6.192   3.792  15.834  0.4545  0.0006  0.0089
14642TIP3    H165417   6.115   3.819  15.784  0.6617  2.4771  0.8647
14642TIP3    H265418   6.215   3.706  15.799 -2.2939 -0.5177 -0.7081
14643TIP3   OH265419   3.257   1.733  14.870  0.5077 -0.5471  0.1321
14643TIP3    H165420   3.258   1.804  14.805  0.1775 -0.7296 -0.0752
14643TIP3    H265421   3.342   1.739  14.913  1.8163 -2.0434 -2.0640
14644TIP3   OH265422   0.241   1.997  16.343 -0.5303  0.0032  0.5768
14644TIP3    H165423   0.337   1.995  16.344 -0.5089  0.5733  0.2679
14644TIP3    H265424   0.219   2.082  16.382 -0.8438  0.7974 -1.2438
14645TIP3   OH265425   0.081   5.997  16.761  0.2845  0.1861  0.5739
14645TIP3    H165426   0.042   6.002  16.847  1.0867  1.9454  0.8967
14645TIP3    H265427   0.016   6.036  16.702 -0.2731 -1.0376  0.3524
14646TIP3   OH265428   0.826   3.497   2.246 -0.0481  0.4866 -0.6054
14646TIP3    H165429   0.853   3.585   2.273  0.5578  0.2331 -0.3802
14646TIP3    H265430   0.898   3.440   2.272 -0.5253 -0.1105 -0.5684
14647TIP3   OH265431   0.718   6.256   5.398 -0.3842  0.1954  0.1603
14647TIP3    H165432   0.698   6.350   5.397 -0.8631  0.0991 -1.3409
14647TIP3    H265433   0.638   6.215   5.429 -0.6255  0.1889 -0.4744
14648TIP3   OH265434   1.938   2.657   1.103 -0.6944  0.0173  0.0226
14648TIP3    H165435   2.007   2.627   1.044 -2.5022 -1.1161 -1.6457
14648TIP3    H265436   1.929   2.587   1.168 -0.9266 -0.3173 -0.3623
14649TIP3   OH265437   1.396   4.874   1.004  0.3266  0.0332 -0.1209
14649TIP3    H165438   1.326   4.867   1.070  1.6368  0.5304  1.3727
14649TIP3    H265439   1.361   4.827   0.928 -2.0244  1.0734  0.2155
14650TIP3   OH265440   1.670   0.679   1.440 -0.3287 -0.0388 -0.1285
14650TIP3    H165441   1.685   0.589   1.468 -2.3568  0.3680  2.7846
14650TIP3    H265442   1.686   0.731   1.519 -1.2593  1.8970 -1.1579
14651TIP3   OH265443   5.629   1.316   4.221  0.1703 -0.0626  0.2617
14651TIP3    H165444   5.713   1.340   4.261  0.4124  0.7709 -0.6995
14651TIP3    H265445   5.624   1.370   4.142 -1.1785 -0.2682  0.1903
14652TIP3   OH265446   0.802   2.227   5.075 -0.3181  0.6122  0.9239
14652TIP3    H165447   0.750   2.307   5.065  0.2636  1.0211  1.0963
14652TIP3    H265448   0.738   2.156   5.072 -0.6921  0.9749 -0.8127
14653TIP3   OH265449   5.420   4.576   2.268  0.1421  0.4238  0.1348
14653TIP3    H165450   5.487   4.552   2.331 -1.7111 -1.7463  1.3999
14653TIP3    H265451   5.431   4.670   2.256  2.5466  0.3484  1.2596
14654TIP3   OH265452   6.675   6.104   2.504  0.2539  0.3286 -0.0152
14654TIP3    H165453   6.625   6.164   2.561 -0.4657 -1.1292  0.9483
14654TIP3    H265454   6.728   6.162   2.449 -1.4365  1.8986 -0.0849
14655TIP3   OH265455   0.488   1.741   4.143  0.1556 -0.6499  0.0390
14655TIP3    H165456   0.491   1.731   4.238 -3.9497 -0.2307  0.4132
14655TIP3    H265457   0.502   1.834   4.127 -2.7253 -0.0074  0.7209
14656TIP3   OH265458   0.740   1.618  14.284  0.3298 -0.1441 -0.5434
14656TIP3    H165459   0.724   1.534  14.242  3.0812 -1.4328  0.7369
14656TIP3    H265460   0.746   1.599  14.377  0.7691  1.4894 -0.1929
14657TIP3   OH265461   0.366   3.256  12.377  0.0197 -0.2795  0.1701
14657TIP3    H165462   0.393   3.345  12.400  2.6961 -0.6979 -0.9952
14657TIP3    H265463   0.306   3.230  12.448  1.9382  1.1870  2.4796
14658TIP3   OH265464   3.781   2.837  15.587  0.1536 -0.4501  0.1708
14658TIP3    H165465   3.687   2.846  15.576  0.3008 -1.6068 -3.1290
14658TIP3    H265466   3.815   2.926  15.582 -0.6470 -0.1580 -0.1180
14659TIP3   OH265467   0.456   4.115   2.264 -1.0787  0.0413 -0.7399
14659TIP3    H165468   0.471   4.131   2.171  1.1474  1.8442 -0.1746
14659TIP3    H265469   0.411   4.193   2.295  2.1456  1.6065  0.4348
14660TIP3   OH265470   2.035   0.296   1.466  0.3993  0.5705  0.7987
14660TIP3    H165471   2.095   0.224   1.445 -0.7471 -1.3579  3.6287
14660TIP3    H265472   1.995   0.318   1.382  3.9992  1.0933 -0.9925
14661TIP3   OH265473   2.619   4.190   2.677 -0.3271  0.0573  0.1778
14661TIP3    H165474   2.528   4.158   2.676 -0.8909  1.4934  1.2351
14661TIP3    H265475   2.610   4.286   2.677  1.2283  0.2344 -0.6521
14662TIP3   OH265476   3.801   5.967  13.133  0.3144  0.4535 -0.7618
14662TIP3    H165477   3.765   5.921  13.209  1.1472 -0.1676 -0.7256
14662TIP3    H265478   3.885   6.001  13.164  0.7828 -0.0279 -1.4625
14663TIP3   OH265479   4.965   5.387   3.329  0.6843 -0.2569 -0.1972
14663TIP3    H165480   5.021   5.465   3.328  2.1431 -1.2251  0.9772
14663TIP3    H265481   4.888   5.412   3.279  2.1943  1.1103 -1.9668
14664TIP3   OH265482   5.462   4.221   4.760  0.2364 -0.0101  0.1736
14664TIP3    H165483   5.435   4.251   4.673  2.2152 -1.3132 -0.9496
14664TIP3    H265484   5.380   4.202   4.805 -0.8312  0.0542 -1.6419
14665TIP3   OH265485   3.082   6.234  17.098  0.2119  0.4946  0.9339
14665TIP3    H165486   3.018   6.210  17.030 -0.8559  0.4269  1.9277
14665TIP3    H265487   3.162   6.254  17.050 -0.7477  1.2483 -0.4187
14666TIP3   OH265488   4.861   1.083   4.709 -0.1866  0.4627 -0.6020
14666TIP3    H165489   4.928   1.014   4.713 -2.0518 -1.4175 -0.1413
14666TIP3    H265490   4.864   1.113   4.618  0.1312 -0.8030 -1.0346
14667TIP3   OH265491   5.341   6.555   1.021  0.1304  0.0534  0.7220
14667TIP3    H165492   5.389   6.504   0.955 -1.6498 -0.0791 -0.5402
14667TIP3    H265493   5.252   6.519   1.020 -0.1984  0.6637  2.5735
14668TIP3   OH265494   4.333   6.384   0.103  0.3696  0.0237  0.1513
14668TIP3    H165495   4.382   6.362   0.024 -1.0336  0.5240 -0.8991
14668TIP3    H265496   4.328   6.480   0.102 -0.0613  0.0106  0.5952
14669TIP3   OH265497   0.023   0.431  10.934 -0.0596  0.0439 -0.5959
14669TIP3    H165498   0.101   0.463  10.889  0.7364  1.8966  1.8313
14669TIP3    H265499  -0.050   0.478  10.894  0.4749  0.7022 -0.8103
14670TIP3   OH265500   6.510   4.792  15.052  0.0365 -0.0728 -0.2039
14670TIP3    H165501   6.574   4.725  15.026  0.9620  0.8039 -0.2382
14670TIP3    H265502   6.466   4.754  15.128  0.4194 -0.7984 -0.3333
14671TIP3   OH265503   2.807   0.500   1.889 -0.5604  0.2785  0.2312
14671TIP3    H165504   2.860   0.497   1.809 -0.9899  1.5883 -0.1204
14671TIP3    H265505   2.869   0.525   1.958  0.1268 -2.2521  0.6393
14672TIP3   OH265506   6.118   6.261   1.529  0.0205 -0.4774 -0.7389
14672TIP3    H165507   6.072   6.340   1.501  1.7712  0.6036 -0.7505
14672TIP3    H265508   6.098   6.196   1.462  0.2303  0.6080 -1.8861
14673TIP3   OH265509   6.400   0.830   4.246  0.2855  0.2862 -0.0116
14673TIP3    H165510   6.471   0.773   4.216 -0.0690 -0.3956  0.4159
14673TIP3    H265511   6.410   0.833   4.341 -1.2443 -1.1781  0.2311
14674TIP3   OH265512   4.565   0.844   5.105 -0.2061  0.1508 -0.0959
14674TIP3    H165513   4.604   0.779   5.164  0.3150  0.0423 -0.5569
14674TIP3    H265514   4.640   0.889   5.066 -0.5520  0.4209 -0.4530
14675TIP3   OH265515   2.630   4.480   3.223 -0.4619  0.3185 -0.1802
14675TIP3    H165516   2.665   4.480   3.312  1.2089  1.9811 -0.7693
14675TIP3    H265517   2.546   4.525   3.230 -0.6403 -0.1273  0.6426
14676TIP3   OH265518   3.490   1.265  10.907  0.1377 -0.2277 -0.0791
14676TIP3    H165519   3.518   1.215  10.831  1.0161  2.5478 -1.7225
14676TIP3    H265520   3.419   1.320  10.875 -1.2874 -0.8428  1.8399
14677TIP3   OH265521   5.411   0.825  17.037 -0.1577  0.0311  0.1731
14677TIP3    H165522   5.366   0.794  17.115 -1.0817  1.5386  0.2809
14677TIP3    H265523   5.351   0.807  16.965 -1.2120  2.4553  0.3704
14678TIP3   OH265524   1.932   2.144  13.984  0.2144  0.0672 -0.0869
14678TIP3    H165525   1.970   2.069  13.938  0.2935  0.1260 -0.1190
14678TIP3    H265526   1.840   2.144  13.960  0.1276 -0.2625  0.2416
14679TIP3   OH265527   6.303   3.518   6.439 -0.3118 -0.0397 -0.0816
14679TIP3    H165528   6.326   3.452   6.504  0.1555  1.6088  1.5097
14679TIP3    H265529   6.235   3.477   6.385 -2.4667 -0.6756  2.9097
14680TIP3   OH265530   3.613   0.372  17.097  0.5583 -0.3588  0.6167
14680TIP3    H165531   3.656   0.287  17.105  1.0853  0.0421  2.8199
14680TIP3    H265532   3.681   0.431  17.066  0.0438 -0.8105 -1.4741
14681TIP3   OH265533   1.057   5.634   4.100 -0.0150 -0.4888 -0.1117
14681TIP3    H165534   1.041   5.576   4.174  0.0962 -0.6157 -0.1846
14681TIP3    H265535   0.971   5.650   4.063 -0.1424  0.0940  0.4250
14682TIP3   OH265536   4.099   4.769  16.799  0.0346 -0.5411  0.5143
14682TIP3    H165537   4.115   4.689  16.849  0.1489 -1.1147 -0.4091
14682TIP3    H265538   4.186   4.802  16.777 -0.0165 -0.4295  0.4780
14683TIP3   OH265539   0.969   4.591   4.576  0.2630  0.1587  0.5264
14683TIP3    H165540   0.909   4.533   4.623  1.3032 -2.0136 -0.6728
14683TIP3    H265541   0.924   4.612   4.495  1.0179 -1.4194 -0.3448
14684TIP3   OH265542   2.487   0.496  13.545  0.6997 -0.0324 -0.1536
14684TIP3    H165543   2.444   0.434  13.486 -0.0516 -0.3676  0.7059
14684TIP3    H265544   2.568   0.453  13.570  0.2654 -0.6161  0.2992
14685TIP3   OH265545   4.828   3.643  13.858 -0.0583 -0.2084  0.2880
14685TIP3    H165546   4.866   3.730  13.872  2.0159 -0.6494 -1.9251
14685TIP3    H265547   4.740   3.660  13.826  0.8351  1.1977 -1.5924
14686TIP3   OH265548   1.664   0.661  12.289  0.4270  0.6021 -0.5464
14686TIP3    H165549   1.645   0.567  12.286 -3.0149  1.1475 -0.1852
14686TIP3    H265550   1.748   0.670  12.244  1.1078 -2.6570 -0.2040
14687TIP3   OH265551   4.814   6.723   1.507  0.0784 -0.1566 -0.8313
14687TIP3    H165552   4.764   6.678   1.439  2.3178 -2.2985 -1.1777
14687TIP3    H265553   4.820   6.660   1.579  0.7635  0.7363 -0.0782
14688TIP3   OH265554   1.181   0.850  14.831  0.6233  0.1489  0.5283
14688TIP3    H165555   1.143   0.937  14.822  0.9061  0.1408 -1.2025
14688TIP3    H265556   1.108   0.790  14.817 -0.0378  0.0079  3.8675
14689TIP3   OH265557   4.126   2.371  12.403  0.1187  0.8306 -0.8794
14689TIP3    H165558   4.135   2.390  12.310  2.3186  0.5738 -0.7616
14689TIP3    H265559   4.215   2.371  12.437 -0.3622 -1.7358  0.7124
14690TIP3   OH265560   0.491   2.852   2.833  0.2101 -0.0517 -0.1162
14690TIP3    H165561   0.445   2.807   2.762 -3.7991 -0.0717  2.1446
14690TIP3    H265562   0.554   2.788   2.866  2.1239 -0.0570 -3.3956
14691TIP3   OH265563   4.926   5.777   5.424  0.3331 -0.1179  0.6162
14691TIP3    H165564   4.985   5.780   5.349 -0.3198 -2.1702 -0.0220
14691TIP3    H265565   4.974   5.727   5.490  1.2747  2.4110  1.9940
14692TIP3   OH265566   4.786   2.373  10.587 -0.5186 -0.3493 -0.1733
14692TIP3    H165567   4.707   2.342  10.631 -0.8202  1.4938  0.6932
14692TIP3    H265568   4.858   2.339  10.640 -0.7811 -0.7518 -0.0685
14693TIP3   OH265569   2.065   2.025  15.383  0.0134  0.1002  0.2316
14693TIP3    H165570   2.065   2.079  15.462 -0.2869 -1.8030  1.6230
14693TIP3    H265571   2.072   2.087  15.311  0.1653  1.9285  1.7409
14694TIP3   OH265572   3.601   0.669  13.244 -0.0091 -0.4933  0.4398
14694TIP3    H165573   3.547   0.596  13.276  0.5614 -0.3729  1.7483
14694TIP3    H265574   3.557   0.747  13.276  0.6481 -0.3754  1.0924
14695TIP3   OH265575   2.092   3.546   5.859 -0.3532  0.4490  0.8282
14695TIP3    H165576   2.052   3.632   5.856 -0.7309  0.2843  1.0686
14695TIP3    H265577   2.161   3.549   5.793 -0.5751  0.8271  0.6126
14696TIP3   OH265578   2.280   6.271  16.262  0.3359  0.4844  0.3883
14696TIP3    H165579   2.274   6.362  16.235 -0.6644  0.2202 -0.3391
14696TIP3    H265580   2.296   6.275  16.356  0.2955  1.4122  0.3652
14697TIP3   OH265581   6.473   1.140   0.970  0.4421 -0.3901 -0.6362
14697TIP3    H165582   6.529   1.187   0.907  0.3515 -0.3282 -0.6713
14697TIP3    H265583   6.401   1.201   0.987  0.9606 -0.0119  0.2712
14698TIP3   OH265584   6.066   2.628  14.935  0.2598  0.1734  0.0610
14698TIP3    H165585   5.991   2.591  14.983  0.0213 -0.0895 -0.5049
14698TIP3    H265586   6.139   2.571  14.959 -0.0530 -0.5210 -0.5971
14699TIP3   OH265587   4.680   3.484  14.340  0.0577  0.0490  0.2665
14699TIP3    H165588   4.634   3.456  14.419  0.5862 -0.9703  0.2391
14699TIP3    H265589   4.616   3.536  14.292 -0.6734 -0.3471  0.7911
14700TIP3   OH265590   0.577   3.107  12.860  0.2649 -0.0963  0.4971
14700TIP3    H165591   0.537   3.154  12.933  3.3656  0.2250  2.1657
14700TIP3    H265592   0.616   3.175  12.806 -0.0960 -0.4565 -0.2267
14701TIP3   OH265593   0.472   3.005   5.412 -0.3714  0.4282 -0.0726
14701TIP3    H165594   0.540   2.939   5.398 -1.3613 -0.6178 -0.0681
14701TIP3    H265595   0.520   3.088   5.419  0.9666 -0.3863  0.7892
14702TIP3   OH265596   3.236   3.276  13.759  0.0054  0.1872 -0.2263
14702TIP3    H165597   3.283   3.341  13.708 -0.1415 -0.0316 -0.6468
14702TIP3    H265598   3.175   3.237  13.697 -1.8188  1.5103  0.6602
14703TIP3   OH265599   4.283   0.622   1.070 -0.8764  0.1726  0.4335
14703TIP3    H165600   4.294   0.530   1.094 -0.3209 -0.4943 -2.0798
14703TIP3    H265601   4.314   0.670   1.146  2.3312 -1.7280  0.5315
14704TIP3   OH265602   6.268   4.386   5.231 -0.6986 -0.0956 -0.2719
14704TIP3    H165603   6.324   4.462   5.212 -1.6112  0.0176 -2.8802
14704TIP3    H265604   6.190   4.424   5.272 -0.8003  0.2806 -0.8111
14705TIP3   OH265605   4.200   5.738  16.501 -0.5926 -0.0638  0.3476
14705TIP3    H165606   4.204   5.642  16.498 -1.1178 -0.1174  1.0087
14705TIP3    H265607   4.107   5.759  16.492 -0.2652  0.5379 -2.5255
14706TIP3   OH265608   4.324   0.700   5.333 -0.1050  0.2280 -0.0760
14706TIP3    H165609   4.281   0.684   5.249 -2.0662 -0.8596  1.0740
14706TIP3    H265610   4.352   0.792   5.328 -0.8689  0.4118 -1.6162
14707TIP3   OH265611   2.625   5.105  16.021 -0.4096  0.2080 -0.2531
14707TIP3    H165612   2.611   5.018  15.984  0.4726 -1.2829  2.6058
14707TIP3    H265613   2.714   5.128  15.996  0.0663 -0.6475  0.5837
14708TIP3   OH265614   4.172   4.129   5.344 -0.0437 -0.0422 -0.1058
14708TIP3    H165615   4.246   4.184   5.369  1.0836 -0.8851 -1.4002
14708TIP3    H265616   4.101   4.157   5.401  0.7470  2.0553 -0.0611
14709TIP3   OH265617   6.807   2.282   0.883 -0.4587  0.1928  0.1574
14709TIP3    H165618   6.792   2.290   0.788  1.5932 -0.7767 -0.2952
14709TIP3    H265619   6.832   2.370   0.910  1.5265 -0.0301 -0.7565
14710TIP3   OH265620   5.318   3.064   1.517  0.1059 -0.2837  0.2950
14710TIP3    H165621   5.337   3.137   1.577  0.9263  0.2670 -0.6019
14710TIP3    H265622   5.238   3.091   1.473  0.7290  0.3924 -0.4699
14711TIP3   OH265623   6.292   2.542  12.888  0.7002 -0.3260 -0.9652
14711TIP3    H165624   6.234   2.531  12.813  1.1592 -1.7124 -1.1416
14711TIP3    H265625   6.302   2.454  12.924  0.8259  0.2481  0.4824
14712TIP3   OH265626   1.890   2.371  11.039 -0.1920  0.2865 -0.2816
14712TIP3    H165627   1.812   2.317  11.047 -0.5625  0.3733 -2.5231
14712TIP3    H265628   1.959   2.320  11.083 -0.8775 -1.2577 -0.9133
14713TIP3   OH265629   0.528   6.635   0.812  0.2658 -0.4003 -0.0975
14713TIP3    H165630   0.484   6.719   0.824 -0.3077 -0.7855  0.5911
14713TIP3    H265631   0.517   6.615   0.719  1.8441  1.0513 -0.6543
14714TIP3   OH265632   4.169   6.633  12.002  0.2002 -1.0302 -0.2128
14714TIP3    H165633   4.189   6.682  11.922  0.0767 -1.0906 -0.2805
14714TIP3    H265634   4.121   6.695  12.057  1.1127 -0.6796  0.2135
14715TIP3   OH265635   0.928   0.667   2.494 -0.1643 -0.0594  0.4758
14715TIP3    H165636   0.990   0.602   2.460  0.3211 -0.2550  1.7130
14715TIP3    H265637   0.969   0.701   2.573 -0.7864  1.1877  0.2855
14716TIP3   OH265638   5.199   1.021  12.729  0.5902  0.4234 -0.4116
14716TIP3    H165639   5.126   0.963  12.751  0.4910  0.7514  0.1669
14716TIP3    H265640   5.166   1.075  12.657 -0.4082  1.7699  0.9740
14717TIP3   OH265641   4.117   0.954  11.545  0.2594 -0.1482 -0.2021
14717TIP3    H165642   4.052   0.997  11.600  0.7919  1.5801 -0.8758
14717TIP3    H265643   4.154   0.885  11.601 -0.4797  0.3743  0.9652
14718TIP3   OH265644   4.572   5.919  14.036  0.3004 -0.4849 -0.0398
14718TIP3    H165645   4.535   5.831  14.026  1.5403 -0.8707 -1.7434
14718TIP3    H265646   4.605   5.940  13.949  1.0824  1.1945  0.6385
14719TIP3   OH265647   0.419   4.409   1.787  0.3884  0.4087 -0.1297
14719TIP3    H165648   0.360   4.384   1.717 -0.3399  0.5444  0.4249
14719TIP3    H265649   0.487   4.461   1.744  1.2977 -1.5103 -1.1149
14720TIP3   OH265650   6.385   4.917  14.824  0.0293  0.2093 -0.1827
14720TIP3    H165651   6.411   4.860  14.896 -0.9538 -0.3579 -0.2603
14720TIP3    H265652   6.326   4.980  14.864  1.1482  1.2302 -0.0897
14721TIP3   OH265653   2.766   5.965   0.293 -0.4936 -0.7432  0.2837
14721TIP3    H165654   2.843   6.015   0.267 -0.9829  0.0019  0.2243
14721TIP3    H265655   2.723   6.019   0.359 -1.5646 -0.5954 -0.4867
14722TIP3   OH265656   2.764   4.720  13.825  0.6751 -0.7614  0.2836
14722TIP3    H165657   2.692   4.781  13.808  1.1800  0.1627  1.3454
14722TIP3    H265658   2.814   4.761  13.895  1.8174 -1.7531  0.0777
14723TIP3   OH265659   3.060   1.569  11.954 -0.0346  0.1603  0.8093
14723TIP3    H165660   3.053   1.657  11.993  1.4817  0.9537 -0.6046
14723TIP3    H265661   3.153   1.548  11.957 -0.1128 -0.5501 -0.6415
14724TIP3   OH265662   6.421   1.474   3.269 -0.3600 -0.6077  0.0854
14724TIP3    H165663   6.436   1.444   3.179 -0.8731  1.0999 -0.6081
14724TIP3    H265664   6.327   1.469   3.281 -0.1573 -2.6744  1.2545
14725TIP3   OH265665   6.724   2.450  14.400  0.2847 -0.2316 -0.4745
14725TIP3    H165666   6.818   2.434  14.409  0.3125 -0.0300 -0.3904
14725TIP3    H265667   6.718   2.525  14.340  0.2343  0.6318  0.5861
14726TIP3   OH265668   1.302   5.777   0.333 -0.8181  0.1366 -0.0480
14726TIP3    H165669   1.253   5.825   0.266 -0.7904  0.6485  0.2869
14726TIP3    H265670   1.355   5.714   0.284 -0.1157  1.1094 -0.5863
14727TIP3   OH265671   4.557   1.364   3.030  0.0095 -0.1856  0.2208
14727TIP3    H165672   4.461   1.369   3.037 -0.0554 -1.4745  0.5578
14727TIP3    H265673   4.584   1.320   3.110  0.7114 -1.4218 -0.6712
14728TIP3   OH265674   1.358   3.204  11.376  0.0757 -0.7084 -0.2828
14728TIP3    H165675   1.423   3.211  11.306  1.3535  0.9214  1.0001
14728TIP3    H265676   1.370   3.115  11.410  1.0172 -0.7242 -0.6267
14729TIP3   OH265677   3.844   3.863  14.181  0.2701 -0.3388  0.0487
14729TIP3    H165678   3.787   3.817  14.243  1.3234 -2.5803 -0.5147
14729TIP3    H265679   3.786   3.891  14.111 -0.3073 -1.8139 -0.0953
14730TIP3   OH265680   3.575   3.513   0.852  0.2391  0.5989 -0.0915
14730TIP3    H165681   3.580   3.524   0.757 -0.0107 -0.8662 -0.2863
14730TIP3    H265682   3.611   3.427   0.869 -1.6129 -0.0395  0.9104
14731TIP3   OH265683   5.390   3.242  12.485 -0.7788  0.4757 -0.5615
14731TIP3    H165684   5.369   3.290  12.566 -0.5599 -0.4822  0.0812
14731TIP3    H265685   5.446   3.301  12.435 -1.3554  1.2945 -0.2606
14732TIP3   OH265686   1.529   0.714   4.001 -0.1335 -0.1397  0.1231
14732TIP3    H165687   1.564   0.751   4.082  0.0773 -0.8162  0.3440
14732TIP3    H265688   1.489   0.789   3.956  1.6253  0.6875 -0.1549
14733TIP3   OH265689   0.812   2.809   6.145 -0.1327  0.1863  0.3320
14733TIP3    H165690   0.852   2.884   6.101 -0.9670 -0.4744 -1.6681
14733TIP3    H265691   0.886   2.751   6.164  0.6611  1.8639  2.8063
14734TIP3   OH265692   0.225   3.525  13.039 -0.0792  0.1348  0.1907
14734TIP3    H165693   0.260   3.600  13.088  0.2441  0.9529 -1.2310
14734TIP3    H265694   0.285   3.515  12.965 -2.4852  1.2853 -2.0937
14735TIP3   OH265695   3.444   0.555  16.051  0.2845 -0.1085  0.5085
14735TIP3    H165696   3.439   0.532  15.958  2.0692  0.1369  0.3203
14735TIP3    H265697   3.437   0.650  16.053  0.8676 -0.0665  0.5675
14736TIP3   OH265698   4.554   0.531  16.745 -0.1113  0.1978 -0.0307
14736TIP3    H165699   4.588   0.517  16.656  0.6461 -1.9754  0.5541
14736TIP3    H265700   4.527   0.445  16.775 -1.9266  1.1560  1.2740
14737TIP3   OH265701   0.653   3.271  15.437  0.0503 -0.5214  0.3526
14737TIP3    H165702   0.604   3.347  15.469  0.5354 -0.8149  1.8940
14737TIP3    H265703   0.745   3.299  15.439  0.1225 -0.6929 -0.4132
14738TIP3   OH265704   4.367   1.603   4.234 -0.3604 -0.1847 -0.2672
14738TIP3    H165705   4.359   1.631   4.326 -1.6857  0.0883 -0.4485
14738TIP3    H265706   4.448   1.645   4.203 -0.2747  0.2934  0.5711
14739TIP3   OH265707   2.352   4.965  15.780 -0.0691  0.4624 -0.3926
14739TIP3    H165708   2.394   5.051  15.779  1.0895 -0.0958 -0.8376
14739TIP3    H265709   2.398   4.915  15.713 -1.5163 -0.1526 -0.9723
14740TIP3   OH265710   1.582   5.937   1.603 -0.1542 -0.1059  0.0787
14740TIP3    H165711   1.533   5.993   1.664 -1.4015  0.6579 -1.5458
14740TIP3    H265712   1.631   5.999   1.549  1.7908 -0.8170  0.9377
14741TIP3   OH265713   4.570   2.569   0.054 -0.0565  0.1859  0.1657
14741TIP3    H165714   4.490   2.543   0.100  0.4620 -0.3450  0.8108
14741TIP3    H265715   4.634   2.501   0.079 -0.1107 -0.9321 -2.4541
14742TIP3   OH265716   1.016   4.429  14.067 -0.3132  0.1555  0.5606
14742TIP3    H165717   1.021   4.407  13.974 -1.6557  0.4766  0.3958
14742TIP3    H265718   1.082   4.497  14.079  1.7786 -1.7179  0.4483
14743TIP3   OH265719   2.659   1.262  14.592 -0.1154  0.0541 -0.1011
14743TIP3    H165720   2.719   1.281  14.664  1.9274 -0.6612 -1.5282
14743TIP3    H265721   2.589   1.212  14.632 -0.1089  1.4090  1.7345
14744TIP3   OH265722   0.161   1.106  16.956 -0.0797 -0.1741  0.1005
14744TIP3    H165723   0.213   1.185  16.971 -0.6715  0.7708 -2.2896
14744TIP3    H265724   0.226   1.038  16.941  0.4466  0.2217  0.5191
14745TIP3   OH265725   5.397   5.086  13.201 -0.2272 -0.1360 -0.5433
14745TIP3    H165726   5.416   4.994  13.223 -0.6116 -0.2373 -0.6183
14745TIP3    H265727   5.314   5.104  13.246  0.3992  0.5128  0.3854
14746TIP3   OH265728   5.172   5.059   5.382  0.0124  0.5272  0.6623
14746TIP3    H165729   5.129   5.005   5.448 -0.8117  0.7855  0.3573
14746TIP3    H265730   5.117   5.048   5.304 -0.2314  1.8880  0.6262
14747TIP3   OH265731   3.230   6.254   5.693  0.7114 -0.4699  0.3220
14747TIP3    H165732   3.294   6.221   5.629  2.6514  0.6726  1.5613
14747TIP3    H265733   3.256   6.214   5.776 -1.2269 -1.2370  0.6230
14748TIP3   OH265734   6.815   6.258   1.119 -0.4877 -0.1021  0.5511
14748TIP3    H165735   6.833   6.165   1.127 -0.7442 -0.3894 -1.6974
14748TIP3    H265736   6.802   6.288   1.210  0.5589 -2.0199  1.3812
14749TIP3   OH265737   3.880   0.442   4.410  0.6416  0.0172  0.1730
14749TIP3    H165738   3.952   0.434   4.473 -1.6702 -1.5934  2.8136
14749TIP3    H265739   3.872   0.355   4.372 -0.5041 -0.0769  0.6173
14750TIP3   OH265740   2.829   6.182  12.956 -0.0344 -0.0767  0.5753
14750TIP3    H165741   2.744   6.138  12.948 -0.4806  1.0238 -1.5599
14750TIP3    H265742   2.892   6.118  12.926 -0.5431  0.1952 -1.2393
14751TIP3   OH265743   0.020   0.049   2.231 -0.4723 -0.4890 -0.0255
14751TIP3    H165744   0.008   0.066   2.138 -1.6819  0.3143  0.2557
14751TIP3    H265745   0.105   0.087   2.252 -0.1023 -0.8562 -0.8301
14752TIP3   OH265746   1.718   3.509   0.428 -0.7857  0.3307 -0.2196
14752TIP3    H165747   1.736   3.441   0.362 -1.0698 -0.5859  0.6119
14752TIP3    H265748   1.670   3.576   0.381 -0.4736 -0.0397 -1.0813
14753TIP3   OH265749   5.684   6.677  10.972  0.4050  0.1557  0.2984
14753TIP3    H165750   5.770   6.644  10.945  0.6825  1.9786 -1.2357
14753TIP3    H265751   5.639   6.697  10.890 -1.3213 -0.2877  1.0905
14754TIP3   OH265752   4.168   2.892  13.520 -0.2767  0.0188 -0.0781
14754TIP3    H165753   4.251   2.901  13.474 -1.0637  2.4852 -1.1549
14754TIP3    H265754   4.121   2.825  13.470  0.2816  0.0519 -0.6660
14755TIP3   OH265755   0.095   5.140  11.452  0.9682  0.4117  0.0966
14755TIP3    H165756   0.127   5.077  11.387  0.9012  0.0778  0.3889
14755TIP3    H265757   0.154   5.129  11.527 -0.4556 -0.9827  1.0794
14756TIP3   OH265758   1.853   3.660  13.692 -0.2583 -0.4942 -0.3248
14756TIP3    H165759   1.823   3.615  13.771 -1.5133 -0.0242 -0.5083
14756TIP3    H265760   1.773   3.691  13.650  0.2414 -1.9012 -2.5168
14757TIP3   OH265761   2.268   4.308   2.469 -0.9452 -1.1249  0.2513
14757TIP3    H165762   2.243   4.301   2.377 -1.6667 -0.5825  0.4003
14757TIP3    H265763   2.189   4.283   2.517 -1.2251  0.5647  0.7293
14758TIP3   OH265764   2.652   1.656   5.451 -0.3823 -0.2930  0.1557
14758TIP3    H165765   2.569   1.655   5.403 -0.7354 -1.3518  0.7599
14758TIP3    H265766   2.626   1.657   5.544  0.2840 -0.2454  0.3449
14759TIP3   OH265767   6.569   2.418  15.876 -0.2676  0.1675  0.1031
14759TIP3    H165768   6.498   2.354  15.880  0.2415 -0.4902 -0.7509
14759TIP3    H265769   6.649   2.365  15.881  0.1738  0.9426  1.6240
14760TIP3   OH265770   2.448   3.350  10.609 -0.1462  0.1329 -0.0601
14760TIP3    H165771   2.479   3.263  10.584  1.2269  0.9372 -1.3638
14760TIP3    H265772   2.362   3.358  10.568 -0.7250 -0.9531  0.9019
14761TIP3   OH265773   6.681   2.570  15.673 -0.2040  0.0344  0.4704
14761TIP3    H165774   6.646   2.504  15.733  0.0928 -1.2429 -0.7138
14761TIP3    H265775   6.604   2.610  15.634 -0.3857 -0.5983  0.1668
14762TIP3   OH265776   4.282   3.611   4.323 -0.4425 -0.7216  0.7062
14762TIP3    H165777   4.212   3.585   4.382 -0.2907  0.1158  1.2678
14762TIP3    H265778   4.331   3.530   4.307 -1.3439 -1.2463  0.5504
14763TIP3   OH265779   4.637   4.276  17.063  0.5867  0.0578 -0.2075
14763TIP3    H165780   4.711   4.220  17.090  0.6571 -0.5678 -1.5757
14763TIP3    H265781   4.573   4.214  17.027  0.3308  0.7945 -1.0338
14764TIP3   OH265782   1.741   0.613  16.715 -0.0384 -0.3297  0.8844
14764TIP3    H165783   1.743   0.660  16.632 -1.8228 -1.3938  0.1879
14764TIP3    H265784   1.650   0.619  16.743  0.6878  0.7847  3.2790
14765TIP3   OH265785   4.163   1.720   1.869 -0.3439 -0.0322 -0.0485
14765TIP3    H165786   4.213   1.800   1.884 -2.0859  1.3090 -0.9886
14765TIP3    H265787   4.072   1.750   1.863 -1.0509 -2.1013 -0.3449
14766TIP3   OH265788   4.189   0.727   2.093  0.4912  0.1505 -0.4884
14766TIP3    H165789   4.100   0.736   2.127  1.0380  0.7304  0.8474
14766TIP3    H265790   4.213   0.815   2.063  0.4857 -0.0858 -1.2079
14767TIP3   OH265791   4.205   5.083   1.441  0.8315  0.1824 -0.3271
14767TIP3    H165792   4.240   5.054   1.357  0.1940  0.1928 -0.6028
14767TIP3    H265793   4.240   5.020   1.504  1.5401  0.3428 -0.5594
14768TIP3   OH265794   5.816   1.623  12.982  0.5546  0.7948 -0.2060
14768TIP3    H165795   5.763   1.569  13.041  0.5407  1.1269  0.0899
14768TIP3    H265796   5.761   1.699  12.963  1.4637  1.8806  1.2895
14769TIP3   OH265797   5.121   5.879   0.978 -0.1307 -0.2668 -0.0088
14769TIP3    H165798   5.106   5.793   1.017 -0.5832 -0.9635 -1.6231
14769TIP3    H265799   5.066   5.938   1.029  1.1005 -0.6669  1.9170
14770TIP3   OH265800   5.933   6.007  13.809 -0.4352 -0.1268  0.0117
14770TIP3    H165801   5.858   5.957  13.842 -1.2695 -0.7822 -2.6564
14770TIP3    H265802   5.897   6.062  13.740  0.9986  2.1284  0.9416
14771TIP3   OH265803   5.030   1.870  17.236 -0.4896  0.2396 -0.1347
14771TIP3    H165804   5.044   1.939  17.170 -0.9296 -0.8261 -1.3925
14771TIP3    H265805   4.935   1.865  17.245 -0.4178  0.9071  1.1985
14772TIP3   OH265806   0.730   3.449   3.631 -0.3499  0.2435  0.0422
14772TIP3    H165807   0.744   3.368   3.680  1.5582 -0.3875 -1.4438
14772TIP3    H265808   0.681   3.422   3.553  1.4070  0.2150 -1.1181
14773TIP3   OH265809   1.741   5.079   3.618 -0.2077  0.3447  0.2005
14773TIP3    H165810   1.773   5.086   3.528 -2.2276 -1.3695 -0.7281
14773TIP3    H265811   1.801   5.017   3.659  1.3192  1.8695  0.4019
14774TIP3   OH265812   2.870   1.866   0.091 -0.9849  0.3711 -0.1566
14774TIP3    H165813   2.911   1.952   0.095 -0.1491  0.0060 -0.6072
14774TIP3    H265814   2.943   1.804   0.089 -1.5722 -0.4321  1.5114
14775TIP3   OH265815   3.322   0.509  16.956 -0.3182  0.4401  0.0762
14775TIP3    H165816   3.312   0.511  17.051  1.6190  1.7889  0.3047
14775TIP3    H265817   3.352   0.421  16.937  2.3647  1.0205  1.1542
14776TIP3   OH265818   5.533   6.829  11.500 -0.1269 -0.0271 -0.4656
14776TIP3    H165819   5.591   6.833  11.424 -0.8661 -1.3112 -1.1325
14776TIP3    H265820   5.480   6.908  11.493 -0.4812 -0.3403 -1.5488
14777TIP3   OH265821   0.488   6.029   0.770 -0.0538  0.8150 -0.6207
14777TIP3    H165822   0.434   5.980   0.708 -0.4822 -0.5014  0.7489
14777TIP3    H265823   0.468   5.992   0.856  2.5399  0.7104  0.0355
14778TIP3   OH265824   4.784   6.194   3.397  0.8016 -0.6528 -0.7904
14778TIP3    H165825   4.700   6.148   3.393  0.1411  0.5989 -3.1453
14778TIP3    H265826   4.782   6.242   3.480  0.0244 -2.0751  0.0495
14779TIP3   OH265827   4.635   1.666   2.487  0.1477 -0.3118 -0.6082
14779TIP3    H165828   4.557   1.615   2.464 -0.5370  0.2557  0.3922
14779TIP3    H265829   4.695   1.652   2.414  0.3407 -3.2656 -0.0131
14780TIP3   OH265830   5.289   0.143   5.130  0.1261 -0.1744  0.2321
14780TIP3    H165831   5.196   0.120   5.133  0.0814  0.0320  0.4548
14780TIP3    H265832   5.325   0.113   5.213  0.2518 -0.2136  0.1653
14781TIP3   OH265833   3.344   2.255  12.826  0.4041  0.2430 -0.1999
14781TIP3    H165834   3.383   2.189  12.768 -0.2460 -0.7168  0.4175
14781TIP3    H265835   3.304   2.204  12.896  1.2647  1.3832  1.1669
14782TIP3   OH265836   5.761   6.412  14.250  0.2730 -0.3912  0.3108
14782TIP3    H165837   5.828   6.395  14.184 -0.4403 -0.4061 -0.4222
14782TIP3    H265838   5.741   6.326  14.287  2.4377 -0.1262  2.3500
14783TIP3   OH265839   4.309   1.731  15.672  0.1423  0.2250  0.6314
14783TIP3    H165840   4.387   1.678  15.655 -0.3916 -0.5104  0.4387
14783TIP3    H265841   4.236   1.669  15.667 -0.3835  0.7475  1.6499
14784TIP3   OH265842   1.829   6.424   3.860  0.1531  0.2067  0.2275
14784TIP3    H165843   1.775   6.345   3.859 -0.0426  0.3387  0.4375
14784TIP3    H265844   1.828   6.454   3.769 -2.0676  1.5187  0.6068
14785TIP3   OH265845   3.939   3.446  13.961  0.2499 -0.0269  0.1177
14785TIP3    H165846   3.969   3.359  13.936 -1.7301 -0.4041 -1.1784
14785TIP3    H265847   3.931   3.494  13.879 -0.3382  0.8124  0.6424
14786TIP3   OH265848   3.895   1.405  11.027  0.6295  0.0792 -0.2164
14786TIP3    H165849   3.962   1.452  11.078 -0.0204 -0.4778  1.2040
14786TIP3    H265850   3.819   1.400  11.086  0.0206 -1.0324 -1.0577
14787TIP3   OH265851   3.467   3.373   1.174  0.0533  0.3611 -0.1059
14787TIP3    H165852   3.457   3.444   1.237 -0.3627  2.8820 -2.8235
14787TIP3    H265853   3.417   3.401   1.098 -0.5161 -3.1039 -1.2107
14788TIP3   OH265854   0.580   1.955  11.891  0.1423  0.2501  0.0367
14788TIP3    H165855   0.508   2.012  11.918  0.5626  1.1946 -0.7978
14788TIP3    H265856   0.544   1.866  11.899 -0.4860  0.5946  1.4467
14789TIP3   OH265857   0.597   1.487   4.099 -0.1890  0.0375 -0.2846
14789TIP3    H165858   0.526   1.547   4.121  0.9908  0.9587  1.1934
14789TIP3    H265859   0.660   1.541   4.052  1.3842  0.3371  1.9836
14790TIP3   OH265860   1.160   1.739  10.732 -0.1010 -0.5823  0.6010
14790TIP3    H165861   1.193   1.804  10.794 -0.9326 -1.2697  1.7962
14790TIP3    H265862   1.082   1.779  10.694 -0.8189 -0.9857  1.5997
14791TIP3   OH265863   1.045   2.306  11.248  0.1108  0.2159 -0.0415
14791TIP3    H165864   1.035   2.212  11.266  0.7976  0.1283 -0.1101
14791TIP3    H265865   0.957   2.342  11.261 -0.1158 -0.4035  0.1764
14792TIP3   OH265866   6.313   4.105  12.074 -0.1436  0.0773 -0.1736
14792TIP3    H165867   6.284   4.045  12.005 -0.4971  0.7204 -0.5923
14792TIP3    H265868   6.364   4.172  12.027 -0.5568  0.6322  0.1608
14793TIP3   OH265869   4.758   1.692  11.508 -0.5895  0.8666 -0.3774
14793TIP3    H165870   4.838   1.652  11.541 -0.6154  1.9179  1.1047
14793TIP3    H265871   4.785   1.777  11.475 -1.3076  2.2577  2.2777
14794TIP3   OH265872   1.908   1.467   2.583  0.1411 -0.3048 -0.3405
14794TIP3    H165873   1.955   1.475   2.500  0.4991  0.8988 -0.0383
14794TIP3    H265874   1.957   1.402   2.633  1.0198  0.3258 -0.3588
14795TIP3   OH265875   3.622   5.541  12.313 -0.3467 -0.2795  0.3400
14795TIP3    H165876   3.712   5.508  12.312 -0.3963 -0.4190  0.5352
14795TIP3    H265877   3.615   5.593  12.233  0.7592  2.0121  1.6322
14796TIP3   OH265878   5.468   5.316   5.737 -0.6070  0.3814  0.4112
14796TIP3    H165879   5.443   5.281   5.652  0.4210 -0.1347  0.3060
14796TIP3    H265880   5.436   5.406   5.737 -0.4153  0.4550 -0.6135
14797TIP3   OH265881   1.879   4.150   1.171 -0.1996 -0.2384 -0.0732
14797TIP3    H165882   1.947   4.169   1.106  1.4224 -1.2526  1.2224
14797TIP3    H265883   1.814   4.099   1.124  0.2904  0.1316 -1.1915
14798TIP3   OH265884   4.784   3.265   2.449 -0.0630 -0.5222  0.0809
14798TIP3    H165885   4.868   3.229   2.421 -0.7626 -0.9302 -1.6832
14798TIP3    H265886   4.719   3.213   2.400 -1.2238  1.4657 -0.6123
14799TIP3   OH265887   4.554   2.847  14.342 -0.5294 -0.2920  0.6053
14799TIP3    H165888   4.460   2.850  14.323 -0.2808  2.5194 -0.8401
14799TIP3    H265889   4.566   2.913  14.410  0.7199  2.1483 -1.7645
14800TIP3   OH265890   4.905   6.197  17.010  0.0693 -0.0370 -0.8436
14800TIP3    H165891   4.869   6.265  16.953 -0.3997  0.4076 -0.0209
14800TIP3    H265892   4.983   6.235  17.048 -1.9098  1.3899  2.2169
14801TIP3   OH265893   3.213   1.255  13.575 -0.3913  0.6203 -0.3061
14801TIP3    H165894   3.225   1.283  13.666  1.7888  0.2917 -0.4320
14801TIP3    H265895   3.281   1.189  13.561 -0.1443  1.2428 -2.4303
14802TIP3   OH265896   4.650   4.810  10.661 -0.2963 -0.5261 -0.2270
14802TIP3    H165897   4.595   4.764  10.597 -1.2799 -0.2500  0.3955
14802TIP3    H265898   4.696   4.740  10.706  0.0604 -0.7503 -0.9251
14803TIP3   OH265899   5.753   1.398  13.900  0.5878  0.2726 -0.2090
14803TIP3    H165900   5.688   1.464  13.924  0.8324  0.7049 -0.7040
14803TIP3    H265901   5.828   1.449  13.868  0.5078 -0.2602 -1.2897
14804TIP3   OH265902   6.044   3.478  15.500 -1.0445  0.2058  0.1213
14804TIP3    H165903   6.087   3.398  15.529  0.5366 -0.2364 -2.9918
14804TIP3    H265904   5.952   3.454  15.487 -0.9780 -0.5512  1.0020
14805TIP3   OH265905   0.244   3.069  13.150  0.4348 -0.6903 -0.5762
14805TIP3    H165906   0.311   3.122  13.107 -1.3659  2.1220 -0.1995
14805TIP3    H265907   0.272   3.064  13.241  0.8907 -0.8403 -0.7242
14806TIP3   OH265908   2.103   5.411   0.279 -0.1522 -0.4165 -0.0413
14806TIP3    H165909   2.188   5.420   0.322  0.4738 -1.1974 -1.0924
14806TIP3    H265910   2.122   5.415   0.186 -1.1238 -1.7536 -0.3251
14807TIP3   OH265911   4.150   2.160   5.109  0.1878  0.1793 -0.6098
14807TIP3    H165912   4.141   2.095   5.039 -0.2588 -0.3308 -0.0860
14807TIP3    H265913   4.123   2.114   5.188 -1.0902  1.2729 -0.3757
14808TIP3   OH265914   4.064   0.299  12.812 -0.4305 -0.0452  0.4272
14808TIP3    H165915   4.101   0.246  12.742  2.0030  1.6190  0.3394
14808TIP3    H265916   4.091   0.254  12.892 -0.1216 -0.0315  0.3333
14809TIP3   OH265917   0.217   4.336   2.038 -0.5695  0.1763  0.1409
14809TIP3    H165918   0.268   4.315   1.960 -1.4286  2.9198 -1.2835
14809TIP3    H265919   0.136   4.287   2.027 -0.8467  0.8377 -0.9388
14810TIP3   OH265920   5.417   3.523   5.484 -0.5156  0.1848  0.0907
14810TIP3    H165921   5.502   3.483   5.501 -1.0291 -1.4816 -1.0613
14810TIP3    H265922   5.359   3.486   5.551 -0.7303 -0.1290 -0.2620
14811TIP3   OH265923   1.735   3.802   5.245  0.2794  0.5808  0.4306
14811TIP3    H165924   1.770   3.890   5.262 -1.0217  1.4909 -1.2642
14811TIP3    H265925   1.812   3.748   5.231  1.1128  1.3925  1.6667
14812TIP3   OH265926   5.603   3.572  11.289  0.2541  0.0330  0.2666
14812TIP3    H165927   5.566   3.637  11.230 -1.7166 -0.3977  0.9290
14812TIP3    H265928   5.630   3.500  11.233 -2.7277 -0.9073 -0.1239
14813TIP3   OH265929   6.684   4.602   4.457  0.1195 -0.1007  0.6262
14813TIP3    H165930   6.670   4.588   4.550  1.1441  0.5030  0.8892
14813TIP3    H265931   6.779   4.607   4.447 -0.0035  1.2951 -0.2083
14814TIP3   OH265932   0.739   5.617   0.745 -0.1657  0.3030  0.3429
14814TIP3    H165933   0.650   5.643   0.724 -0.0528  0.6636  0.3006
14814TIP3    H265934   0.749   5.640   0.838 -0.6133 -1.1428  0.7755
14815TIP3   OH265935   6.324   3.940   2.239  0.8311 -0.5211 -0.5071
14815TIP3    H165936   6.347   3.886   2.164 -0.2514 -0.5612 -0.8245
14815TIP3    H265937   6.269   3.884   2.294 -0.5673  0.3247 -0.9980
14816TIP3   OH265938   5.172   4.228   5.226 -0.3033 -0.1428 -0.2017
14816TIP3    H165939   5.165   4.216   5.321 -2.2936  0.7837 -0.1681
14816TIP3    H265940   5.265   4.240   5.210  0.0635 -0.1703  1.6522
14817TIP3   OH265941   5.601   2.910  10.439 -0.0959 -0.0296  0.1795
14817TIP3    H165942   5.560   2.920  10.524 -0.3042  1.3549 -0.0616
14817TIP3    H265943   5.651   2.991  10.427 -1.1520  0.4206 -1.5758
14818TIP3   OH265944   4.507   1.527  15.649 -0.1401 -0.0206  0.2129
14818TIP3    H165945   4.484   1.495  15.736  0.4453 -0.2074  0.3045
14818TIP3    H265946   4.599   1.501  15.637 -0.3368 -0.3738 -0.6281
14819TIP3   OH265947   2.847   1.378  10.361  0.3030  0.0124 -0.8643
14819TIP3    H165948   2.868   1.288  10.385  1.0802  0.4870  0.3982
14819TIP3    H265949   2.932   1.421  10.351  0.2238  1.8451  3.7569
14820TIP3   OH265950   1.053   3.323  15.936  0.0756 -0.3324 -0.2244
14820TIP3    H165951   1.082   3.233  15.918 -2.5312 -1.6987  1.6493
14820TIP3    H265952   0.980   3.337  15.875  0.0462  0.2658 -0.0553
14821TIP3   OH265953   5.209   1.462  13.549 -0.5308 -0.5466 -0.4306
14821TIP3    H165954   5.205   1.485  13.642 -3.5760 -1.8582 -0.1313
14821TIP3    H265955   5.211   1.546  13.503 -1.8834  0.2035  0.8043
14822TIP3   OH265956   6.404   5.719  14.294  0.1132 -0.3731 -0.0805
14822TIP3    H165957   6.340   5.656  14.328 -0.6985  0.0499 -0.7849
14822TIP3    H265958   6.427   5.685  14.207  0.2535 -0.1108 -0.1463
14823TIP3   OH265959   4.646   1.509  12.736 -0.1146  0.4448  0.3687
14823TIP3    H165960   4.627   1.565  12.811  0.3354 -0.3277  1.0713
14823TIP3    H265961   4.740   1.514  12.725 -0.1160  0.1332  0.1911
14824TIP3   OH265962   0.519   3.392   1.926  0.1627 -0.2890  0.4589
14824TIP3    H165963   0.612   3.380   1.947  1.0174 -0.3505 -2.8824
14824TIP3    H265964   0.489   3.306   1.900 -0.5386 -0.0294  0.3916
14825TIP3   OH265965   5.741   1.807  15.944  1.0608 -0.4463  0.4116
14825TIP3    H165966   5.674   1.789  15.878  0.8123  1.6201  0.0481
14825TIP3    H265967   5.823   1.780  15.903  1.0501  1.7687 -1.2589
14826TIP3   OH265968   1.195   1.686  11.386 -0.1434  0.1026 -0.5306
14826TIP3    H165969   1.287   1.682  11.414 -0.1104 -1.5570 -0.8073
14826TIP3    H265970   1.199   1.699  11.291 -0.1737 -0.9680 -0.6842
14827TIP3   OH265971   4.953   5.036  16.478  0.1302 -0.1611 -0.2923
14827TIP3    H165972   5.044   5.013  16.458 -0.6000 -1.6557 -2.3926
14827TIP3    H265973   4.940   5.122  16.437  0.7277  0.3178  0.5069
14828TIP3   OH265974   6.175   0.444   2.084 -0.1345  0.1977 -0.1295
14828TIP3    H165975   6.189   0.350   2.072 -0.4375  0.0048  0.9080
14828TIP3    H265976   6.176   0.480   1.996  1.3914 -0.5732 -0.4568
14829TIP3   OH265977   5.778   5.343  15.968 -0.4323  0.1072  0.2400
14829TIP3    H165978   5.863   5.306  15.990  0.0705  0.3716 -1.1500
14829TIP3    H265979   5.735   5.358  16.052  1.1945  0.7038  0.9915
14830TIP3   OH265980   0.395   4.285   3.226  0.2971 -0.6999 -0.2506
14830TIP3    H165981   0.450   4.221   3.272 -0.7477 -0.3187  1.6283
14830TIP3    H265982   0.451   4.318   3.156  1.8739 -1.5474  0.5434
14831TIP3   OH265983   4.678   5.373  14.556 -0.5004 -0.2132 -0.4479
14831TIP3    H165984   4.762   5.392  14.514 -0.2902 -0.6535 -0.2334
14831TIP3    H265985   4.689   5.286  14.594 -1.3628 -0.6701 -1.2111
14832TIP3   OH265986   3.918   3.828  15.387 -0.2642  0.3384 -0.0377
14832TIP3    H165987   3.866   3.778  15.450  0.1326  0.0470  0.0703
14832TIP3    H265988   3.951   3.903  15.436 -1.0774  0.8583 -0.2702
14833TIP3   OH265989   6.647   5.849  16.806  0.1739 -0.2410 -0.0226
14833TIP3    H165990   6.578   5.791  16.774 -1.1418  1.0723  0.3033
14833TIP3    H265991   6.617   5.876  16.893  0.4531  1.3766 -0.4024
14834TIP3   OH265992   5.755   6.613   1.935 -0.7333 -0.5664  0.9137
14834TIP3    H165993   5.851   6.614   1.928 -0.6958 -0.1529  1.3927
14834TIP3    H265994   5.738   6.635   2.026 -1.3175  0.9869  0.4649
14835TIP3   OH265995   1.915   0.775  14.801  0.5373 -0.3456 -0.1449
14835TIP3    H165996   1.827   0.789  14.766  0.5792  0.0123 -0.1146
14835TIP3    H265997   1.901   0.740  14.889  0.4306 -1.7493 -0.6866
14836TIP3   OH265998   4.535   3.884  12.162 -0.0475 -0.1240 -0.1401
14836TIP3    H165999   4.596   3.833  12.214  0.5916  0.7034 -0.0493
14836TIP3    H266000   4.448   3.857  12.193  0.1294 -2.9837 -1.8523
14837TIP3   OH266001   5.222   0.656  10.807  0.5473 -0.1076  0.2675
14837TIP3    H166002   5.234   0.700  10.891  0.1871 -1.0882  0.8479
14837TIP3    H266003   5.300   0.680  10.757  3.0004 -2.8855  2.4209
14838TIP3   OH266004   5.130   2.585   5.147  0.2161  0.2233  0.0779
14838TIP3    H166005   5.047   2.541   5.164  0.3956 -0.2895 -0.3391
14838TIP3    H266006   5.181   2.571   5.226  1.4567 -3.0834 -1.1110
14839TIP3   OH266007   4.759   2.451   5.417 -0.1883  0.1754  0.2666
14839TIP3    H166008   4.814   2.396   5.473 -0.6268 -1.2228 -0.5975
14839TIP3    H266009   4.814   2.470   5.341 -0.4984 -0.2760 -0.0792
14840TIP3   OH266010   4.515   0.520  14.672 -0.0645  0.6410 -0.3564
14840TIP3    H166011   4.557   0.587  14.726  0.2355  0.6650 -0.6183
14840TIP3    H266012   4.563   0.522  14.590  0.1523 -0.1154 -0.2532
14841TIP3   OH266013   6.001   1.838  13.475  0.2274 -0.0966 -0.5044
14841TIP3    H166014   6.015   1.813  13.384 -0.7110  1.2590 -1.0656
14841TIP3    H266015   6.083   1.879  13.502  0.0522  0.7670 -1.2229
14842TIP3   OH266016   1.108   2.481  12.164 -0.2181  0.5973 -0.5377
14842TIP3    H166017   1.025   2.528  12.151 -1.0569 -0.2167  1.4542
14842TIP3    H266018   1.082   2.389  12.169  0.9931  0.2113 -1.1854
14843TIP3   OH266019   1.258   1.258  14.601  0.1806  0.0347 -0.1192
14843TIP3    H166020   1.198   1.184  14.592 -0.1472  0.3686 -0.7505
14843TIP3    H266021   1.345   1.220  14.592 -0.0047 -0.1919 -1.0390
14844TIP3   OH266022   0.842   6.172  14.530 -0.0356 -0.8375  0.1540
14844TIP3    H166023   0.893   6.162  14.449 -1.7850  0.8400 -1.2447
14844TIP3    H266024   0.778   6.101  14.527 -1.0562  0.0856 -0.7445
14845TIP3   OH266025   3.986   2.718   2.690 -0.4809 -0.0943 -0.0188
14845TIP3    H166026   4.012   2.680   2.606 -2.1455 -0.2070 -0.5214
14845TIP3    H266027   4.065   2.763   2.722  1.0068 -2.3242 -0.3105
14846TIP3   OH266028   4.880   5.009  14.136  0.4773 -0.7378  0.1410
14846TIP3    H166029   4.877   4.985  14.229  2.7689 -0.9694  0.1951
14846TIP3    H266030   4.800   5.060  14.123  0.1853 -0.5336  2.2848
14847TIP3   OH266031   2.255   5.344  16.977  0.4323  0.2102  0.1410
14847TIP3    H166032   2.249   5.271  16.916  1.8548  0.1077  0.0809
14847TIP3    H266033   2.167   5.381  16.979 -0.0865 -0.9327 -0.5315
14848TIP3   OH266034   1.563   6.749  12.527 -0.3319 -0.1093 -0.4892
14848TIP3    H166035   1.490   6.687  12.522  0.8647 -1.5606 -0.8371
14848TIP3    H266036   1.563   6.780  12.617 -1.5867  0.2052 -0.5802
14849TIP3   OH266037   2.513   1.524  14.678  0.4617  0.2616 -0.2405
14849TIP3    H166038   2.479   1.453  14.624  1.3693  1.2351 -2.2002
14849TIP3    H266039   2.435   1.573  14.705  0.0454  1.6796 -3.5223
14850TIP3   OH266040   5.519   0.651  13.484  0.1097 -0.1717  0.1414
14850TIP3    H166041   5.438   0.700  13.469 -0.6356 -1.7451 -1.3687
14850TIP3    H266042   5.495   0.560  13.465  1.8317 -0.9076  1.3192
14851TIP3   OH266043   2.167   2.553  14.348 -0.2027 -0.3209  0.1731
14851TIP3    H166044   2.122   2.601  14.418 -0.5372  0.5898 -0.6521
14851TIP3    H266045   2.128   2.586  14.267  0.3968 -1.1407 -0.4686
14852TIP3   OH266046   4.933   4.600   2.433  0.0177  0.0653  0.4842
14852TIP3    H166047   4.901   4.672   2.487  2.4036  1.1181  0.6356
14852TIP3    H266048   4.907   4.623   2.344  2.0840  2.0707  0.2841
14853TIP3   OH266049   2.623   6.270  12.079 -0.0624 -0.2342  0.0390
14853TIP3    H166050   2.591   6.360  12.086 -1.0015 -0.2912 -2.4676
14853TIP3    H266051   2.703   6.277  12.027  0.4986 -0.7545  0.8130
14854TIP3   OH266052   1.570   6.783  15.327 -0.5228 -0.4439  0.6243
14854TIP3    H166053   1.529   6.869  15.322 -1.5635 -0.6159  3.8057
14854TIP3    H266054   1.497   6.721  15.321 -0.0764 -1.0028  0.8434
14855TIP3   OH266055   4.173   3.862   4.554  0.0949  0.1312 -0.5139
14855TIP3    H166056   4.084   3.889   4.530 -0.0962 -0.3145 -0.3163
14855TIP3    H266057   4.171   3.766   4.550  1.0330  0.1523 -2.1457
14856TIP3   OH266058   6.499   1.737  12.117  0.6736  0.1403  0.4221
14856TIP3    H166059   6.546   1.775  12.042 -0.9686 -0.6572 -1.0717
14856TIP3    H266060   6.407   1.755  12.099  0.2659  0.6201  2.6909
14857TIP3   OH266061   6.338   5.011  15.570  0.3087 -1.0266  0.1246
14857TIP3    H166062   6.345   5.001  15.475  2.1910 -1.5813  0.2709
14857TIP3    H266063   6.345   5.105  15.584  2.7160 -1.0991 -0.1853
14858TIP3   OH266064   4.912   1.934  12.710 -0.3420 -0.5577 -0.3380
14858TIP3    H166065   4.962   1.932  12.793 -0.7504  0.4819 -0.0609
14858TIP3    H266066   4.980   1.939  12.642 -0.0051 -1.3037 -0.0734
14859TIP3   OH266067   2.085   0.882   3.353  0.6028 -0.2315  0.1855
14859TIP3    H166068   2.149   0.830   3.305  0.6924 -0.5243  0.6083
14859TIP3    H266069   2.066   0.957   3.297 -0.9174 -1.6477 -1.3218
14860TIP3   OH266070   6.635   2.145  16.004 -0.0232  0.3148  0.9320
14860TIP3    H166071   6.703   2.183  16.059 -0.4828 -0.2618  1.9291
14860TIP3    H266072   6.553   2.165  16.050 -0.5308  0.8613 -0.1643
14861TIP3   OH266073   1.982   1.873  12.956  0.3112  0.2343 -0.0010
14861TIP3    H166074   1.930   1.921  12.892 -0.3305  1.5468  1.4400
14861TIP3    H266075   2.070   1.912  12.950  0.3613  0.0687 -0.3602
14862TIP3   OH266076   1.803   3.457  10.718 -0.5720 -0.2105 -0.2874
14862TIP3    H166077   1.715   3.449  10.681 -0.0685 -0.2357 -1.5150
14862TIP3    H266078   1.816   3.551  10.731 -1.8794 -0.3084  2.7546
14863TIP3   OH266079   1.811   6.432  11.760 -0.2382 -0.2021  0.5475
14863TIP3    H166080   1.829   6.393  11.675  1.1891 -0.0465  0.7561
14863TIP3    H266081   1.741   6.378  11.797 -1.3809  0.1506 -0.9894
14864TIP3   OH266082   4.765   1.396  14.696  0.3877  0.0072  0.5676
14864TIP3    H166083   4.792   1.407  14.604  0.5208  1.7586  0.7879
14864TIP3    H266084   4.681   1.440  14.701  1.2130  1.5468  1.6711
14865TIP3   OH266085   4.350   0.171  12.245 -0.2976  0.0631  0.1967
14865TIP3    H166086   4.426   0.192  12.191 -0.2037 -3.2699 -1.1923
14865TIP3    H266087   4.275   0.205  12.195  0.0100 -0.2019 -0.4495
14866TIP3   OH266088   3.695   4.199  17.069 -0.1460  0.5108 -0.4856
14866TIP3    H166089   3.652   4.131  17.122 -0.4508  0.2078 -1.1043
14866TIP3    H266090   3.764   4.234  17.125  1.7504 -2.0943 -1.0136
14867TIP3   OH266091   1.227   6.051  12.011 -0.4164 -0.5138  0.0257
14867TIP3    H166092   1.264   5.985  11.952  0.5535 -1.6403  1.8093
14867TIP3    H266093   1.135   6.058  11.983 -0.7658 -3.1583  0.1850
14868TIP3   OH266094   0.652   4.927  11.177 -0.0141 -0.2380 -0.5297
14868TIP3    H166095   0.733   4.926  11.229  0.3382  0.7420 -1.0440
14868TIP3    H266096   0.617   5.016  11.188 -0.7305 -0.4770 -0.7737
14869TIP3   OH266097   2.981   2.659  15.738  0.8044  0.0934  0.0001
14869TIP3    H166098   2.961   2.695  15.651  0.3181 -1.5930 -0.6170
14869TIP3    H266099   2.895   2.645  15.778  1.0361  1.7784  1.1904
14870TIP3   OH266100   5.287   3.976   4.790 -0.3024  0.1198  0.5326
14870TIP3    H166101   5.201   3.991   4.829 -0.8390  0.0627 -0.5961
14870TIP3    H266102   5.272   3.983   4.696  0.5922 -1.5627  0.2239
14871TIP3   OH266103   2.015   1.273  11.442  0.4936 -0.3586  0.4571
14871TIP3    H166104   2.050   1.332  11.376  0.4736  1.4904  1.9909
14871TIP3    H266105   2.082   1.272  11.511 -0.0322 -1.1883  0.9746
14872TIP3   OH266106   3.366   2.416  16.597 -0.4365 -0.5288  0.1852
14872TIP3    H166107   3.424   2.344  16.571 -0.7796 -1.4628  1.8583
14872TIP3    H266108   3.347   2.462  16.515  2.7184 -0.0971 -0.4320
14873TIP3   OH266109   5.825   0.723  10.645 -0.0586 -0.7858  0.7805
14873TIP3    H166110   5.821   0.818  10.653  0.0727 -0.9107  3.0251
14873TIP3    H266111   5.739   0.699  10.609 -0.4110  0.1179  0.9810
14874TIP3   OH266112   0.470   2.520  11.446  0.2162  0.3287  0.2509
14874TIP3    H166113   0.549   2.470  11.469  1.4065  1.8697 -0.3534
14874TIP3    H266114   0.411   2.455  11.407  1.7281 -0.6207 -0.5509
14875TIP3   OH266115   2.063   3.758  16.550 -0.5987  0.5260 -0.3862
14875TIP3    H166116   1.982   3.724  16.587  0.0930 -0.0597  0.6404
14875TIP3    H266117   2.078   3.840  16.597 -0.0118  0.0620  0.2505
14876TIP3   OH266118   3.379   3.446   0.089  0.0476 -0.2993  0.0903
14876TIP3    H166119   3.338   3.531   0.075  0.6753 -0.0316 -0.1249
14876TIP3    H266120   3.360   3.425   0.181  0.2082  0.2334  0.2422
14877TIP3   OH266121   5.445   6.680   3.882 -0.2256 -0.2042 -0.4564
14877TIP3    H166122   5.463   6.773   3.866 -0.7073 -0.2727 -1.4270
14877TIP3    H266123   5.452   6.671   3.978  0.4640  0.6858 -0.4044
14878TIP3   OH266124   2.606   6.628   2.996  0.1515  0.2321 -0.0514
14878TIP3    H166125   2.657   6.653   3.073 -1.0982 -0.2197  0.9869
14878TIP3    H266126   2.585   6.710   2.952  1.3585  0.4504 -0.2401
14879TIP3   OH266127   6.651   6.616   5.261 -0.1923 -0.8254  0.0858
14879TIP3    H166128   6.627   6.531   5.225  1.3769 -0.8716 -0.9555
14879TIP3    H266129   6.741   6.629   5.233 -0.2716  1.0105  0.5562
14880TIP3   OH266130   6.737   4.019  14.303 -0.3976  0.0621  0.0338
14880TIP3    H166131   6.787   3.950  14.345  1.4145 -0.2217 -2.4122
14880TIP3    H266132   6.652   3.979  14.285 -0.0322 -0.8823  0.3483
14881TIP3   OH266133   2.585   1.699   5.707 -0.1259 -0.7135  0.1444
14881TIP3    H166134   2.652   1.740   5.761  0.1977 -1.7398  0.5448
14881TIP3    H266135   2.562   1.619   5.754 -1.2234 -0.6649 -0.2804
14882TIP3   OH266136   4.285   4.560   4.912  0.2712 -0.4854  0.5796
14882TIP3    H166137   4.218   4.610   4.865  2.5322  1.8759 -0.4128
14882TIP3    H266138   4.302   4.484   4.856  1.4239  1.1803 -1.4987
14883TIP3   OH266139   6.613   2.899  12.626 -0.1774 -0.0396  0.4172
14883TIP3    H166140   6.529   2.854  12.638 -1.3755  1.9086 -0.1491
14883TIP3    H266141   6.589   2.991  12.613  1.8570  0.2088 -2.4480
14884TIP3   OH266142   2.897   1.380  12.577 -0.2637 -0.3676  0.0622
14884TIP3    H166143   2.879   1.424  12.660  0.2943  0.6138 -0.3250
14884TIP3    H266144   2.992   1.385  12.566 -0.4455  0.7576 -1.2830
14885TIP3   OH266145   1.325   5.988  15.311 -0.0375  0.1438 -0.8451
14885TIP3    H166146   1.261   5.953  15.374 -0.6964  1.3736 -0.8068
14885TIP3    H266147   1.283   5.977  15.226  0.4287 -0.5949 -0.9868
14886TIP3   OH266148   4.943   6.316  16.666  0.8868  0.5911 -0.0046
14886TIP3    H166149   4.879   6.246  16.682  1.4844  0.3566  1.5110
14886TIP3    H266150   4.992   6.286  16.589  0.0384  0.1679 -0.4061
14887TIP3   OH266151   0.475   1.751  15.184 -0.3236 -0.1726  0.3348
14887TIP3    H166152   0.401   1.709  15.229 -0.2642 -1.5454 -0.7947
14887TIP3    H266153   0.453   1.745  15.091  1.0442 -0.2600  0.0057
14888TIP3   OH266154   0.227   1.207   4.432 -0.4720  0.1447  0.0357
14888TIP3    H166155   0.218   1.263   4.509 -1.7216  0.3077 -0.2027
14888TIP3    H266156   0.209   1.265   4.358 -2.6915 -0.6848 -0.1793
14889TIP3   OH266157   1.744   0.219   3.984  0.3076 -0.8052  0.2569
14889TIP3    H166158   1.837   0.219   3.962  0.1885  0.3798 -0.3275
14889TIP3    H266159   1.706   0.287   3.928 -0.2844  1.2785  2.9707
14890TIP3   OH266160   0.677   3.930  16.589  0.0135 -0.5210  0.2329
14890TIP3    H166161   0.639   3.845  16.566 -2.5208  1.0694 -2.0683
14890TIP3    H266162   0.615   3.968  16.651 -0.1347  0.5432 -0.5318
14891TIP3   OH266163   3.312   4.490   2.981  0.2152  0.2285  0.0579
14891TIP3    H166164   3.270   4.569   2.950 -0.1619  0.7352  1.7602
14891TIP3    H266165   3.241   4.436   3.014  0.7140  0.3775  1.4336
14892TIP3   OH266166   4.233   1.434  16.111 -0.3184  0.0934 -0.1084
14892TIP3    H166167   4.206   1.343  16.100  1.4426 -0.2413 -2.5005
14892TIP3    H266168   4.175   1.483  16.053  0.5987  0.0860 -1.0495
14893TIP3   OH266169   1.712   4.695   5.542 -0.1450 -0.3419 -0.0530
14893TIP3    H166170   1.732   4.777   5.496  0.4501 -0.5009 -0.0769
14893TIP3    H266171   1.761   4.700   5.623  0.6104 -1.0697 -0.4507
14894TIP3   OH266172   0.430   5.600  14.877  0.0170  0.1904  0.7545
14894TIP3    H166173   0.377   5.623  14.800  0.9449  1.6675  0.5120
14894TIP3    H266174   0.400   5.513  14.902 -1.5473  0.4204 -0.2043
14895TIP3   OH266175   3.922   3.351   6.554  0.3317 -0.1081  0.8075
14895TIP3    H166176   3.871   3.284   6.601  0.2775  0.5917  1.7792
14895TIP3    H266177   3.889   3.347   6.465 -0.4098 -0.6657  1.0910
14896TIP3   OH266178   4.204   6.658   5.797 -0.2924 -0.5328 -0.1335
14896TIP3    H166179   4.228   6.734   5.850 -2.2052  0.2263 -0.2636
14896TIP3    H266180   4.284   6.606   5.790  1.8932  2.7579 -2.2966
14897TIP3   OH266181   2.946   1.671   5.001  0.4807 -0.9007  0.4602
14897TIP3    H166182   2.926   1.746   4.945  0.0616  0.4075  2.2800
14897TIP3    H266183   2.865   1.621   5.006 -0.4807  0.7024  2.3503
14898TIP3   OH266184   1.412   5.215  11.659 -0.7406 -0.8537 -0.4462
14898TIP3    H166185   1.467   5.153  11.706  0.6096  0.3542 -0.3403
14898TIP3    H266186   1.344   5.241  11.721  0.8782  0.5450  0.8275
14899TIP3   OH266187   1.201   6.303  14.005 -0.2088 -0.2336  0.2265
14899TIP3    H166188   1.154   6.386  14.015  0.8556  0.9093 -3.0054
14899TIP3    H266189   1.144   6.238  14.047 -1.4204  1.9459  2.2241
14900TIP3   OH266190   2.066   5.952   4.327 -0.5654 -0.2637  0.2665
14900TIP3    H166191   1.996   6.012   4.354 -2.2701 -1.9642 -0.1149
14900TIP3    H266192   2.144   6.006   4.322 -1.8818  1.7627  0.5718
14901TIP3   OH266193   1.047   5.272   5.682 -0.5030  0.5421 -0.2501
14901TIP3    H166194   0.990   5.349   5.669 -3.3425 -1.4096 -0.3528
14901TIP3    H266195   1.102   5.270   5.604 -0.3841  2.4112 -0.2744
14902TIP3   OH266196   6.718   3.622   1.606  0.4849  0.1581 -0.0874
14902TIP3    H166197   6.661   3.609   1.530  0.5774 -1.0609  0.0288
14902TIP3    H266198   6.664   3.599   1.681  0.6432  0.5767  0.1620
14903TIP3   OH266199   5.562   4.510  15.637  0.8719  0.4922 -0.8570
14903TIP3    H166200   5.493   4.575  15.621  0.9486  0.4800 -1.2332
14903TIP3    H266201   5.515   4.432  15.666  0.8029  0.8261 -0.0320
14904TIP3   OH266202   2.913   1.359   4.191  0.6385  0.1365 -0.6388
14904TIP3    H166203   2.965   1.439   4.190 -0.4388  0.8582  0.0407
14904TIP3    H266204   2.976   1.290   4.215  1.5253  0.7969 -1.0217
14905TIP3   OH266205   0.020   2.360  15.895  0.4634  0.0333  0.1715
14905TIP3    H166206   0.046   2.435  15.841 -0.0683  0.9682  1.1893
14905TIP3    H266207   0.098   2.304  15.896  0.8240  0.4810 -0.7190
14906TIP3   OH266208   1.908   6.264  14.134  0.2937  0.4755  0.5679
14906TIP3    H166209   1.969   6.287  14.204  2.4006  0.6058 -1.1906
14906TIP3    H266210   1.869   6.348  14.108 -1.2599  0.2947  2.1907
14907TIP3   OH266211   1.109   4.375  16.159  0.1547 -0.3544 -0.4466
14907TIP3    H166212   1.132   4.443  16.096 -0.2390 -0.1054 -0.3321
14907TIP3    H266213   1.140   4.410  16.243 -0.6502  0.0067 -0.2841
14908TIP3   OH266214   4.163   6.389   0.374  0.3311 -0.4290  0.0587
14908TIP3    H166215   4.256   6.373   0.389  0.4310  0.0569 -0.0093
14908TIP3    H266216   4.158   6.420   0.284  0.2638  0.7164  0.4374
14909TIP3   OH266217   6.599   4.500  13.794  0.1688  0.5084  0.4517
14909TIP3    H166218   6.513   4.459  13.801 -0.6141  1.8554 -0.7392
14909TIP3    H266219   6.656   4.430  13.762 -0.1830 -0.7178  2.3545
14910TIP3   OH266220   3.220   5.182   4.938 -0.9840 -0.2937  0.3823
14910TIP3    H166221   3.186   5.264   4.974  1.9761  1.1390  0.1547
14910TIP3    H266222   3.309   5.175   4.972 -0.1832 -2.0004 -1.8095
14911TIP3   OH266223   6.788   0.973   2.378 -0.3012  0.5111 -0.5406
14911TIP3    H166224   6.882   0.958   2.371 -0.2883  0.3393 -0.0222
14911TIP3    H266225   6.769   0.963   2.471 -0.8931  0.1956 -0.6896
14912TIP3   OH266226   6.157   5.433   4.660  0.1939  0.0722  0.2761
14912TIP3    H166227   6.191   5.442   4.571 -1.9129  1.8134 -0.4544
14912TIP3    H266228   6.234   5.438   4.716  1.4345  0.5358 -1.3912
14913TIP3   OH266229   4.321   1.359   5.405  0.1724  0.5437  0.1923
14913TIP3    H166230   4.369   1.348   5.488 -0.6364 -0.3865  0.5653
14913TIP3    H266231   4.250   1.294   5.410 -0.4384  1.1072 -0.8377
14914TIP3   OH266232   1.404   5.912   1.869  0.3510  0.3192  0.8278
14914TIP3    H166233   1.388   5.884   1.779 -4.5471  0.7713  1.2626
14914TIP3    H266234   1.420   6.006   1.863  0.3293  0.2944  0.3944
14915TIP3   OH266235   2.439   0.674  16.180  0.2474  0.0077  0.1988
14915TIP3    H166236   2.522   0.677  16.228 -1.2033 -1.6177  3.0758
14915TIP3    H266237   2.418   0.766  16.162  1.2624  0.6570  2.0737
14916TIP3   OH266238   1.046   5.737  13.140 -0.0502 -1.2006  0.3061
14916TIP3    H166239   0.980   5.668  13.143  0.6378 -1.8595  3.1326
14916TIP3    H266240   1.038   5.782  13.224 -0.5378  2.3619 -1.4260
14917TIP3   OH266241   0.872   4.675   3.522  0.6774  0.5829  0.6644
14917TIP3    H166242   0.873   4.664   3.617  0.4771 -0.5496  0.5445
14917TIP3    H266243   0.823   4.599   3.489 -0.8462  1.8847 -0.2237
14918TIP3   OH266244   0.356   5.781  15.598  0.2785  0.0401  0.2482
14918TIP3    H166245   0.283   5.723  15.620  0.4447 -0.6659 -0.9459
14918TIP3    H266246   0.427   5.752  15.655 -0.1927  0.3523  1.0108
14919TIP3   OH266247   2.122   6.574   5.257 -0.8687 -0.5118  0.0664
14919TIP3    H166248   2.190   6.602   5.196  0.7213 -1.2037  1.4557
14919TIP3    H266249   2.148   6.487   5.285 -1.3546 -0.0946  1.9732
14920TIP3   OH266250   4.519   0.520  11.485 -0.5705  0.4968 -0.3607
14920TIP3    H166251   4.526   0.539  11.391 -0.0616  2.5030  0.0463
14920TIP3    H266252   4.574   0.585  11.527 -2.1331  0.7390  1.4459
14921TIP3   OH266253   2.508   0.486  13.186  0.0238  0.0684  0.1957
14921TIP3    H166254   2.586   0.538  13.204  1.0725 -1.1266 -0.7195
14921TIP3    H266255   2.520   0.405  13.236  0.5910 -1.1503 -1.7583
14922TIP3   OH266256   3.720   0.012   1.666  0.0115 -0.3113 -0.1047
14922TIP3    H166257   3.737   0.056   1.583 -1.8398  2.9530  1.0820
14922TIP3    H266258   3.634  -0.029   1.654 -1.0062  1.5100  0.6000
14923TIP3   OH266259   2.940   2.012   2.879  0.2816 -0.2491  0.4216
14923TIP3    H166260   2.871   1.991   2.816 -0.5680 -1.5803  1.7163
14923TIP3    H266261   2.970   2.099   2.855 -1.5978  0.2147 -0.4167
14924TIP3   OH266262   6.171   6.322   4.909  0.3373 -0.1861  0.4123
14924TIP3    H166263   6.203   6.349   4.822 -2.3905 -1.3637 -1.0845
14924TIP3    H266264   6.202   6.232   4.919  4.5055  1.2456  2.8475
14925TIP3   OH266265   0.402   4.147  16.206  0.1128 -0.3723 -0.0593
14925TIP3    H166266   0.332   4.202  16.172  0.5139  0.5431  0.5441
14925TIP3    H266267   0.358   4.067  16.236 -1.0072  1.0060  2.2340
14926TIP3   OH266268   0.877   5.949   0.332  0.1611  0.2774 -0.2508
14926TIP3    H166269   0.948   5.928   0.271 -0.0443  0.5167 -0.5787
14926TIP3    H266270   0.921   5.976   0.412  0.4369  0.0655 -0.3298
14927TIP3   OH266271   6.369   3.086   1.190 -0.2559 -0.1984 -0.1126
14927TIP3    H166272   6.345   3.012   1.246  0.1861  0.6773  1.3166
14927TIP3    H266273   6.331   3.067   1.105 -2.3762 -0.8344  0.9215
14928TIP3   OH266274   4.691   3.845  15.500 -0.2158 -0.4105  0.2209
14928TIP3    H166275   4.690   3.843  15.596  0.1655  0.2147  0.2423
14928TIP3    H266276   4.762   3.904  15.478 -0.7909  0.0497 -0.4451
14929TIP3   OH266277   6.702   4.383   0.474  0.4348 -0.2554  0.3821
14929TIP3    H166278   6.747   4.402   0.557 -1.7782  0.6241  1.4448
14929TIP3    H266279   6.733   4.451   0.414 -0.6019  1.3368  1.5644
14930TIP3   OH266280   1.417   6.624   2.580  0.1049 -0.3216 -0.4464
14930TIP3    H166281   1.333   6.621   2.626  0.5998 -1.4039  0.4212
14930TIP3    H266282   1.437   6.718   2.574 -1.9746  0.0951 -2.2559
14931TIP3   OH266283   3.049   3.556  14.655 -0.0163  0.2408 -0.0185
14931TIP3    H166284   2.953   3.550  14.654 -0.0299  0.0125  1.1818
14931TIP3    H266285   3.072   3.591  14.569 -1.0174 -1.9350 -1.2308
14932TIP3   OH266286   1.218   5.881  13.879 -0.1474  0.0112 -0.3574
14932TIP3    H166287   1.154   5.820  13.916  1.4758 -1.0988  0.7636
14932TIP3    H266288   1.241   5.843  13.794 -0.5083  0.0663 -0.4799
14933TIP3   OH266289   1.611   3.916   3.848  0.1936 -0.2941  0.1782
14933TIP3    H166290   1.570   3.844   3.896  0.2726 -0.6221 -0.2368
14933TIP3    H266291   1.704   3.891   3.843  0.0566 -0.6618 -0.8283
14934TIP3   OH266292   3.269   4.116   5.075 -0.4656  0.1157  0.2096
14934TIP3    H166293   3.280   4.141   5.167 -0.6475  1.3380 -0.0835
14934TIP3    H266294   3.225   4.031   5.079 -1.8038  0.8038  1.2645
14935TIP3   OH266295   5.826   2.375  15.757  0.2732 -0.9140 -0.0084
14935TIP3    H166296   5.789   2.334  15.679  1.7337 -0.9141 -0.7447
14935TIP3    H266297   5.847   2.464  15.729  0.3839 -0.7733  0.5228
14936TIP3   OH266298   0.298   0.912   4.895  0.5610 -0.4837 -0.3551
14936TIP3    H166299   0.281   0.881   4.806  2.0705  0.7391 -1.1292
14936TIP3    H266300   0.252   0.996   4.900  1.5261  0.0712 -0.4652
14937TIP3   OH266301   1.954   2.503   0.081 -0.8242 -0.2121  0.0633
14937TIP3    H166302   1.888   2.442   0.112  0.4202 -2.6985 -1.8116
14937TIP3    H266303   2.018   2.448   0.035  1.8056  2.2184  0.5432
14938TIP3   OH266304   5.008   6.311   3.808  0.3326 -0.4824  0.0467
14938TIP3    H166305   5.042   6.309   3.718  2.8038  0.4160  0.8835
14938TIP3    H266306   4.979   6.401   3.821 -1.0077 -0.8669 -0.1469
14939TIP3   OH266307   5.759   4.555  17.151 -0.1657  0.3965 -0.1904
14939TIP3    H166308   5.783   4.562  17.244  0.1461  0.2675 -0.2623
14939TIP3    H266309   5.667   4.584  17.148  0.0219  1.0328  0.0609
14940TIP3   OH266310   6.036   0.229  15.102  0.0817 -0.4653 -0.3214
14940TIP3    H166311   6.005   0.141  15.123  0.4947 -0.3571  0.8210
14940TIP3    H266312   6.029   0.278  15.184 -0.6053  0.7177 -1.0459
14941TIP3   OH266313   1.662   4.538  16.804 -0.7425  0.1221 -0.7762
14941TIP3    H166314   1.720   4.462  16.798 -0.3912  0.3634 -0.4967
14941TIP3    H266315   1.574   4.502  16.796 -0.5620 -0.2719 -1.0060
14942TIP3   OH266316   2.241   5.680  13.383 -0.3571  0.4732  0.4276
14942TIP3    H166317   2.181   5.741  13.427 -0.7491  0.2284  0.2299
14942TIP3    H266318   2.296   5.736  13.329 -0.7191  0.6552  0.2447
14943TIP3   OH266319   4.340   5.827   4.403 -0.1421  0.3704  0.3923
14943TIP3    H166320   4.397   5.766   4.451 -0.8949 -0.5177  0.1841
14943TIP3    H266321   4.382   5.913   4.414  1.5871 -0.3452 -0.3111
14944TIP3   OH266322   4.222   5.114  13.566 -0.1025  0.6099 -0.6980
14944TIP3    H166323   4.274   5.183  13.608  0.9132 -0.2725 -0.4556
14944TIP3    H266324   4.134   5.150  13.562  0.5814  2.3216 -1.4830
14945TIP3   OH266325   4.900   4.570  17.023  0.3847 -0.2048 -0.6218
14945TIP3    H166326   4.868   4.567  16.932 -0.2180  2.2622 -0.5506
14945TIP3    H266327   4.821   4.571  17.076  0.7402 -1.7951  0.0002
14946TIP3   OH266328   0.716   2.667   5.651 -0.1015 -0.3743  0.4666
14946TIP3    H166329   0.812   2.659   5.651 -0.0798 -0.1620 -0.0259
14946TIP3    H266330   0.698   2.733   5.584 -0.6652 -1.3869 -0.4127
14947TIP3   OH266331   0.751   6.140  16.878 -0.3366  0.4246 -0.0825
14947TIP3    H166332   0.684   6.188  16.926  0.6945 -0.2366  2.1787
14947TIP3    H266333   0.832   6.190  16.895  0.3945 -0.9371  0.6437
14948TIP3   OH266334   4.505   3.961   1.701  0.0881  0.1721  0.2221
14948TIP3    H166335   4.500   4.012   1.621  1.0570 -0.6551 -0.3973
14948TIP3    H266336   4.436   3.996   1.757 -0.8367  0.5307 -1.1010
14949TIP3   OH266337   4.690   0.120  14.792 -0.4831 -0.6614  0.4260
14949TIP3    H166338   4.615   0.176  14.769 -0.5347 -0.6147  0.7131
14949TIP3    H266339   4.756   0.181  14.823  0.1159 -0.5738 -0.9534
14950TIP3   OH266340   5.256   0.671  17.227 -0.5438 -0.2508 -0.8411
14950TIP3    H166341   5.171   0.694  17.188 -0.4782 -0.8845 -1.3783
14950TIP3    H266342   5.234   0.632  17.311 -0.7136  0.7155 -0.4249
14951TIP3   OH266343   1.180   6.566   6.396  0.0286 -0.2326  0.6526
14951TIP3    H166344   1.176   6.649   6.348 -0.1243  0.5293  1.9140
14951TIP3    H266345   1.107   6.514   6.362 -0.0553  0.2749  0.0505
14952TIP3   OH266346   3.650   1.872   2.721 -0.3855  0.0524 -0.1709
14952TIP3    H166347   3.728   1.816   2.714  0.0021  0.6986 -1.1728
14952TIP3    H266348   3.623   1.864   2.813 -0.8687 -2.4604 -0.4535
14953TIP3   OH266349   2.406   5.219  13.145  0.0273 -0.3729  0.4956
14953TIP3    H166350   2.345   5.218  13.219 -1.0397  0.1514 -0.3411
14953TIP3    H266351   2.492   5.213  13.185 -0.4994  0.3813  1.8211
14954TIP3   OH266352   5.655   5.791  11.831 -0.2875  0.0481 -0.3362
14954TIP3    H166353   5.643   5.882  11.858 -0.9170 -0.1454  0.0667
14954TIP3    H266354   5.591   5.779  11.760  1.1623  0.4745 -1.7762
14955TIP3   OH266355   0.866   1.711  16.328  0.3799 -0.2768  0.4624
14955TIP3    H166356   0.776   1.701  16.359  0.3088 -0.0325  0.3331
14955TIP3    H266357   0.863   1.682  16.237  0.6521 -1.2974  0.7668
14956TIP3   OH266358   0.493   0.437   2.788  0.0969  0.1203  0.0045
14956TIP3    H166359   0.506   0.448   2.694 -1.5544  3.2466 -0.0064
14956TIP3    H266360   0.426   0.369   2.795 -0.4867  0.5541 -1.1655
14957TIP3   OH266361   3.067   2.936  13.860 -0.9716  0.2359 -0.0182
14957TIP3    H166362   3.038   2.900  13.776  2.6128 -0.2464 -1.2031
14957TIP3    H266363   3.159   2.957  13.847 -0.3287  0.4578  3.7363
14958TIP3   OH266364   0.515   6.814   1.370  0.3088 -0.3602  0.2615
14958TIP3    H166365   0.468   6.825   1.287 -0.1193 -1.8644  0.2658
14958TIP3    H266366   0.554   6.726   1.363  1.0726 -0.1220  1.2705
14959TIP3   OH266367   3.509   0.643  14.702 -0.0660 -0.1983  0.3282
14959TIP3    H166368   3.512   0.731  14.666 -0.4593 -1.0281 -1.9028
14959TIP3    H266369   3.434   0.643  14.761 -1.6934  0.3292 -1.6259
14960TIP3   OH266370   3.146   3.103   2.616 -0.1297 -0.2308  0.0915
14960TIP3    H166371   3.158   3.183   2.668 -0.5053 -0.0279 -0.1345
14960TIP3    H266372   3.235   3.074   2.597  0.0494 -0.9252  1.7864
14961TIP3   OH266373   5.967   5.851  12.155 -0.5980  0.2121 -0.1720
14961TIP3    H166374   6.037   5.855  12.090  1.2443  0.5645  1.7276
14961TIP3    H266375   5.904   5.788  12.118 -0.0813  1.0213 -2.6301
14962TIP3   OH266376   4.903   2.984  11.392  0.2427 -0.5625 -0.0539
14962TIP3    H166377   4.885   2.958  11.482 -0.3993  1.0168  0.3263
14962TIP3    H266378   4.971   3.051  11.399 -0.2397  0.0141 -0.6676
14963TIP3   OH266379   4.693   0.689  15.873 -0.0914  0.3113 -0.1567
14963TIP3    H166380   4.765   0.704  15.811 -1.3249  0.2331 -1.6670
14963TIP3    H266381   4.631   0.760  15.855 -0.7365 -0.0568  0.5842
14964TIP3   OH266382   3.409   6.585  14.229  0.1391 -0.1121 -0.2430
14964TIP3    H166383   3.481   6.548  14.281  0.4906  1.0833  0.1627
14964TIP3    H266384   3.383   6.663  14.277 -0.7526  0.0337 -0.9401
14965TIP3   OH266385   2.503   5.998   0.181  0.5013 -0.0518  0.2331
14965TIP3    H166386   2.584   6.028   0.141  0.9994 -1.4855  0.1204
14965TIP3    H266387   2.480   5.918   0.133 -0.9721  0.3155  0.2729
14966TIP3   OH266388   4.595   4.419  13.065  0.3214 -0.0271  0.6105
14966TIP3    H166389   4.636   4.485  13.121 -1.2330  0.3083  1.4167
14966TIP3    H266390   4.551   4.360  13.127  1.6092 -1.8104 -0.0931
14967TIP3   OH266391   5.036   0.205   5.183 -0.4364  0.2189  0.4237
14967TIP3    H166392   4.941   0.214   5.172 -0.2219  1.4999 -0.5548
14967TIP3    H266393   5.053   0.235   5.272 -0.9261  0.1788  0.5321
14968TIP3   OH266394   4.656   4.923  16.125  0.3721  0.4455 -0.2080
14968TIP3    H166395   4.720   4.947  16.058  2.0832  0.1872  1.2598
14968TIP3    H266396   4.575   4.965  16.098  1.3443  1.3974 -1.7453
14969TIP3   OH266397   2.700   0.855   0.432  0.8502 -0.0164  0.0668
14969TIP3    H166398   2.717   0.937   0.478 -1.1920  0.2324  0.4416
14969TIP3    H266399   2.759   0.792   0.473  2.8777  1.3296 -0.6136
14970TIP3   OH266400   0.193   1.693   4.747  1.0077 -0.1842  0.0236
14970TIP3    H166401   0.101   1.721   4.749  0.5193 -1.6773  1.5319
14970TIP3    H266402   0.214   1.686   4.654  0.2479  2.1071 -0.3776
14971TIP3   OH266403   1.795   4.897   5.128 -0.5837 -0.2850  0.2008
14971TIP3    H166404   1.809   4.808   5.160 -0.6201 -0.3762 -0.0313
14971TIP3    H266405   1.871   4.913   5.071 -1.4680 -0.8408 -1.1916
14972TIP3   OH266406   5.493   0.740  13.865 -0.0230 -0.2211  0.5192
14972TIP3    H166407   5.568   0.682  13.880  1.5039  1.5725  0.2756
14972TIP3    H266408   5.475   0.778  13.951  0.0064  0.0820  0.3933
14973TIP3   OH266409   3.701   1.163  12.044 -0.4263  0.4584 -0.3158
14973TIP3    H166410   3.651   1.092  12.003  2.4948 -1.9015 -0.0733
14973TIP3    H266411   3.754   1.199  11.973  1.6771 -0.9488  0.4633
14974TIP3   OH266412   1.370   3.679  15.366  0.3039  0.1236  0.0327
14974TIP3    H166413   1.275   3.686  15.381  0.2415  0.6035 -0.5365
14974TIP3    H266414   1.408   3.745  15.424  0.3958 -0.8869  1.1616
14975TIP3   OH266415   0.552   6.170   4.787  0.1369 -0.6757  0.0845
14975TIP3    H166416   0.524   6.090   4.741  2.9154 -0.2035 -2.8265
14975TIP3    H266417   0.640   6.150   4.818  0.6903  1.0297 -0.2651
14976TIP3   OH266418   6.513   3.861  14.270 -0.8900 -0.2685 -0.2343
14976TIP3    H166419   6.534   3.784  14.217  0.2672  0.5089 -0.9497
14976TIP3    H266420   6.460   3.916  14.213 -1.4904 -0.4006  0.1850
14977TIP3   OH266421   4.475   4.943  14.162 -0.2116  0.3941  0.0122
14977TIP3    H166422   4.389   4.972  14.133  0.2523  0.8431 -0.9851
14977TIP3    H266423   4.462   4.854  14.194 -0.7420 -0.2110 -1.7968
14978TIP3   OH266424   2.799   0.738  16.844 -0.2147  0.3676 -0.2036
14978TIP3    H166425   2.770   0.804  16.907  0.5515 -1.3919  2.1277
14978TIP3    H266426   2.721   0.686  16.825 -0.1344 -0.0020  0.4669
14979TIP3   OH266427   4.849   3.804   2.690 -0.3272 -0.0309 -0.3713
14979TIP3    H166428   4.855   3.845   2.603 -0.2407  0.6492 -0.0567
14979TIP3    H266429   4.919   3.738   2.690  0.1443  0.4549 -0.5719
14980TIP3   OH266430   5.817   1.015  12.089 -0.3495 -0.2416  0.4602
14980TIP3    H166431   5.845   0.935  12.045  0.2428  1.1214 -1.7897
14980TIP3    H266432   5.829   0.996  12.182  2.5482 -1.7452 -0.1041
14981TIP3   OH266433   4.325   3.065   0.326 -0.4438 -0.2135  0.1442
14981TIP3    H166434   4.259   3.118   0.371 -0.5634  1.4426 -1.8408
14981TIP3    H266435   4.285   2.977   0.322 -1.7586  0.3341  0.5299
14982TIP3   OH266436   2.191   2.421   1.971 -0.2167  0.2448  0.1656
14982TIP3    H166437   2.112   2.390   1.927 -0.4600  0.0622  0.7210
14982TIP3    H266438   2.159   2.466   2.050  0.2376 -0.1779  0.6030
14983TIP3   OH266439   0.308   4.889  13.486  0.3511  0.6787  0.3219
14983TIP3    H166440   0.357   4.824  13.536 -1.1719  1.1841  2.6362
14983TIP3    H266441   0.223   4.848  13.472  0.2773  1.1378 -0.6192
14984TIP3   OH266442   5.687   4.542   3.985 -0.1658 -0.1533  0.1367
14984TIP3    H166443   5.734   4.478   4.039  0.3900 -1.1397 -1.4537
14984TIP3    H266444   5.625   4.489   3.935 -2.9448  1.0842  2.0379
14985TIP3   OH266445   2.735   2.402   5.906  0.0843 -0.2038 -0.0236
14985TIP3    H166446   2.798   2.335   5.881 -0.1429 -0.2661 -0.4504
14985TIP3    H266447   2.721   2.453   5.826  1.0629  1.0312  0.5693
14986TIP3   OH266448   6.590   2.459   1.301 -0.0542  0.5194 -0.0361
14986TIP3    H166449   6.510   2.460   1.249  0.5919 -0.6174 -1.1000
14986TIP3    H266450   6.660   2.464   1.236  0.7556  0.1927  0.8042
14987TIP3   OH266451   0.705   2.570  16.135  0.2745 -0.9745  0.2334
14987TIP3    H166452   0.719   2.652  16.182  1.2318 -0.7023 -0.4916
14987TIP3    H266453   0.644   2.521  16.190  0.4820 -0.2017  1.1857
14988TIP3   OH266454   0.993   4.664  12.244 -0.3932  0.1267  0.6005
14988TIP3    H166455   0.978   4.653  12.338  1.6468  0.3802  0.9949
14988TIP3    H266456   0.985   4.758  12.229 -3.2141 -0.1273 -0.0122
14989TIP3   OH266457   2.470   1.076  14.699 -0.3497  0.4636 -0.1806
14989TIP3    H166458   2.419   1.003  14.735  1.0112  0.3086  1.5840
14989TIP3    H266459   2.533   1.096  14.768  0.0368  2.5857 -1.0950
14990TIP3   OH266460   3.902   5.181  13.147 -0.4044 -0.7624  0.5286
14990TIP3    H166461   3.833   5.154  13.208  0.5092 -1.5504  1.2353
14990TIP3    H266462   3.980   5.191  13.201  0.0735  0.0175 -0.2791
14991TIP3   OH266463   1.311   5.139  10.986  0.3475 -0.0040  0.2490
14991TIP3    H166464   1.302   5.225  10.945  2.3714  0.9084  1.5962
14991TIP3    H266465   1.348   5.084  10.917  0.4293  0.5908 -0.1928
14992TIP3   OH266466   2.684   2.892  14.762  0.3542 -0.2615 -0.6595
14992TIP3    H166467   2.597   2.858  14.740  0.0426 -0.3714  0.6947
14992TIP3    H266468   2.667   2.975  14.805  1.0086  0.4312 -1.6822
14993TIP3   OH266469   6.616   2.240   5.524 -0.2496 -0.4411  0.1350
14993TIP3    H166470   6.686   2.275   5.468  0.9398 -1.6935  0.7807
14993TIP3    H266471   6.545   2.218   5.463  0.4883 -0.5066 -0.7227
14994TIP3   OH266472   4.351   2.021  15.227 -0.8228 -0.1137  0.2393
14994TIP3    H166473   4.264   2.020  15.267 -0.4631 -1.8953  1.0841
14994TIP3    H266474   4.363   1.932  15.194  0.7259  0.0582  0.2530
14995TIP3   OH266475   0.573   1.254  17.149 -0.8764  0.9114 -0.0822
14995TIP3    H166476   0.573   1.282  17.241 -0.2591 -0.6415  0.4202
14995TIP3    H266477   0.627   1.175  17.148 -3.1536 -0.7508 -1.2537
14996TIP3   OH266478   3.850   2.935  16.862 -0.8490 -0.3825 -0.0814
14996TIP3    H166479   3.825   2.999  16.796 -4.9400 -1.2682  0.3351
14996TIP3    H266480   3.831   2.850  16.822 -2.1107 -0.9824  1.6496
14997TIP3   OH266481   4.780   0.033   2.484 -0.1599  0.0564  0.7084
14997TIP3    H166482   4.702   0.043   2.539 -1.3641  1.5052 -1.1484
14997TIP3    H266483   4.762  -0.043   2.430  0.3404 -0.4256  1.2054
14998TIP3   OH266484   5.479   4.989   3.578  0.1421  0.8719 -0.2469
14998TIP3    H166485   5.487   5.046   3.656  3.4267 -1.1697  1.1095
14998TIP3    H266486   5.563   4.998   3.533 -1.2928  1.1643 -3.0902
14999TIP3   OH266487   3.254   5.483  14.537  0.1291 -0.3257  0.3889
14999TIP3    H166488   3.255   5.394  14.502  1.9811  0.0195 -0.5396
14999TIP3    H266489   3.345   5.511  14.534 -0.4151  1.6070  0.6878
15000TIP3   OH266490   3.250   5.188   3.993 -0.0181 -0.5132 -0.4149
15000TIP3    H166491   3.324   5.197   4.053 -0.2915 -0.6139 -0.0595
15000TIP3    H266492   3.251   5.269   3.942  1.0378 -1.0142 -1.2187
15001TIP3   OH266493   0.198   0.205   5.565 -0.0314 -0.1466 -0.2041
15001TIP3    H166494   0.270   0.265   5.545 -1.3601  1.8698  0.7825
15001TIP3    H266495   0.205   0.190   5.660 -1.5956  1.0917  0.1485
15002TIP3   OH266496   6.569   0.358   1.036 -0.2422 -0.3452  0.3782
15002TIP3    H166497   6.506   0.426   1.013  0.8051  0.4573 -0.1992
15002TIP3    H266498   6.579   0.365   1.131 -0.1715  0.2808  0.3271
15003TIP3   OH266499   5.862   4.769  13.958 -0.1288 -0.8292 -0.0688
15003TIP3    H166500   5.908   4.837  14.007  0.5845 -0.1825 -1.5767
15003TIP3    H266501   5.841   4.702  14.023 -0.8916  0.8369  1.4637
15004TIP3   OH266502   4.870   3.798   2.956 -0.2122  0.5244  0.3989
15004TIP3    H166503   4.840   3.805   2.866  0.5310  1.2299  0.1986
15004TIP3    H266504   4.843   3.710   2.983 -1.6315  0.7875 -0.0603
15005TIP3   OH266505   5.542   2.925  13.858 -0.8719  0.4568 -0.1858
15005TIP3    H166506   5.541   2.878  13.775 -2.5654  0.0386  0.0356
15005TIP3    H266507   5.623   2.975  13.856  1.1028 -2.4640 -0.4360
15006TIP3   OH266508   3.517   1.295   1.189 -0.0624 -0.6046  0.6184
15006TIP3    H166509   3.480   1.372   1.232  0.2110 -0.1799  0.1098
15006TIP3    H266510   3.467   1.288   1.107  0.6891 -0.2786  0.1249
15007TIP3   OH266511   1.266   5.540  14.276 -0.1258  0.2716  0.1241
15007TIP3    H166512   1.207   5.515  14.204 -1.4946  0.7786  1.0266
15007TIP3    H266513   1.352   5.546  14.235 -0.6359 -0.7727 -1.1916
15008TIP3   OH266514   2.979   3.707  10.952 -0.2443 -0.2024 -0.5415
15008TIP3    H166515   2.992   3.613  10.949  0.7365 -0.0920  0.0696
15008TIP3    H266516   2.935   3.723  11.035  0.3900 -0.0305 -0.2366
15009TIP3   OH266517   0.704   0.274   1.683  0.0707 -0.0677  0.2973
15009TIP3    H166518   0.716   0.182   1.708  1.1272  0.2500  1.0421
15009TIP3    H266519   0.767   0.321   1.738  0.3415  0.9798 -0.8869
15010TIP3   OH266520   3.756   5.417  10.569 -0.6670  0.6978  0.0364
15010TIP3    H166521   3.724   5.498  10.608 -0.4478 -0.0820  1.9080
15010TIP3    H266522   3.851   5.426  10.568 -0.6207  0.3187  0.6125
15011TIP3   OH266523   0.463   4.062  11.004  0.4524 -0.4409 -0.2361
15011TIP3    H166524   0.399   3.991  11.011  2.3038 -2.1699 -0.0325
15011TIP3    H266525   0.497   4.055  10.915  1.4939 -0.5887  0.1618
15012TIP3   OH266526   1.732   3.960   2.797 -0.1269  0.2323  0.1994
15012TIP3    H166527   1.670   3.956   2.724 -0.7034  1.3848  0.5938
15012TIP3    H266528   1.752   4.053   2.806 -0.5819  0.1946  1.9220
15013TIP3   OH266529   3.545   4.504   5.446 -0.0454 -0.8576 -0.4982
15013TIP3    H166530   3.549   4.583   5.500 -1.3586 -0.5612 -0.8092
15013TIP3    H266531   3.637   4.476   5.439  0.0771 -2.0389  3.4788
15014TIP3   OH266532   3.700   6.624   3.946  0.0065  0.0584  0.1674
15014TIP3    H166533   3.717   6.548   4.001 -0.0067 -0.6297 -0.7486
15014TIP3    H266534   3.672   6.692   4.007  0.5195 -0.5100  1.0618
15015TIP3   OH266535   2.866   6.688   0.149  0.3691 -0.4222  0.2026
15015TIP3    H166536   2.781   6.699   0.107 -0.3080 -1.0037  1.3529
15015TIP3    H266537   2.846   6.685   0.243  1.5385 -1.4965  0.4493
15016TIP3   OH266538   5.451   4.615   0.628 -0.0860  0.4969 -0.2718
15016TIP3    H166539   5.372   4.610   0.682  0.3028 -0.0669  0.2589
15016TIP3    H266540   5.489   4.699   0.651  0.6037 -0.1589  1.1134
15017TIP3   OH266541   6.063   5.653   0.718 -0.0046  0.1023 -0.4200
15017TIP3    H166542   6.019   5.632   0.636 -1.3863 -0.2169  0.3655
15017TIP3    H266543   6.065   5.570   0.766  0.3869  0.3770  0.0499
15018TIP3   OH266544   2.328   5.740  16.729 -0.1236 -0.5065  0.2188
15018TIP3    H166545   2.408   5.790  16.743 -0.6202  0.2476  0.4143
15018TIP3    H266546   2.287   5.735  16.815  0.3303 -2.0038  0.3895
15019TIP3   OH266547   4.981   0.867   3.739 -0.2217  0.0353 -0.3066
15019TIP3    H166548   5.019   0.918   3.668 -0.1145 -0.9087 -0.9397
15019TIP3    H266549   5.022   0.780   3.731  2.7240  0.8484  3.1573
15020TIP3   OH266550   0.805   3.947  16.918 -0.5241  0.2564  0.1679
15020TIP3    H166551   0.868   3.904  16.861  0.1750  1.3325  0.0953
15020TIP3    H266552   0.789   4.032  16.876 -0.1801  0.9661  1.4273
15021TIP3   OH266553   3.868   2.044   2.970  0.0300 -0.8567  0.1628
15021TIP3    H166554   3.902   1.972   3.022 -0.1806 -0.3169  1.0607
15021TIP3    H266555   3.946   2.089   2.938  0.1990  0.2410  2.0279
15022TIP3   OH266556   3.337   4.502  10.584 -0.1538 -0.6018 -0.5039
15022TIP3    H166557   3.271   4.568  10.563 -1.6873 -1.2945  1.8493
15022TIP3    H266558   3.290   4.419  10.580  0.2236 -1.0223  2.2894
15023TIP3   OH266559   0.963   1.734  11.503 -0.0120  0.6473 -0.2363
15023TIP3    H166560   1.034   1.729  11.439  0.7134 -0.0735  0.6046
15023TIP3    H266561   0.971   1.822  11.541 -0.3210  1.0046 -0.9651
15024TIP3   OH266562   6.557   4.271   5.366  0.0105 -0.6120  0.6310
15024TIP3    H166563   6.616   4.199   5.346 -0.2431 -0.9354  1.0202
15024TIP3    H266564   6.529   4.304   5.280  0.2396 -0.8807  0.4517
15025TIP3   OH266565   1.362   0.329   3.646 -0.7223  0.0404 -0.3202
15025TIP3    H166566   1.292   0.303   3.587 -1.1482 -0.4491  0.3768
15025TIP3    H266567   1.322   0.323   3.733  0.0617  0.1735  0.0520
15026TIP3   OH266568   1.186   3.618   0.176 -0.1043 -0.2687  0.3328
15026TIP3    H166569   1.136   3.682   0.227 -0.1772 -0.2207  0.2010
15026TIP3    H266570   1.158   3.632   0.086  0.5822  0.1629  0.1771
15027TIP3   OH266571   1.360   3.849   6.111  0.2395  0.3266 -0.1961
15027TIP3    H166572   1.333   3.772   6.063  0.6968  0.3217 -0.4557
15027TIP3    H266573   1.435   3.819   6.164  0.7736  0.7208 -0.7184
15028TIP3   OH266574   5.831   3.158  12.693  0.4829 -0.4240 -0.4653
15028TIP3    H166575   5.833   3.103  12.615 -1.3669 -0.8661 -0.2678
15028TIP3    H266576   5.766   3.226  12.673  2.1385  1.2429 -0.3898
15029TIP3   OH266577   0.400   6.528   2.955 -0.1429 -0.1286  0.2791
15029TIP3    H166578   0.360   6.592   2.896  0.4860 -0.0567 -0.0773
15029TIP3    H266579   0.378   6.443   2.917  0.6782 -0.0724 -0.3466
15030TIP3   OH266580   5.358   4.131  14.773  0.4165 -0.9130  0.0694
15030TIP3    H166581   5.447   4.162  14.759  0.3589 -0.2755  0.9797
15030TIP3    H266582   5.325   4.110  14.686  1.2221 -0.4973 -0.3433
15031TIP3   OH266583   2.444   5.923   6.436 -0.7574  0.7940 -0.6262
15031TIP3    H166584   2.487   5.854   6.485 -1.0452  1.0230 -0.0365
15031TIP3    H266585   2.515   5.969   6.390 -0.7393 -1.0792 -2.6033
15032TIP3   OH266586   4.101   1.767   0.425  0.2316  0.7069  0.3488
15032TIP3    H166587   4.064   1.710   0.493  0.1587  2.3707  1.7789
15032TIP3    H266588   4.183   1.725   0.400  0.7068  0.4858  2.1300
15033TIP3   OH266589   4.692   0.550  15.044 -0.4087 -0.0408 -0.5804
15033TIP3    H166590   4.714   0.525  15.134 -2.2126  1.3199  0.3142
15033TIP3    H266591   4.599   0.576  15.048 -0.3108  0.8517 -2.6564
15034TIP3   OH266592   2.393   5.952   2.296 -0.3484 -0.5722  0.1334
15034TIP3    H166593   2.410   6.020   2.361  1.1105 -0.8255  0.0447
15034TIP3    H266594   2.407   5.870   2.344 -0.3736 -0.7789 -0.2102
15035TIP3   OH266595   3.683   3.536  11.986 -0.4177  0.1260  1.0817
15035TIP3    H166596   3.668   3.467  11.921 -1.2653  0.7676  0.5762
15035TIP3    H266597   3.653   3.498  12.069 -4.0832  0.9429  0.3185
15036TIP3   OH266598   5.867   5.878  14.343  0.0791  0.1816  0.2471
15036TIP3    H166599   5.878   5.934  14.266 -0.4832  1.7552  1.2558
15036TIP3    H266600   5.932   5.808  14.332 -0.6693 -0.2179 -2.1267
15037TIP3   OH266601   5.791   4.889  15.837 -0.2928 -0.2872 -0.1580
15037TIP3    H166602   5.875   4.843  15.828 -0.7010 -0.6233 -3.3455
15037TIP3    H266603   5.728   4.819  15.855 -0.1958 -0.2923  0.1732
15038TIP3   OH266604   0.011   5.898  14.126  0.2367 -0.2128  0.0084
15038TIP3    H166605   0.050   5.877  14.041 -0.0480 -2.3476  0.3649
15038TIP3    H266606  -0.080   5.868  14.118 -0.1131  0.6481  0.6852
15039TIP3   OH266607   1.501   5.041  17.095  0.0815  0.3060  0.1968
15039TIP3    H166608   1.482   5.098  17.169 -0.6461 -0.2532  0.4448
15039TIP3    H266609   1.564   5.091  17.042  2.0354  0.0080  2.0875
15040TIP3   OH266610   0.518   0.219  13.813 -0.0231 -0.1424 -0.0990
15040TIP3    H166611   0.471   0.138  13.834 -1.4683  0.5315 -0.5621
15040TIP3    H266612   0.598   0.215  13.865 -0.2210 -1.7194  0.1213
15041TIP3   OH266613   2.734   1.487  12.776 -0.4905  0.3318  0.0271
15041TIP3    H166614   2.803   1.459  12.836 -0.1215 -0.2712 -0.6659
15041TIP3    H266615   2.695   1.563  12.818 -0.1909 -0.0368  0.9965
15042TIP3   OH266616   5.675   1.371   5.793  0.0326  0.0986  0.2197
15042TIP3    H166617   5.624   1.290   5.806 -1.5346  1.0563  0.2637
15042TIP3    H266618   5.723   1.356   5.712  0.5111 -1.2341  0.7057
15043TIP3   OH266619   4.461   1.318  12.696  0.1425  0.0878 -0.2848
15043TIP3    H166620   4.525   1.390  12.699  1.1104 -0.7711  1.4951
15043TIP3    H266621   4.461   1.283  12.785 -1.0437 -1.4996 -0.8626
15044TIP3   OH266622   1.656   5.598   0.310  0.4506  0.0153 -0.4069
15044TIP3    H166623   1.717   5.534   0.274  0.9938  0.4824 -0.3288
15044TIP3    H266624   1.705   5.680   0.311  0.1311  0.2078  0.5070
15045TIP3   OH266625   3.849   1.544   4.239 -0.7813  0.1712  0.1104
15045TIP3    H166626   3.796   1.512   4.312  1.7957 -0.1735  1.9599
15045TIP3    H266627   3.903   1.612   4.277  1.6798 -0.9967 -1.0840
15046TIP3   OH266628   4.893   1.516   1.573  0.4419  0.2489 -0.3815
15046TIP3    H166629   4.925   1.535   1.484  0.3585  1.1825 -0.2299
15046TIP3    H266630   4.854   1.599   1.602 -2.2248 -0.8197 -0.5933
15047TIP3   OH266631   2.237   0.621   5.649  0.0761  0.3193  0.0945
15047TIP3    H166632   2.261   0.713   5.660  1.3881  0.0326 -0.1924
15047TIP3    H266633   2.306   0.585   5.593 -0.3934 -0.8536  0.2446
15048TIP3   OH266634   2.889   4.945   0.611 -0.2144 -0.3321  0.6323
15048TIP3    H166635   2.963   4.884   0.608  0.7792  0.7862  1.0180
15048TIP3    H266636   2.876   4.972   0.520  1.5593  1.3427  0.8015
15049TIP3   OH266637   5.738   3.172   1.121 -0.2077  0.1749  0.3736
15049TIP3    H166638   5.675   3.235   1.157 -1.7640 -0.7771 -0.5573
15049TIP3    H266639   5.772   3.215   1.042 -0.0941  0.4727  0.5821
15050TIP3   OH266640   2.081   5.068   4.318  0.1436  0.2785  0.6553
15050TIP3    H166641   2.138   5.139   4.288 -0.2543  1.0358  1.6224
15050TIP3    H266642   2.106   4.993   4.265  0.6309  1.1166 -0.3516
15051TIP3   OH266643   0.140   4.722  10.048 -0.2673  0.0234  0.4634
15051TIP3    H166644   0.149   4.629  10.030  0.2673  0.1541  0.0417
15051TIP3    H266645   0.229   4.757  10.046 -0.5091  0.6486  0.0252
15052TIP3   OH266646   2.186   1.607   0.532  0.4942 -0.3993 -0.9741
15052TIP3    H166647   2.188   1.513   0.547 -0.2667 -0.4735 -1.2825
15052TIP3    H266648   2.109   1.638   0.580  0.7857  0.0810 -0.8028
15053TIP3   OH266649   3.452   6.678  12.164  0.2158 -0.2734  0.0087
15053TIP3    H166650   3.365   6.707  12.136 -0.1192 -0.7727  0.5060
15053TIP3    H266651   3.437   6.593  12.205  0.9852 -0.4946 -0.1570
15054TIP3   OH266652   1.574   1.450   2.855  0.2496 -0.0632  0.1143
15054TIP3    H166653   1.614   1.503   2.924  0.4367 -2.2833  1.8526
15054TIP3    H266654   1.590   1.498   2.774  2.3851  1.3658  1.3077
15055TIP3   OH266655   0.086   2.240   0.476  0.4942 -0.0281  0.4379
15055TIP3    H166656   0.073   2.145   0.467  0.5255 -0.1951  1.9460
15055TIP3    H266657   0.015   2.269   0.534  2.0796  0.3672  2.2960
15056TIP3   OH266658   6.587   1.358  11.696  0.4027  0.0972  0.0521
15056TIP3    H166659   6.671   1.378  11.655  0.9207 -0.3767  0.8554
15056TIP3    H266660   6.610   1.315  11.778 -0.6284 -0.0303  0.2883
15057TIP3   OH266661   3.742   3.896   2.903  0.0324 -0.3971  0.1553
15057TIP3    H166662   3.818   3.862   2.856  1.3129  0.8031  1.2622
15057TIP3    H266663   3.746   3.991   2.890 -0.1487 -0.1304  1.7927
15058TIP3   OH266664   0.408   5.068  17.067 -0.2863 -0.4949 -0.2407
15058TIP3    H166665   0.405   4.988  17.015  0.0027 -1.2200  0.8437
15058TIP3    H266666   0.413   5.138  17.002 -4.2768 -1.0410 -1.4311
15059TIP3   OH266667   1.961   3.930   1.289  1.0401  0.9920 -0.2614
15059TIP3    H166668   1.975   4.000   1.225 -0.1768  0.7234 -0.8598
15059TIP3    H266669   1.889   3.962   1.343  0.1509  0.0353 -0.8388
15060TIP3   OH266670   5.752   4.722   0.785 -0.1162  0.1754  0.5533
15060TIP3    H166671   5.766   4.674   0.704  1.2382 -1.5448  1.7253
15060TIP3    H266672   5.825   4.695   0.842 -2.5583 -1.0033  3.3631
15061TIP3   OH266673   1.230   3.341   0.169 -0.1647  0.3083  0.8588
15061TIP3    H166674   1.146   3.298   0.189 -0.6519 -1.3029 -3.6031
15061TIP3    H266675   1.208   3.433   0.159 -1.5665 -0.1367 -0.5779
15062TIP3   OH266676   4.249   1.318   6.600  0.2274 -0.3561 -0.3058
15062TIP3    H166677   4.203   1.387   6.649  1.1835  0.3185 -0.3194
15062TIP3    H266678   4.184   1.249   6.589 -0.0439 -0.5255  1.8860
15063TIP3   OH266679   6.596   3.797  11.715  0.4164  0.5640 -0.2923
15063TIP3    H166680   6.678   3.825  11.756  0.9172  0.4192 -1.1643
15063TIP3    H266681   6.535   3.786  11.788  1.1542  0.7305  0.3634
15064TIP3   OH266682   1.734   5.008   0.621 -0.3852  0.1288 -0.4490
15064TIP3    H166683   1.763   4.991   0.711 -0.0453  1.8492 -0.1880
15064TIP3    H266684   1.793   4.956   0.567  1.4383  1.3714  0.2182
15065TIP3   OH266685   2.398   6.236   5.757 -0.1554  0.2258 -0.2121
15065TIP3    H166686   2.306   6.224   5.734 -0.5394  1.4876  0.5749
15065TIP3    H266687   2.413   6.173   5.828 -0.9331  1.2272  0.8817
15066TIP3   OH266688   5.613   4.377   1.934  0.2871  0.2388 -0.1585
15066TIP3    H166689   5.674   4.304   1.949 -0.0355 -0.1337 -0.6343
15066TIP3    H266690   5.540   4.338   1.886 -0.2860  0.7014  0.3176
15067TIP3   OH266691   5.330   0.427  11.917 -0.0237 -0.1189  0.5227
15067TIP3    H166692   5.395   0.440  11.986 -0.1762  0.4543  0.5662
15067TIP3    H266693   5.378   0.380  11.848  0.6025  0.7937  0.3206
15068TIP3   OH266694   5.652   1.362   2.373 -0.2015  0.2121 -0.0741
15068TIP3    H166695   5.679   1.296   2.309 -0.1460  1.5624 -1.4985
15068TIP3    H266696   5.699   1.338   2.453 -0.9569 -2.0400 -0.2392
15069TIP3   OH266697   4.241   3.476  12.054 -0.0018 -0.3830 -0.2909
15069TIP3    H166698   4.329   3.445  12.032 -0.2871 -0.4240 -1.4095
15069TIP3    H266699   4.247   3.571  12.045  0.5508 -0.1310  1.9853
15070TIP3   OH266700   3.697   4.483   0.997  0.1681 -0.4465 -0.0907
15070TIP3    H166701   3.681   4.497   1.090  0.2164 -1.0424  0.0130
15070TIP3    H266702   3.613   4.501   0.955  0.4320  0.9521 -0.0717
15071TIP3   OH266703   1.113   2.012  16.281 -0.2298 -0.5813  0.1574
15071TIP3    H166704   1.201   2.036  16.253  0.1212 -0.9885  0.8734
15071TIP3    H266705   1.068   1.988  16.200 -0.0901  0.8361 -0.3690
15072TIP3   OH266706   4.506   3.615   5.783 -0.1339  0.0981  0.0298
15072TIP3    H166707   4.536   3.697   5.744  1.4474 -0.4643  0.0203
15072TIP3    H266708   4.493   3.635   5.875  1.7691 -0.0054  0.3444
15073TIP3   OH266709   6.670   2.843  16.279 -0.2421 -0.1852 -0.1366
15073TIP3    H166710   6.722   2.851  16.199 -0.2112 -0.5294 -0.1524
15073TIP3    H266711   6.725   2.880  16.348  0.2890 -1.1243 -0.0405
15074TIP3   OH266712   4.068   1.072   1.729  0.4748 -0.5614  0.5249
15074TIP3    H166713   4.109   1.067   1.643 -0.4855  2.1365 -0.1697
15074TIP3    H266714   4.055   0.981   1.754  2.8587 -1.4685 -1.1279
15075TIP3   OH266715   5.920   1.380  16.057  0.4436  0.8953  0.0344
15075TIP3    H166716   5.840   1.419  16.093 -1.8232 -0.9138 -2.6251
15075TIP3    H266717   5.963   1.451  16.011 -1.2148  1.3416 -0.9099
15076TIP3   OH266718   1.662   1.694  16.515  0.1696  0.2740 -0.4900
15076TIP3    H166719   1.648   1.603  16.544 -0.9239  0.2759 -0.9342
15076TIP3    H266720   1.591   1.743  16.557  0.0311  0.6979 -1.1938
15077TIP3   OH266721   5.052   5.478   6.447  0.1297 -0.0488  0.1254
15077TIP3    H166722   4.988   5.407   6.460  0.8240 -0.5940  0.6361
15077TIP3    H266723   5.137   5.436   6.459  0.7734  0.0571 -3.2560
15078TIP3   OH266724   5.830   4.071  11.563  0.2140  0.4311 -0.1017
15078TIP3    H166725   5.823   4.151  11.614  3.2604  0.9365 -0.2588
15078TIP3    H266726   5.798   4.002  11.621  0.1856  1.4272  1.1068
15079TIP3   OH266727   0.830   3.218  12.161  0.2606 -0.1070 -1.3256
15079TIP3    H166728   0.759   3.249  12.106 -0.8710  0.6865  0.4757
15079TIP3    H266729   0.910   3.242  12.114 -0.6485  0.5585 -2.5708
15080TIP3   OH266730   1.657   0.177  13.404 -0.5294 -0.0884 -0.1090
15080TIP3    H166731   1.713   0.114  13.449 -0.1128 -1.5137 -2.4613
15080TIP3    H266732   1.717   0.248  13.379 -0.6327  0.3817  0.9153
15081TIP3   OH266733   2.796   2.187   0.490 -0.1171 -0.2519  0.2204
15081TIP3    H166734   2.856   2.210   0.419  0.1561 -0.4631  0.3801
15081TIP3    H266735   2.723   2.247   0.479 -0.9088 -1.4096 -1.2995
15082TIP3   OH266736   6.603   6.398   5.117 -0.5338  0.2061  0.0603
15082TIP3    H166737   6.584   6.306   5.134  1.3318 -0.2882 -0.2718
15082TIP3    H266738   6.595   6.407   5.022 -1.8721  0.7077  0.1980
15083TIP3   OH266739   0.792   5.021  11.869  0.1875 -0.4725  0.1083
15083TIP3    H166740   0.826   5.095  11.919  1.5539 -1.3623  0.5824
15083TIP3    H266741   0.774   5.056  11.782 -1.4363  0.9213  0.9481
15084TIP3   OH266742   3.038   6.336   3.511 -0.3097  0.0687 -0.6959
15084TIP3    H166743   3.068   6.326   3.602 -0.7197  0.7980 -0.4729
15084TIP3    H266744   3.117   6.324   3.459 -0.1748 -0.9611 -0.2846
15085TIP3   OH266745   2.048   2.441   1.617  0.1172  0.4682  0.1284
15085TIP3    H166746   2.111   2.481   1.677  2.4894 -2.6293 -0.0432
15085TIP3    H266747   2.082   2.463   1.530  0.9890 -1.1356  0.0343
15086TIP3   OH266748   2.293   4.710   0.386  0.2214  0.1360  0.5538
15086TIP3    H166749   2.276   4.789   0.438  1.8268  1.6238 -1.0408
15086TIP3    H266750   2.362   4.665   0.434  0.5872  0.6688  0.5411
15087TIP3   OH266751   4.702   6.416  12.027  0.1619  0.3112 -0.7865
15087TIP3    H166752   4.749   6.475  12.087  0.2463  0.7095 -1.2407
15087TIP3    H266753   4.610   6.423  12.055  0.0509  1.3008 -1.3615
15088TIP3   OH266754   4.968   3.459   0.166 -0.3793  0.1840 -0.2984
15088TIP3    H166755   4.912   3.387   0.195 -1.2484  1.1160  0.4437
15088TIP3    H266756   4.974   3.448   0.071 -0.4487 -0.8856 -0.1883
15089TIP3   OH266757   4.550   1.015  12.458  0.0305  0.8064  0.2726
15089TIP3    H166758   4.460   1.039  12.436  0.2294  0.4755 -0.9292
15089TIP3    H266759   4.589   0.989  12.375  1.3311  1.2298  0.7344
15090TIP3   OH266760   5.269   2.889   0.226  0.0877  0.1603 -0.1531
15090TIP3    H166761   5.208   2.866   0.157 -0.7416  2.9811 -0.4937
15090TIP3    H266762   5.343   2.930   0.181  0.7535 -0.2999  0.4823
15091TIP3   OH266763   0.045   6.119   5.218  0.0963 -0.5152 -0.0123
15091TIP3    H166764   0.062   6.211   5.237 -0.4492  0.0055 -1.8645
15091TIP3    H266765  -0.042   6.102   5.254  0.6233 -0.6168  1.2540
15092TIP3   OH266766   5.749   6.734  15.432  0.5846 -0.4175  0.2908
15092TIP3    H166767   5.758   6.640  15.418  0.2564 -0.4258  0.1357
15092TIP3    H266768   5.682   6.742  15.500  1.0552 -0.3174  0.7516
15093TIP3   OH266769   0.288   5.657   5.615  0.8361  0.3614  0.1514
15093TIP3    H166770   0.212   5.714   5.599  0.4325 -0.6952 -2.0080
15093TIP3    H266771   0.291   5.648   5.711 -2.5693 -0.6046  0.2940
15094TIP3   OH266772   1.283   4.589   1.306  0.3849 -0.3753 -0.5926
15094TIP3    H166773   1.279   4.501   1.344  0.2432 -0.4310 -0.7303
15094TIP3    H266774   1.238   4.644   1.369 -0.4387 -0.5795 -0.9701
15095TIP3   OH266775   1.877   3.722   0.811 -0.4768 -0.2753 -0.0371
15095TIP3    H166776   1.904   3.735   0.720 -1.2038  0.7027 -0.1287
15095TIP3    H266777   1.792   3.765   0.817 -1.1297 -1.6142  0.7319
15096TIP3   OH266778   6.711   4.221  11.341  0.2039  0.2531  0.4260
15096TIP3    H166779   6.666   4.242  11.422  0.2085 -1.3292  0.8710
15096TIP3    H266780   6.780   4.287  11.334 -1.1892  1.7902  0.5048
15097TIP3   OH266781   1.861   4.995   9.986  0.2379  0.3796 -0.2726
15097TIP3    H166782   1.887   4.961  10.072  1.5374 -1.1255 -1.2053
15097TIP3    H266783   1.772   4.961   9.974 -0.3081  1.3311  0.8033
15098TIP3   OH266784   1.100   5.991   5.288  0.1936  0.6029 -0.1955
15098TIP3    H166785   1.010   5.972   5.312  1.2912 -3.6257  1.5536
15098TIP3    H266786   1.128   6.057   5.352 -1.4286  1.4892 -0.3451
15099TIP3   OH266787   5.956   5.663  10.842 -0.4744  0.2529 -0.1662
15099TIP3    H166788   5.906   5.630  10.768 -0.0624 -1.5226  0.3207
15099TIP3    H266789   5.890   5.687  10.907 -0.9564  3.3922 -1.6015
15100TIP3   OH266790   4.374   3.035   2.524 -0.4146  0.1330 -0.8483
15100TIP3    H166791   4.314   3.078   2.585  0.3885 -0.4140  0.3612
15100TIP3    H266792   4.423   2.973   2.578 -0.0734 -0.7847 -2.1648
15101TIP3   OH266793   1.129   1.542  13.086 -0.1940  0.0936 -0.5324
15101TIP3    H166794   1.089   1.579  13.164  0.7332 -0.3368  0.1607
15101TIP3    H266795   1.159   1.455  13.112 -0.7553 -0.4685 -1.6488
15102TIP3   OH266796   1.252   0.995  16.676 -0.0463  0.1849  0.4344
15102TIP3    H166797   1.163   1.030  16.678 -0.0034  0.3911 -0.5679
15102TIP3    H266798   1.265   0.970  16.585  1.5353  1.7759  0.1851
15103TIP3   OH266799   1.626   4.487   0.107  0.0208  0.1634  0.1903
15103TIP3    H166800   1.637   4.472   0.013  1.6586 -0.9852  0.5209
15103TIP3    H266801   1.554   4.430   0.132  0.6936 -0.8498 -0.0989
15104TIP3   OH266802   4.307   2.180  12.232  0.2734  0.3760 -0.3675
15104TIP3    H166803   4.352   2.165  12.316 -0.5489  0.2133  0.0552
15104TIP3    H266804   4.314   2.096  12.187  0.9026  0.5259 -0.5583
15105TIP3   OH266805   1.068   3.511  10.655  0.4367  0.2716  0.4928
15105TIP3    H166806   1.080   3.543  10.566  0.5355  1.9075  1.0529
15105TIP3    H266807   1.029   3.585  10.702  1.8046  0.0066  2.1695
15106TIP3   OH266808   6.651   3.034  14.880  0.4285 -0.3543 -0.1775
15106TIP3    H166809   6.632   3.122  14.912 -2.6285 -0.3352 -1.6535
15106TIP3    H266810   6.679   3.046  14.790  1.6173 -0.8171  0.1202
15107TIP3   OH266811   5.847   5.778   3.392  0.8031  0.3879  0.0642
15107TIP3    H166812   5.883   5.692   3.370 -0.8668 -0.8815  2.0081
15107TIP3    H266813   5.904   5.839   3.345  2.7294 -1.6869 -0.5243
15108TIP3   OH266814   2.731   2.143  11.843 -0.5215 -0.4821  0.3006
15108TIP3    H166815   2.665   2.175  11.905 -0.1515  1.1001 -0.0869
15108TIP3    H266816   2.683   2.128  11.762 -0.5527 -0.1156  0.2510
15109TIP3   OH266817   3.688   0.007  13.190  0.2123 -0.0994 -0.2826
15109TIP3    H166818   3.631   0.008  13.113  1.2957  0.1565 -1.1019
15109TIP3    H266819   3.628  -0.009  13.264 -0.8987  0.0736 -1.1187
15110TIP3   OH266820   3.807   5.902  16.871 -0.7369  0.3184 -0.1716
15110TIP3    H166821   3.783   5.957  16.796 -1.0333  1.3170  0.6367
15110TIP3    H266822   3.902   5.899  16.869 -0.7741 -1.2911 -1.7201
15111TIP3   OH266823   5.610   1.832  14.383 -0.4496 -0.0034  0.3465
15111TIP3    H166824   5.588   1.879  14.303 -0.6780  1.6544  1.3307
15111TIP3    H266825   5.567   1.882  14.452  0.6587 -0.7413  1.6094
15112TIP3   OH266826   5.596   5.852  15.674 -0.8555 -0.7596  0.1307
15112TIP3    H166827   5.547   5.878  15.596  0.5197 -1.3699 -0.9975
15112TIP3    H266828   5.656   5.784  15.642  0.2281 -0.5233  1.5880
15113TIP3   OH266829   0.991   1.500   3.244 -0.3060 -0.2997 -0.0018
15113TIP3    H166830   1.082   1.514   3.216 -0.2084 -1.9322 -0.6295
15113TIP3    H266831   0.958   1.587   3.262  1.5619  0.3045  0.7878
15114TIP3   OH266832   4.813   2.620  16.857  0.1500  0.0576  0.1537
15114TIP3    H166833   4.731   2.669  16.869  0.5941  1.1400 -1.0264
15114TIP3    H266834   4.878   2.686  16.836  0.7245 -1.0347 -1.7692
15115TIP3   OH266835   1.392   0.233  12.020  0.4341  0.1463  0.0049
15115TIP3    H166836   1.413   0.205  11.931  0.5262  1.6095 -0.4687
15115TIP3    H266837   1.385   0.152  12.070 -1.5003 -0.8569 -1.7173
15116TIP3   OH266838   1.177   4.744  16.506  0.1861  0.0654 -0.0131
15116TIP3    H166839   1.095   4.759  16.553  0.9381 -0.0305  1.3898
15116TIP3    H266840   1.236   4.707  16.572  1.7768  1.3431 -0.6473
15117TIP3   OH266841   5.066   1.146   3.818 -0.6672  0.1398  0.3907
15117TIP3    H166842   5.082   1.136   3.912  1.4723 -2.4580 -0.1329
15117TIP3    H266843   5.022   1.065   3.793  0.5139 -0.0535 -1.1612
15118TIP3   OH266844   2.720   1.263  15.333  0.2774 -0.2025 -0.0937
15118TIP3    H166845   2.727   1.321  15.409 -1.1166 -0.2241  0.0707
15118TIP3    H266846   2.632   1.277  15.300  0.2897 -1.4453 -0.7028
15119TIP3   OH266847   5.995   3.742  14.490  0.4477  0.0014 -0.2652
15119TIP3    H166848   5.973   3.764  14.581  1.1639  0.4616 -0.1980
15119TIP3    H266849   5.988   3.646  14.487 -0.9268  0.0790 -0.0896
15120TIP3   OH266850   2.889   3.906  12.542 -0.2646  0.0084 -0.1390
15120TIP3    H166851   2.807   3.955  12.547  0.6539  1.5019  1.5161
15120TIP3    H266852   2.935   3.928  12.623  3.0792  1.6711 -2.2138
15121TIP3   OH266853   6.775   6.621   4.882 -0.1478 -0.9569 -0.8328
15121TIP3    H166854   6.804   6.610   4.791  0.3611  0.7961 -0.9143
15121TIP3    H266855   6.851   6.595   4.934  0.8784  1.4160 -1.0140
15122TIP3   OH266856   5.163   2.460  12.576 -0.6028  0.4831  0.0500
15122TIP3    H166857   5.253   2.443  12.549 -0.2058  1.3059  0.7932
15122TIP3    H266858   5.109   2.425  12.505  0.3025  0.0389 -0.4325
15123TIP3   OH266859   1.372   6.636  10.943  0.8109  0.4557  0.0135
15123TIP3    H166860   1.382   6.730  10.928 -0.7296  0.7715  0.7628
15123TIP3    H266861   1.462   6.604  10.948  1.3865  1.6000 -1.7850
15124TIP3   OH266862   5.300   2.158   4.191 -0.1284  0.3970 -0.5518
15124TIP3    H166863   5.336   2.082   4.146  0.2304  1.2296 -1.7068
15124TIP3    H266864   5.325   2.145   4.283  0.8700 -0.3289 -0.9084
15125TIP3   OH266865   2.659   0.526  16.317 -0.2825 -0.0999 -0.2223
15125TIP3    H166866   2.602   0.449  16.314 -0.5936  0.1008  0.3780
15125TIP3    H266867   2.689   0.530  16.408  1.1109 -0.5003 -0.6354
15126TIP3   OH266868   4.911   6.038  13.316  0.0659 -0.3721 -0.2205
15126TIP3    H166869   4.968   6.086  13.256  0.7599 -1.1205 -0.1771
15126TIP3    H266870   4.894   6.101  13.387  1.9799 -0.5489  0.4692
15127TIP3   OH266871   0.304   2.162   4.112  0.2706  0.1585 -0.5970
15127TIP3    H166872   0.395   2.181   4.134  0.6469 -0.3107 -1.6565
15127TIP3    H266873   0.286   2.078   4.154  0.8592 -0.5445 -1.7102
15128TIP3   OH266874   1.352   5.971   3.503 -0.5541 -0.1356 -0.6122
15128TIP3    H166875   1.409   5.938   3.572 -0.5593 -0.1341 -0.6072
15128TIP3    H266876   1.297   5.897   3.480  0.3714 -0.5624 -1.5739
15129TIP3   OH266877   3.194   0.862   5.523  0.3612 -0.2718  0.5716
15129TIP3    H166878   3.255   0.809   5.575 -0.4544  0.0046  1.8860
15129TIP3    H266879   3.246   0.894   5.450  1.3973 -1.2299  0.8502
15130TIP3   OH266880   1.455   2.054   5.927 -0.1046 -0.3520  0.1828
15130TIP3    H166881   1.359   2.054   5.932 -0.0630 -1.2479  1.6611
15130TIP3    H266882   1.482   1.988   5.990  1.4980 -0.2021 -0.3076
15131TIP3   OH266883   1.162   4.556  14.965  0.1501  0.0624  0.5481
15131TIP3    H166884   1.191   4.464  14.969  0.6933  0.2159  0.2275
15131TIP3    H266885   1.215   4.594  14.895 -0.3201  0.5381  0.4501
15132TIP3   OH266886   1.765   4.206  10.755  0.4192 -0.2921  0.0507
15132TIP3    H166887   1.826   4.251  10.697  3.0185 -1.2072  1.9271
15132TIP3    H266888   1.803   4.120  10.769 -1.9101 -1.3439  0.4747
15133TIP3   OH266889   0.437   5.972   1.952 -0.0022  0.4119 -0.4184
15133TIP3    H166890   0.492   6.033   2.000  0.0862  0.4458 -0.5634
15133TIP3    H266891   0.456   5.886   1.991  1.3859  0.1706 -1.5613
15134TIP3   OH266892   6.163   4.466   2.532 -0.8229  0.5612 -0.4016
15134TIP3    H166893   6.202   4.420   2.457  0.9853 -0.4215  1.0763
15134TIP3    H266894   6.136   4.550   2.496  1.5794  0.8177 -1.8296
15135TIP3   OH266895   2.509   1.289  12.676  0.1058 -0.6321 -0.1729
15135TIP3    H166896   2.526   1.340  12.597  0.3592  0.2252  0.4265
15135TIP3    H266897   2.573   1.320  12.739  1.0775 -2.5523 -0.1493
15136TIP3   OH266898   3.453   0.800  15.152 -0.2212  0.0775  0.3949
15136TIP3    H166899   3.509   0.734  15.112 -1.2816 -0.9625  0.5661
15136TIP3    H266900   3.511   0.850  15.208  0.4948 -1.1639  0.8043
15137TIP3   OH266901   1.791   3.700  17.140  0.5309  0.1588  0.2592
15137TIP3    H166902   1.753   3.652  17.214 -0.5058 -0.3860 -0.6018
15137TIP3    H266903   1.868   3.649  17.116  0.6619  0.1310  0.7228
15138TIP3   OH266904   5.179   3.129  16.227 -0.7341  0.3178  0.6542
15138TIP3    H166905   5.207   3.067  16.160  1.5092  4.5449 -2.8353
15138TIP3    H266906   5.202   3.087  16.310  0.3650 -3.4728 -1.3326
15139TIP3   OH266907   1.710   2.740   0.979 -0.2255  0.3932  0.1580
15139TIP3    H166908   1.640   2.696   1.027 -0.3435 -0.2997 -0.6283
15139TIP3    H266909   1.790   2.717   1.026 -0.4274  0.4476  0.5320
15140TIP3   OH266910   5.367   0.241   2.392 -0.1566  0.5477 -0.3654
15140TIP3    H166911   5.341   0.228   2.301  1.1929 -4.1935 -0.3733
15140TIP3    H266912   5.287   0.223   2.443  0.1635 -2.0894 -0.6428
15141TIP3   OH266913   4.384   0.865   1.770  0.0542  0.4153  0.1798
15141TIP3    H166914   4.416   0.952   1.791 -0.4612  0.0646  2.6646
15141TIP3    H266915   4.454   0.825   1.718  0.7381  1.9161 -0.0975
15142TIP3   OH266916   0.732   6.811  16.133  0.2336  0.0058  0.1240
15142TIP3    H166917   0.664   6.831  16.198  1.2901 -0.3706  1.3872
15142TIP3    H266918   0.813   6.813  16.182  1.0111 -0.9774 -1.0674
15143TIP3   OH266919   3.028   1.163  11.862 -0.0755  0.0669 -0.3338
15143TIP3    H166920   3.053   1.154  11.954  0.4480  0.3410 -0.4442
15143TIP3    H266921   2.940   1.127  11.857 -0.2350  0.3570  0.3404
15144TIP3   OH266922   3.090   5.141   2.972  0.5972 -0.3182  0.2699
15144TIP3    H166923   3.032   5.065   2.968  1.7994 -1.2195 -1.7048
15144TIP3    H266924   3.074   5.187   2.890  1.0804  0.6565  0.7089
15145TIP3   OH266925   5.821   4.007  13.845  0.4274  0.5264 -0.1907
15145TIP3    H166926   5.870   4.038  13.769 -0.0021 -1.0588 -1.1575
15145TIP3    H266927   5.777   3.928  13.814 -1.1263  0.7938  1.2316
15146TIP3   OH266928   1.672   6.795   2.695 -0.0936  0.2831  0.0882
15146TIP3    H166929   1.608   6.808   2.626  1.3774 -2.1906 -1.9310
15146TIP3    H266930   1.724   6.876   2.696 -2.2863  1.7830  0.8752
15147TIP3   OH266931   6.784   1.769   4.433  0.3186  0.2113 -0.3738
15147TIP3    H166932   6.800   1.820   4.512 -1.3868 -1.7074  1.3267
15147TIP3    H266933   6.689   1.770   4.423  0.3466 -1.4131 -1.0843
15148TIP3   OH266934   3.135   3.352   2.333 -0.1021 -0.1492 -0.2278
15148TIP3    H166935   3.093   3.393   2.408 -1.1560  0.8400 -1.2957
15148TIP3    H266936   3.216   3.402   2.321 -0.4421  0.3822 -0.3631
15149TIP3   OH266937   4.935   5.176  16.821  0.1029  0.2482 -0.2320
15149TIP3    H166938   4.928   5.162  16.726  0.9996  0.3937 -0.3267
15149TIP3    H266939   5.019   5.137  16.844  1.5274  3.1850 -0.0824
15150TIP3   OH266940   1.007   6.202   0.491 -0.2469 -0.0184 -0.3163
15150TIP3    H166941   0.991   6.290   0.458 -0.7409 -0.2215 -0.6388
15150TIP3    H266942   0.927   6.181   0.540 -0.8812 -0.9294 -1.6622
15151TIP3   OH266943   0.934   2.926   5.730 -0.3780  0.2704 -0.0062
15151TIP3    H166944   0.927   2.954   5.821 -0.2823 -0.2355  0.1558
15151TIP3    H266945   0.953   2.833   5.734 -2.7318 -0.3067 -0.5422
15152TIP3   OH266946   3.495   1.354  13.508 -0.3157  0.5453 -0.0696
15152TIP3    H166947   3.515   1.385  13.596  1.6446  0.8033 -0.5501
15152TIP3    H266948   3.489   1.258  13.517  0.5929  0.5100  0.2298
15153TIP3   OH266949   2.915   4.283  13.311  0.5330 -0.2047 -0.6442
15153TIP3    H166950   2.897   4.374  13.289 -0.7655 -0.2152  0.2788
15153TIP3    H266951   3.008   4.282  13.335  0.2084  1.1816  0.8210
15154TIP3   OH266952   2.370   6.315   4.120 -0.3974  0.5232  0.0275
15154TIP3    H166953   2.380   6.295   4.213 -2.4562 -0.9029 -0.0071
15154TIP3    H266954   2.339   6.234   4.080  0.4358  1.0984 -1.9363
15155TIP3   OH266955   0.088   4.994   0.641 -0.3248  0.1943  0.0561
15155TIP3    H166956   0.125   4.930   0.580 -0.4227 -0.6164  0.8278
15155TIP3    H266957   0.074   5.072   0.588  1.0315  0.0153 -0.6144
15156TIP3   OH266958   5.762   4.505   5.674  0.0012  0.1044 -0.2630
15156TIP3    H166959   5.848   4.464   5.684  0.2821  0.7513 -0.0006
15156TIP3    H266960   5.720   4.494   5.759  0.5451  1.3991  0.2011
15157TIP3   OH266961   6.183   4.568  13.967  0.7357 -0.0998  0.4249
15157TIP3    H166962   6.175   4.654  14.007  0.3142  0.2314 -0.3444
15157TIP3    H266963   6.247   4.522  14.021 -2.7282 -1.1873  4.1007
15158TIP3   OH266964   3.667   3.017   3.125 -0.7279  0.0742 -0.2663
15158TIP3    H166965   3.632   2.984   3.208 -0.1462  0.9354  0.3434
15158TIP3    H266966   3.751   2.971   3.115  0.3871  1.7370  0.9036
15159TIP3   OH266967   6.019   1.532   2.051 -0.7277 -0.5662  0.2659
15159TIP3    H166968   6.024   1.602   1.986  2.8080  0.1204  1.0703
15159TIP3    H266969   6.004   1.453   1.999  0.3023  0.1813 -1.2582
15160TIP3   OH266970   2.664   0.226  10.937 -0.2994 -0.0062 -0.4631
15160TIP3    H166971   2.700   0.157  10.881  0.6594  0.5102 -0.5211
15160TIP3    H266972   2.571   0.206  10.945 -0.4791 -0.0635 -2.3010
15161TIP3   OH266973   1.922   0.269   3.680 -0.5160  0.2710  0.2125
15161TIP3    H166974   2.003   0.221   3.666 -0.8599 -0.4565  0.6707
15161TIP3    H266975   1.946   0.340   3.740 -0.0619  0.5369 -0.2739
15162TIP3   OH266976   4.742   1.871  12.036 -0.0129 -0.0857 -0.6013
15162TIP3    H166977   4.662   1.840  11.992  0.4309  1.5755 -2.8067
15162TIP3    H266978   4.719   1.959  12.066  0.7417  0.1037 -0.5654
15163TIP3   OH266979   4.300   6.753   2.483  0.4153  0.0789 -0.0065
15163TIP3    H166980   4.315   6.847   2.470  0.0813  0.2400  0.7395
15163TIP3    H266981   4.363   6.711   2.425  0.3053  0.7660 -0.6385
15164TIP3   OH266982   3.594   6.603  11.939  0.2093 -0.5895  0.2253
15164TIP3    H166983   3.541   6.628  12.015  1.0569 -1.4908  1.1317
15164TIP3    H266984   3.531   6.601  11.867 -0.4740  1.0322  0.7145
15165TIP3   OH266985   5.834   4.369  11.021  0.3883 -0.5229 -0.4697
15165TIP3    H166986   5.784   4.308  10.968  0.5418 -1.5789  0.5541
15165TIP3    H266987   5.925   4.353  10.997  0.4670 -1.0790  0.1526
15166TIP3   OH266988   2.346   5.515  11.216  0.4072  0.0241  0.0831
15166TIP3    H166989   2.308   5.553  11.296  1.3848  2.7581 -0.6509
15166TIP3    H266990   2.440   5.525  11.227  0.5364  1.2922 -1.7384
15167TIP3   OH266991   1.656   6.787   4.535 -0.7006 -0.2668  0.1910
15167TIP3    H166992   1.565   6.809   4.514  0.2774  1.0915 -3.3482
15167TIP3    H266993   1.665   6.696   4.508 -1.0389 -0.5012  0.8341
15168TIP3   OH266994   4.664   3.092   2.250 -0.8534 -0.2829  0.0833
15168TIP3    H166995   4.625   3.130   2.171  0.4150 -0.5010 -0.6775
15168TIP3    H266996   4.613   3.012   2.266 -1.6173  0.1660 -0.0465
15169TIP3   OH266997   3.482   0.960  12.841  0.1409 -0.2802  0.1088
15169TIP3    H166998   3.578   0.955  12.839  0.2483 -2.2963  3.3955
15169TIP3    H266999   3.455   0.875  12.876 -2.7379  0.9459  1.1227
15170TIP3   OH267000   6.033   3.654  12.261 -0.1486  0.1110  0.1840
15170TIP3    H167001   6.010   3.606  12.341  1.4282  1.8988  1.8132
15170TIP3    H267002   6.008   3.744  12.279  0.4418  0.5896 -1.2765
15171TIP3   OH267003   0.107   3.276  14.551  0.1180 -0.1907  0.2227
15171TIP3    H167004   0.097   3.367  14.523  0.1644  0.1258  1.2096
15171TIP3    H267005   0.201   3.266  14.566 -0.1314  0.3681  2.5581
15172TIP3   OH267006   4.061   5.557  14.043 -0.1114  0.1510 -0.6986
15172TIP3    H167007   4.048   5.632  13.985  0.8866 -0.3388 -1.5812
15172TIP3    H267008   4.022   5.483  13.995 -3.9259  0.5027  1.4510
15173TIP3   OH267009   3.511   1.900   0.195  0.2092  0.0637 -0.1305
15173TIP3    H167010   3.460   1.827   0.230 -1.2401  0.8242 -0.5636
15173TIP3    H267011   3.472   1.978   0.234 -0.3233  0.8161 -2.0258
15174TIP3   OH267012   4.745   6.118  16.628  0.2403  0.4295  0.3095
15174TIP3    H167013   4.781   6.105  16.540  3.2427  1.1382  1.3206
15174TIP3    H267014   4.772   6.041  16.677  0.0301  0.7985  1.0136
15175TIP3   OH267015   5.545   3.769   3.362  0.2257 -0.1877 -0.1377
15175TIP3    H167016   5.639   3.776   3.377  0.0094  0.9145  0.8062
15175TIP3    H267017   5.530   3.812   3.278  0.7231 -1.5819 -0.9758
15176TIP3   OH267018   4.115   0.593   3.658  0.3497  0.0737 -0.0895
15176TIP3    H167019   4.113   0.499   3.675  1.0180  0.2504  1.0464
15176TIP3    H267020   4.023   0.618   3.653  0.1407 -0.8540 -1.7944
15177TIP3   OH267021   2.807   3.469   1.081 -0.1184 -0.3741 -0.4517
15177TIP3    H167022   2.729   3.458   1.026 -0.1974 -0.2831 -0.3567
15177TIP3    H267023   2.862   3.530   1.033 -1.9127  2.9583  1.3900
15178TIP3   OH267024   3.510   2.712  13.710  0.3731  0.0532 -0.0501
15178TIP3    H167025   3.446   2.771  13.749  0.0449 -0.2465 -0.1337
15178TIP3    H267026   3.471   2.625  13.717  1.0753 -0.2308  0.5479
15179TIP3   OH267027   3.653   5.316   5.622 -0.3138  0.5858  0.1510
15179TIP3    H167028   3.668   5.256   5.549 -3.5577  2.0149 -1.9161
15179TIP3    H267029   3.580   5.278   5.670 -0.8111  1.6108  0.2452
15180TIP3   OH267030   6.141   2.760   3.120  0.6400  0.3437 -0.0396
15180TIP3    H167031   6.107   2.725   3.037  1.6020 -0.6631 -0.0307
15180TIP3    H267032   6.102   2.847   3.127  0.1797  0.2606 -1.3230
15181TIP3   OH267033   3.829   4.099   3.807  0.2943  0.3610 -0.1263
15181TIP3    H167034   3.870   4.067   3.887 -0.3517 -1.2640 -0.3980
15181TIP3    H267035   3.811   4.191   3.823 -0.4568 -0.0964  1.8733
15182TIP3   OH267036   6.788   5.478   2.324 -0.5021 -0.1363  0.0807
15182TIP3    H167037   6.756   5.536   2.255  0.5492  1.1079  0.5956
15182TIP3    H267038   6.874   5.513   2.348  0.0172 -1.6901  0.6898
15183TIP3   OH267039   1.947   1.622   1.220 -0.6107  0.3422  0.7818
15183TIP3    H167040   1.987   1.537   1.204  0.3455  0.7790  0.7779
15183TIP3    H267041   1.854   1.609   1.199  0.0159  0.1077 -2.4032
15184TIP3   OH267042   3.671   5.675  10.599  0.3043  0.5773  0.7146
15184TIP3    H167043   3.593   5.684  10.545 -0.5749  0.1411  1.8671
15184TIP3    H267044   3.698   5.765  10.617  0.5262  0.7228 -0.3203
15185TIP3   OH267045   4.834   5.201   4.396 -0.2136  0.0530  0.3101
15185TIP3    H167046   4.827   5.227   4.304  2.4599 -2.4251 -0.7808
15185TIP3    H267047   4.800   5.111   4.398 -1.7837  0.6160  2.1736
15186TIP3   OH267048   3.280   5.963   2.382  0.4561  0.4191  1.2608
15186TIP3    H167049   3.341   6.027   2.420 -0.7323  2.2597  0.2272
15186TIP3    H267050   3.311   5.878   2.414  3.1273  1.3334  1.3265
15187TIP3   OH267051   3.347   2.929   2.524  0.4204  0.1854  0.6935
15187TIP3    H167052   3.293   2.867   2.571  0.8719 -0.9349 -0.2203
15187TIP3    H267053   3.318   2.922   2.433  0.8724  0.9006  0.4815
15188TIP3   OH267054   4.852   6.593  13.836 -0.7718 -0.1224  0.1061
15188TIP3    H167055   4.940   6.626  13.852 -0.0772 -1.4590 -0.7261
15188TIP3    H267056   4.860   6.498  13.847 -1.7060 -0.4307 -1.5461
15189TIP3   OH267057   4.874   0.903   4.194 -0.3659  0.0911  0.0470
15189TIP3    H167058   4.843   0.822   4.235  0.9887 -1.0422 -1.0556
15189TIP3    H267059   4.936   0.939   4.256 -0.8704  0.2093  0.4844
15190TIP3   OH267060   4.623   0.777  11.886  0.0674 -0.4277  0.0176
15190TIP3    H167061   4.583   0.780  11.973  0.1490  0.7582  0.0303
15190TIP3    H267062   4.681   0.853  11.883  0.7943 -0.9911 -0.7339
15191TIP3   OH267063   4.862   2.344   0.039 -0.3055 -0.0200 -0.3012
15191TIP3    H167064   4.833   2.254   0.020  1.3084 -0.3862 -1.2250
15191TIP3    H267065   4.845   2.355   0.132 -0.2173 -1.4306 -0.0900
15192TIP3   OH267066   3.696   5.551   4.429  0.1532 -0.1526 -0.0027
15192TIP3    H167067   3.763   5.502   4.477  0.7370 -1.1020 -1.7019
15192TIP3    H267068   3.732   5.640   4.422  0.4907 -0.2468  0.4751
15193TIP3   OH267069   0.047   3.858  15.209  0.1974 -0.0150 -0.0857
15193TIP3    H167070   0.129   3.871  15.257 -1.0517  0.6633  2.0072
15193TIP3    H267071  -0.021   3.865  15.276 -1.6620  0.7465 -1.9527
15194TIP3   OH267072   4.525   6.077   0.025  0.6789  0.1969  0.6308
15194TIP3    H167073   4.542   6.163  -0.012  1.1442  0.4688  1.4567
15194TIP3    H267074   4.430   6.072   0.031  0.5715  0.0444 -0.8040
15195TIP3   OH267075   5.816   1.762   2.326  0.2758  0.0114 -0.0157
15195TIP3    H167076   5.785   1.771   2.416  0.0610 -1.2974  0.0630
15195TIP3    H267077   5.884   1.696   2.331 -0.0806 -0.4365 -0.8848
15196TIP3   OH267078   6.546   5.438  10.916 -0.2740  0.3538  0.1988
15196TIP3    H167079   6.631   5.423  10.958 -1.3291  0.9555  2.6805
15196TIP3    H267080   6.481   5.420  10.984 -2.1469  0.4306 -1.4793
15197TIP3   OH267081   0.795   5.063   4.182  0.3505 -0.1220  0.2082
15197TIP3    H167082   0.861   5.002   4.216  1.3675  1.1999  0.6767
15197TIP3    H267083   0.841   5.113   4.115 -0.9412 -0.9601 -1.3760
15198TIP3   OH267084   4.406   0.938  11.639  0.5042  0.5387 -0.7977
15198TIP3    H167085   4.398   0.948  11.734  0.5079 -0.9997 -0.6180
15198TIP3    H267086   4.379   0.848  11.622  3.1310 -0.1298 -1.9207
15199TIP3   OH267087   2.323   4.780  12.831  0.2819 -0.1523  0.4287
15199TIP3    H167088   2.389   4.753  12.894 -0.2566 -1.7347  0.3555
15199TIP3    H267089   2.286   4.860  12.868 -0.7685 -1.5891  2.7377
15200TIP3   OH267090   1.350   1.562   3.555  0.1727  0.6326 -0.1077
15200TIP3    H167091   1.374   1.590   3.644 -0.2798  0.3116  0.1233
15200TIP3    H267092   1.256   1.544   3.561  0.2771 -0.0601 -0.4800
15201TIP3   OH267093   0.032   5.875   3.791 -0.2677 -0.4646  0.1903
15201TIP3    H167094   0.033   5.937   3.864 -1.0102 -1.2244  0.8661
15201TIP3    H267095   0.096   5.808   3.816  0.6755  0.0963 -0.6270
15202TIP3   OH267096   6.794   4.909   3.939 -0.2185 -0.0448 -0.4262
15202TIP3    H167097   6.832   4.822   3.956  0.9916  0.2859 -1.2939
15202TIP3    H267098   6.736   4.895   3.864  1.2378  0.1645 -1.6493
15203TIP3   OH267099   0.843   5.444   0.067 -0.0847 -0.1815 -0.5401
15203TIP3    H167100   0.875   5.493   0.143 -0.8508  2.3787 -1.7580
15203TIP3    H267101   0.907   5.464  -0.002 -0.0078 -1.5522 -0.8866
15204TIP3   OH267102   4.306   4.826  14.608  0.1953  0.0010  0.2463
15204TIP3    H167103   4.218   4.858  14.627  0.2174 -0.0090  0.3669
15204TIP3    H267104   4.337   4.880  14.535  0.4302  0.5902  0.7761
15205TIP3   OH267105   1.000   5.950  11.485  0.4114 -0.0050  0.3618
15205TIP3    H167106   0.934   6.019  11.473  0.0201 -0.4097  0.1335
15205TIP3    H267107   1.061   5.986  11.549  0.3311  0.6390  0.0858
15206TIP3   OH267108   4.777   4.228   1.190  0.2031 -0.5402 -0.1581
15206TIP3    H167109   4.763   4.134   1.178 -0.0555 -0.4417 -0.6535
15206TIP3    H267110   4.869   4.242   1.170  0.1366 -0.6210 -0.5204
15207TIP3   OH267111   3.585   3.920   0.871 -0.0865 -0.4828  0.6410
15207TIP3    H167112   3.638   3.918   0.791 -1.1174  0.5667 -0.1012
15207TIP3    H267113   3.617   3.846   0.923  1.4585 -0.4349 -0.1777
15208TIP3   OH267114   2.418   6.255  15.051  0.0174 -0.2923 -0.2011
15208TIP3    H167115   2.393   6.310  14.977 -0.7710 -0.6519 -0.2150
15208TIP3    H267116   2.384   6.301  15.128 -0.0368 -0.4074 -0.1549
15209TIP3   OH267117   0.470   4.198   5.301  0.0615 -0.6626 -0.3301
15209TIP3    H167118   0.513   4.181   5.384  0.0783  0.3111 -0.1219
15209TIP3    H267119   0.507   4.134   5.240  2.1760  0.4128 -0.2734
15210TIP3   OH267120   5.516   5.745  11.554 -0.1580 -0.3444 -0.3879
15210TIP3    H167121   5.455   5.764  11.484 -0.9233 -0.9766  0.0851
15210TIP3    H267122   5.565   5.668  11.523 -0.0570 -0.2384 -0.4913
15211TIP3   OH267123   1.383   4.304  12.391  0.9209 -1.2744 -0.4272
15211TIP3    H167124   1.381   4.277  12.299 -1.4477 -0.2431 -0.7483
15211TIP3    H267125   1.370   4.398  12.389 -0.3660 -1.3808  0.9826
15212TIP3   OH267126   6.289   4.146   3.550  0.2256  0.0855 -0.1636
15212TIP3    H167127   6.336   4.079   3.500  1.3811  1.2120 -0.6450
15212TIP3    H267128   6.197   4.133   3.527  0.6752  0.3713 -2.4178
15213TIP3   OH267129   0.200   2.385  14.699 -0.2058  0.5089  0.1017
15213TIP3    H167130   0.129   2.448  14.683  0.3422  1.1776  0.2414
15213TIP3    H267131   0.184   2.354  14.787 -1.0310 -0.2853 -0.3106
15214TIP3   OH267132   4.120   0.111  15.511  0.0638 -0.2548 -0.3421
15214TIP3    H167133   4.050   0.074  15.565  1.5609  0.3051  2.1611
15214TIP3    H267134   4.100   0.204  15.505 -0.0139 -0.2882 -0.5828
15215TIP3   OH267135   4.459   1.347  14.743 -0.3174 -0.2269 -0.0387
15215TIP3    H167136   4.366   1.355  14.721 -0.4432  0.2788  0.6542
15215TIP3    H267137   4.470   1.398  14.823  0.6617  0.1181 -0.3772
15216TIP3   OH267138   0.616   1.071  15.935 -0.4650 -0.3680  0.2603
15216TIP3    H167139   0.526   1.103  15.946  0.0677  0.8870  1.2397
15216TIP3    H267140   0.609   0.976  15.946 -1.8637 -0.4603 -1.1112
15217TIP3   OH267141   6.662   4.395   1.221  0.3762 -0.8598  0.2934
15217TIP3    H167142   6.719   4.471   1.235 -2.5511  1.6478 -0.3332
15217TIP3    H267143   6.719   4.329   1.182  2.4322  2.3100 -2.6516
15218TIP3   OH267144   3.790   3.397   1.956  0.4577  0.2799  0.2730
15218TIP3    H167145   3.885   3.402   1.971  0.5884  1.4350 -0.7915
15218TIP3    H267146   3.775   3.306   1.930  1.4148  0.2669 -0.2995
15219TIP3   OH267147   5.050   1.323   4.362 -0.1626 -0.3660 -0.3691
15219TIP3    H167148   5.061   1.263   4.289  1.7325  1.2037 -1.4944
15219TIP3    H267149   4.977   1.379   4.336 -0.5703 -0.8504 -0.2785
15220TIP3   OH267150   5.721   0.800   5.908  0.3205  0.8217  0.2073
15220TIP3    H167151   5.784   0.849   5.961  1.3218  0.4124 -0.5711
15220TIP3    H267152   5.641   0.799   5.960  0.7212  2.0356  0.8704
15221TIP3   OH267153   4.506   5.929  12.393 -0.0389  0.0863 -0.0430
15221TIP3    H167154   4.495   6.006  12.450 -1.8011  0.8009 -1.2602
15221TIP3    H267155   4.526   5.858  12.454 -1.5418  0.8815  1.5004
15222TIP3   OH267156   2.727   1.984   1.846  0.6961  0.3249 -0.5723
15222TIP3    H167157   2.770   1.899   1.831 -0.0968  0.1364 -1.8793
15222TIP3    H267158   2.718   1.988   1.941 -0.9646 -1.9595 -0.5460
15223TIP3   OH267159   0.348   2.026  13.862 -0.8903 -0.1355  0.1300
15223TIP3    H167160   0.399   2.024  13.782 -1.7036  0.9353 -0.4419
15223TIP3    H267161   0.369   2.110  13.902  0.5899 -1.2211  1.8079
15224TIP3   OH267162   6.165   4.406  12.461  0.3466  0.2019 -0.0785
15224TIP3    H167163   6.229   4.385  12.528 -0.1744 -2.4038 -0.2992
15224TIP3    H267164   6.214   4.401  12.379  0.1591 -0.4043 -0.1531
15225TIP3   OH267165   6.593   3.475  12.944 -0.0871  0.3800 -0.2318
15225TIP3    H167166   6.514   3.517  12.978  0.3450 -0.4109  1.8929
15225TIP3    H267167   6.641   3.448  13.022 -0.1840 -3.7962 -1.3575
15226TIP3   OH267168   1.583   1.672  13.340  0.0063  0.5361  0.1922
15226TIP3    H167169   1.610   1.659  13.430 -1.5338 -0.0639  0.5836
15226TIP3    H267170   1.663   1.703  13.296  1.2303 -0.8330  1.3471
15227TIP3   OH267171   1.311   5.798   4.286  0.3917  0.6376  0.5203
15227TIP3    H167172   1.325   5.819   4.193 -0.3595  1.4471  0.5744
15227TIP3    H267173   1.398   5.798   4.324  0.8571 -1.0155 -0.4323
15228TIP3   OH267174   0.270   3.594   0.450  0.4067  0.4617 -0.4094
15228TIP3    H167175   0.254   3.680   0.487 -0.9595  0.4219 -0.8589
15228TIP3    H267176   0.245   3.602   0.358 -0.2783 -0.5454 -0.3294
15229TIP3   OH267177   0.032   2.472  16.137 -0.1104 -0.2506  0.1222
15229TIP3    H167178   0.025   2.424  16.054  0.3651  0.6509 -0.4568
15229TIP3    H267179   0.066   2.558  16.112  0.7705 -0.2145  1.3370
15230TIP3   OH267180   2.646   1.305  13.793  0.7578 -0.7700  0.3047
15230TIP3    H167181   2.734   1.266  13.792  0.7700 -0.7815  1.1199
15230TIP3    H267182   2.587   1.231  13.797  0.7190 -0.7530  0.0576
15231TIP3   OH267183   5.293   3.588   0.950  0.1828  0.8862  0.7392
15231TIP3    H167184   5.358   3.518   0.948  2.2579  2.7220  0.6956
15231TIP3    H267185   5.223   3.557   0.892  1.8673 -0.3762 -0.7113
15232TIP3   OH267186   4.553   4.062   1.439 -0.1790  0.0508 -0.3516
15232TIP3    H167187   4.609   4.124   1.486  1.8489 -1.7836 -0.2103
15232TIP3    H267188   4.545   4.099   1.351  1.6012  0.1803 -0.4791
15233TIP3   OH267189   5.020   2.774   5.958 -0.0716  0.8136 -0.3213
15233TIP3    H167190   5.014   2.852   6.013 -0.8728  1.6493 -1.5545
15233TIP3    H267191   5.099   2.729   5.988 -1.2487  0.4063  2.5534
15234TIP3   OH267192   3.189   3.736  15.408  0.0212 -0.2263  0.1690
15234TIP3    H167193   3.177   3.792  15.331 -1.5017 -2.1806 -1.1160
15234TIP3    H267194   3.110   3.750  15.460  0.6016  0.3547  0.9191
15235TIP3   OH267195   2.518   0.919  14.968  0.2921  0.0816  0.2861
15235TIP3    H167196   2.425   0.923  14.945  0.0990  0.1260  1.0398
15235TIP3    H267197   2.522   0.857  15.040  0.5897  1.3558  1.4156
15236TIP3   OH267198   6.796   3.558  16.205  0.1304 -0.6073 -0.4823
15236TIP3    H167199   6.706   3.588  16.192  0.7650  1.4972 -0.4101
15236TIP3    H267200   6.794   3.510  16.288 -0.7817  0.1209 -0.0728
15237TIP3   OH267201   4.413   6.379   0.475  0.7799  0.0213  0.3758
15237TIP3    H167202   4.453   6.465   0.459  1.0730 -0.3489 -0.9886
15237TIP3    H267203   4.461   6.320   0.417  1.1811 -1.2343  1.9378
15238TIP3   OH267204   0.229   0.736   1.167 -0.1390 -0.3408 -0.1762
15238TIP3    H167205   0.275   0.695   1.240  0.6309  1.4414  0.3728
15238TIP3    H267206   0.282   0.714   1.090  1.3030  1.0796  0.3529
15239TIP3   OH267207   1.161   3.498   4.863  0.1895  0.1679 -0.3342
15239TIP3    H167208   1.110   3.435   4.812  1.3508 -0.2964 -0.9457
15239TIP3    H267209   1.096   3.562   4.893 -0.5174  0.6358 -2.6246
15240TIP3   OH267210   1.461   4.501  15.807 -0.0080  0.1533 -0.2678
15240TIP3    H167211   1.390   4.563  15.789 -0.1323  0.3072  0.7072
15240TIP3    H267212   1.418   4.423  15.840  0.1863 -0.3007 -1.0544
15241TIP3   OH267213   1.842   1.008   0.692 -0.0239 -0.2358  0.2882
15241TIP3    H167214   1.899   1.084   0.707 -2.1143  1.1478  1.8905
15241TIP3    H267215   1.804   0.990   0.778 -0.7349 -2.1779 -0.3835
15242TIP3   OH267216   5.320   2.445  11.769  0.6392  0.1269  0.0410
15242TIP3    H167217   5.267   2.391  11.827 -0.5790 -0.7123 -1.7452
15242TIP3    H267218   5.326   2.530  11.813  0.2646 -0.6250  1.6184
15243TIP3   OH267219   0.302   0.156  16.808  0.0172  0.0637  0.4346
15243TIP3    H167220   0.225   0.177  16.860 -0.2236 -2.1005  1.0736
15243TIP3    H267221   0.309   0.227  16.745 -1.4897  1.1823  1.4679
15244TIP3   OH267222   5.240   2.226  15.994 -0.7948 -0.4424 -0.1859
15244TIP3    H167223   5.197   2.142  16.009 -1.2812 -0.2298 -0.3673
15244TIP3    H267224   5.195   2.262  15.918  0.4386 -0.7123 -1.0785
15245TIP3   OH267225   0.891   4.622   2.040  0.1213  0.4773 -0.1593
15245TIP3    H167226   0.848   4.642   2.124 -0.2394 -1.4559  0.1636
15245TIP3    H267227   0.834   4.557   2.000  1.7503 -0.7179 -0.6171
15246TIP3   OH267228   3.055   6.150   1.762 -0.2787 -0.8266 -0.5937
15246TIP3    H167229   3.095   6.216   1.706 -2.1980 -0.5986 -1.7651
15246TIP3    H267230   3.105   6.070   1.745  1.4696  0.0590  0.1426
15247TIP3   OH267231   3.327   1.954   5.279  0.7258  0.0335  0.3296
15247TIP3    H167232   3.320   2.014   5.204 -1.7259  0.6958  1.0006
15247TIP3    H267233   3.301   1.869   5.243  0.5268  0.1471  0.1994
15248TIP3   OH267234   2.507   2.564  15.471 -0.3172  0.2090 -0.0714
15248TIP3    H167235   2.479   2.537  15.384  0.6034  3.1843 -1.4038
15248TIP3    H267236   2.425   2.581  15.519 -0.8420 -2.0455 -0.0566
15249TIP3   OH267237   3.649   6.096   4.708 -0.1006  0.3744 -0.3202
15249TIP3    H167238   3.663   6.018   4.762 -0.4715  0.1894 -0.4898
15249TIP3    H267239   3.692   6.076   4.625  0.1017  0.4888 -0.2432
15250TIP3   OH267240   3.428   2.305   6.476 -0.6715 -0.1560  0.2657
15250TIP3    H167241   3.413   2.327   6.568 -1.4095  0.9380 -0.0936
15250TIP3    H267242   3.360   2.240   6.455  0.0185 -1.0313  0.7017
15251TIP3   OH267243   6.124   0.081   0.818 -0.0843  0.2381  0.1635
15251TIP3    H167244   6.100   0.057   0.729  2.4473 -0.7028 -0.3740
15251TIP3    H267245   6.113   0.000   0.868 -1.1089  0.6589  0.6462
15252TIP3   OH267246   1.510   4.906  15.640  1.0997  0.3056  0.1969
15252TIP3    H167247   1.586   4.938  15.688  1.0895 -1.1215  1.2401
15252TIP3    H267248   1.544   4.835  15.585  0.7109  0.3952 -0.1665
15253TIP3   OH267249   2.106   2.625  13.225  0.2278 -0.6940 -0.3667
15253TIP3    H167250   2.049   2.584  13.160 -1.3980 -0.4354  0.8348
15253TIP3    H267251   2.051   2.634  13.303  1.9345 -0.4495  0.8652
15254TIP3   OH267252   2.187   0.141   1.091 -0.1621  0.3883  0.1578
15254TIP3    H167253   2.173   0.154   0.997  0.4521 -1.2704 -0.2066
15254TIP3    H267254   2.249   0.068   1.096 -1.4641 -0.6898  1.8511
15255TIP3   OH267255   4.619   1.160  13.189  0.1614 -0.8933 -0.0989
15255TIP3    H167256   4.694   1.123  13.141  0.4098 -0.7145  0.1438
15255TIP3    H267257   4.653   1.176  13.277 -0.5825 -2.1795  0.4445
15256TIP3   OH267258   0.750   3.198  16.092  0.0440 -0.5604  0.1397
15256TIP3    H167259   0.844   3.187  16.107  0.1353  0.8574  0.7625
15256TIP3    H267260   0.739   3.292  16.076 -1.5704 -0.2758  2.4807
15257TIP3   OH267261   5.423   2.962   1.049 -0.7052  0.2769 -0.0742
15257TIP3    H167262   5.391   2.919   1.128 -1.2251  1.6047  0.4721
15257TIP3    H267263   5.463   2.892   0.997  1.6029 -0.3250  2.3164
15258TIP3   OH267264   5.707   1.642   1.719 -0.1279  0.0409 -0.6197
15258TIP3    H167265   5.787   1.646   1.666 -0.2367 -2.3158 -1.0431
15258TIP3    H267266   5.735   1.671   1.806  0.6795  1.2361 -1.2385
15259TIP3   OH267267   6.771   6.427   0.351  0.0317  0.3788 -0.2575
15259TIP3    H167268   6.821   6.371   0.292 -0.3554  1.4689 -1.6799
15259TIP3    H267269   6.679   6.414   0.324 -0.1651  0.7433  0.2267
15260TIP3   OH267270   4.046   3.006   0.615 -0.2381 -0.1294 -0.2855
15260TIP3    H167271   4.016   3.087   0.574 -2.3300 -0.7100 -0.0249
15260TIP3    H267272   4.128   2.984   0.570 -0.8070  0.9352 -1.9070
15261TIP3   OH267273   1.820   0.805   1.683  0.1678 -0.1009 -0.1723
15261TIP3    H167274   1.900   0.828   1.635 -0.1369  0.1281 -0.5760
15261TIP3    H267275   1.847   0.734   1.740  0.6708 -0.0106 -0.2852
15262TIP3   OH267276   4.321   1.721   5.591 -0.5774 -0.3705  0.1995
15262TIP3    H167277   4.267   1.795   5.618 -1.4222 -1.1489  0.7121
15262TIP3    H267278   4.316   1.721   5.495 -1.9075 -0.6993  0.2414
15263TIP3   OH267279   2.927   6.292  16.590 -0.4213 -0.8534 -0.3474
15263TIP3    H167280   2.910   6.246  16.508 -1.2819 -1.1869  0.0150
15263TIP3    H267281   2.920   6.385  16.567 -0.8321 -0.9509 -0.6142
15264TIP3   OH267282   1.926   3.027   5.158  0.0992 -0.2491  0.3316
15264TIP3    H167283   1.979   3.061   5.086  0.2438  0.6734  0.8481
15264TIP3    H267284   1.986   3.024   5.232  0.1351 -1.8585  0.2611
15265TIP3   OH267285   1.276   0.669   2.313  0.0969 -0.3618 -1.1281
15265TIP3    H167286   1.358   0.655   2.361 -1.7762 -2.4424  1.7492
15265TIP3    H267287   1.248   0.757   2.338  0.3715 -0.4948 -0.3150
15266TIP3   OH267288   3.447   2.951   2.142 -0.5242 -0.5770  0.0341
15266TIP3    H167289   3.413   3.009   2.210 -0.9859  0.5549 -1.1165
15266TIP3    H267290   3.368   2.919   2.097 -0.2012 -0.8471 -0.3459
15267TIP3   OH267291   2.857   2.914   1.003 -0.0788 -0.1358 -0.5367
15267TIP3    H167292   2.846   3.008   0.988 -0.0544 -0.0199  0.1770
15267TIP3    H267293   2.877   2.879   0.916 -0.0690  0.5207 -0.8064
15268TIP3   OH267294   5.596   6.043   2.580  0.5630 -0.1146 -0.2455
15268TIP3    H167295   5.550   5.959   2.575  0.5416 -0.1306  0.2671
15268TIP3    H267296   5.529   6.106   2.604  0.3372  0.2539 -1.7221
15269TIP3   OH267297   3.300   2.434   2.809 -0.3767  0.2436 -0.0915
15269TIP3    H167298   3.380   2.455   2.761 -0.7781  1.7591 -0.1596
15269TIP3    H267299   3.246   2.513   2.801 -1.9248 -0.7907 -0.1372
15270TIP3   OH267300   2.770   2.611  10.587  0.2581  0.1779 -0.0127
15270TIP3    H167301   2.845   2.601  10.646 -0.3331  3.3421  1.5098
15270TIP3    H267302   2.700   2.561  10.629  0.8943 -0.9014 -0.2148
15271TIP3   OH267303   6.067   2.931   5.664 -0.4746  0.1246 -0.7558
15271TIP3    H167304   6.038   3.016   5.696 -0.6803 -0.5517  0.9641
15271TIP3    H267305   6.156   2.947   5.632 -0.2552  0.8791  0.1623
15272TIP3   OH267306   0.678   6.470  15.392  0.4344  0.6289  0.1251
15272TIP3    H167307   0.715   6.382  15.388  1.1970  0.9700 -0.7556
15272TIP3    H267308   0.694   6.506  15.305  0.3322  1.7205  0.5464
15273TIP3   OH267309   6.434   0.323  10.887  0.0549  0.4001 -0.3214
15273TIP3    H167310   6.498   0.289  10.823  0.0349  0.3181 -0.2978
15273TIP3    H267311   6.399   0.402  10.845  0.5865  0.7689 -0.0948
15274TIP3   OH267312   2.001   4.053  13.450 -0.0625 -0.0550 -0.3219
15274TIP3    H167313   1.976   3.970  13.491 -0.1478  0.3621  0.4965
15274TIP3    H267314   2.096   4.055  13.455 -0.1129  0.3716  0.6362
15275TIP3   OH267315   5.447   2.176   1.999  0.2869  0.5156  0.6461
15275TIP3    H167316   5.426   2.104   1.939 -0.6123  1.5157 -0.2710
15275TIP3    H267317   5.536   2.156   2.029  0.5252 -0.3422 -0.5404
15276TIP3   OH267318   4.828   6.352   0.551  0.0357  0.3435  0.9251
15276TIP3    H167319   4.903   6.380   0.500  0.3148 -0.8320  0.6658
15276TIP3    H267320   4.774   6.431   0.560  0.6449  0.8817 -0.0131
15277TIP3   OH267321   0.674   5.209   4.377 -0.1880 -0.3082  0.1561
15277TIP3    H167322   0.659   5.293   4.333  1.5870  0.1264  0.3020
15277TIP3    H267323   0.700   5.150   4.306  1.5628  0.1007  0.4003
15278TIP3   OH267324   0.530   4.586   3.327  0.0668  0.1407  0.6914
15278TIP3    H167325   0.601   4.537   3.367  0.3067  0.7954  1.0615
15278TIP3    H267326   0.468   4.603   3.398  0.8304  1.9243  0.9831
15279TIP3   OH267327   1.079   5.134  13.159 -0.2031 -0.4604 -0.4247
15279TIP3    H167328   1.067   5.220  13.199 -2.4718 -0.0735 -1.7555
15279TIP3    H267329   1.128   5.152  13.078  0.0028 -0.5501 -0.3224
15280TIP3   OH267330   0.140   1.192  10.972 -0.2788 -0.4631  0.0908
15280TIP3    H167331   0.104   1.107  10.947  0.2918 -0.7271  0.1486
15280TIP3    H267332   0.234   1.178  10.975 -0.3064 -0.4591  2.4156
15281TIP3   OH267333   6.463   4.314  13.308 -0.1683  0.4321 -0.0332
15281TIP3    H167334   6.550   4.281  13.331  0.1087  0.6990 -0.6991
15281TIP3    H267335   6.448   4.386  13.369 -0.4255 -0.3652  0.8760
15282TIP3   OH267336   4.307   4.886  10.009 -0.0376 -0.1418  0.5556
15282TIP3    H167337   4.242   4.823   9.978  1.5032 -1.3521 -0.3427
15282TIP3    H267338   4.292   4.965   9.957 -0.4125 -0.6056 -0.0411
15283TIP3   OH267339   2.382   2.541  12.628  0.0925  0.1214 -0.2352
15283TIP3    H167340   2.326   2.618  12.634 -0.6428 -0.4165 -0.1372
15283TIP3    H267341   2.416   2.529  12.717 -2.2032 -1.4359  0.5109
15284TIP3   OH267342   5.689   5.706   5.172 -0.4372  0.1954 -0.7614
15284TIP3    H167343   5.664   5.727   5.263  1.8592 -0.9169  0.2033
15284TIP3    H267344   5.685   5.611   5.167  3.0500 -0.1073 -0.5553
15285TIP3   OH267345   0.090   4.290   3.614  0.3261 -0.6016  0.7984
15285TIP3    H167346   0.063   4.376   3.582 -1.4754 -1.4115 -0.0004
15285TIP3    H267347   0.186   4.294   3.614  0.2954  1.4093  0.8616
15286TIP3   OH267348   3.128   5.467  13.426  0.5100  0.3158 -0.2676
15286TIP3    H167349   3.111   5.470  13.332  0.1791  1.6517 -0.1928
15286TIP3    H267350   3.057   5.520  13.464 -0.9593 -2.3843  0.9978
15287TIP3   OH267351   2.511   0.600   3.921  0.3941  0.6588 -0.3763
15287TIP3    H167352   2.602   0.581   3.945  0.2505  0.1230 -0.2383
15287TIP3    H267353   2.459   0.546   3.980 -0.0105  0.8126 -0.5888
15288TIP3   OH267354   0.173   3.501   2.799  0.0867 -0.0281 -0.5119
15288TIP3    H167355   0.114   3.465   2.732  0.2170  2.2059 -1.9270
15288TIP3    H267356   0.114   3.532   2.868 -0.1224 -1.2738 -0.1126
15289TIP3   OH267357   3.274   4.200  15.420  0.1428 -0.4483 -0.1201
15289TIP3    H167358   3.325   4.234  15.494 -0.5110  0.0710  0.1014
15289TIP3    H267359   3.230   4.123  15.455  1.3889 -1.3805 -0.5394
15290TIP3   OH267360   3.431   5.724  14.924  0.3566  0.3703  0.6113
15290TIP3    H167361   3.404   5.761  14.840 -0.2823  1.5526  1.2989
15290TIP3    H267362   3.390   5.782  14.989 -1.2243 -1.9026  1.7787
15291TIP3   OH267363   6.657   6.144  11.416  0.6530  0.1685  0.5665
15291TIP3    H167364   6.657   6.117  11.325 -0.1686  1.8959 -0.0008
15291TIP3    H267365   6.744   6.181  11.431  0.0568  2.0785 -0.2942
15292TIP3   OH267366   4.913   1.774   5.889  0.1548  0.1224  0.2569
15292TIP3    H167367   4.913   1.682   5.862  0.5273  0.3286 -0.4974
15292TIP3    H267368   4.868   1.775   5.973 -2.5969 -0.3702 -1.0856
15293TIP3   OH267369   0.755   0.368   3.385  0.0217 -0.2179 -0.2931
15293TIP3    H167370   0.675   0.325   3.353 -0.3539  0.5851 -0.4717
15293TIP3    H267371   0.775   0.433   3.318  2.1118 -1.8599 -1.3860
15294TIP3   OH267372   1.542   2.441   3.074  0.4023 -0.0877  0.0892
15294TIP3    H167373   1.594   2.361   3.075  0.1433 -0.2645  1.9277
15294TIP3    H267374   1.475   2.428   3.141 -0.8638  0.8898 -0.9333
15295TIP3   OH267375   1.205   5.885  13.396 -0.0564 -0.0540  0.1483
15295TIP3    H167376   1.277   5.947  13.388  0.8135 -0.1650  4.5393
15295TIP3    H267377   1.141   5.930  13.451 -2.1849 -0.9761 -1.4210
15296TIP3   OH267378   6.592   6.562  12.985  0.2540  0.5065 -0.3514
15296TIP3    H167379   6.653   6.495  12.954 -0.0663 -0.6039  1.3052
15296TIP3    H267380   6.642   6.644  12.981  0.6560  0.2044 -2.3736
15297TIP3   OH267381   0.498   3.144   2.255 -0.5264  0.3035 -0.4840
15297TIP3    H167382   0.544   3.119   2.175  0.1287  0.2665 -0.1093
15297TIP3    H267383   0.485   3.238   2.248  2.5601  0.9726  0.8088
15298TIP3   OH267384   2.002   5.773   5.717  0.6502 -0.1097  0.3416
15298TIP3    H167385   1.972   5.738   5.633  0.7339  0.8298 -0.0968
15298TIP3    H267386   2.094   5.795   5.703  1.1576 -1.5784  1.2249
15299TIP3   OH267387   1.644   0.879  14.723  0.0379  0.5260  0.0249
15299TIP3    H167388   1.594   0.827  14.786  0.2794 -0.0726 -0.2667
15299TIP3    H267389   1.577   0.918  14.667 -0.1049 -0.8967 -0.8507
15300TIP3   OH267390   5.092   5.983   4.454 -0.0003  0.0570 -1.0326
15300TIP3    H167391   5.084   6.034   4.535 -1.7722 -3.4464  1.2306
15300TIP3    H267392   5.180   5.945   4.458 -0.2665 -0.5079 -0.4793
15301TIP3   OH267393   6.567   3.117   0.033 -1.0195  0.0016  0.4992
15301TIP3    H167394   6.592   3.158   0.115  0.0182  0.9521 -0.2641
15301TIP3    H267395   6.504   3.178  -0.006 -0.8353 -0.0122  0.1779
15302TIP3   OH267396   1.233   1.532  14.336  0.0246 -0.1367 -0.3047
15302TIP3    H167397   1.155   1.482  14.314 -0.4443 -0.0787  1.1095
15302TIP3    H267398   1.201   1.602  14.393  1.0558  0.0612  0.0506
15303TIP3   OH267399   2.489   2.558   5.495 -0.2161 -0.0930  0.2949
15303TIP3    H167400   2.519   2.624   5.432 -0.9870 -0.9786 -1.0294
15303TIP3    H267401   2.457   2.485   5.442 -2.1694 -0.3297  1.6637
15304TIP3   OH267402   5.731   2.281  12.235 -0.2126  0.2411 -0.1520
15304TIP3    H167403   5.813   2.308  12.194 -0.6826  0.3609 -1.0432
15304TIP3    H267404   5.717   2.344  12.306 -0.6936  1.6563 -1.4535
15305TIP3   OH267405   5.974   3.910  16.535 -0.3064  0.1313 -0.0861
15305TIP3    H167406   5.939   3.929  16.622  1.2884 -0.6905  0.7815
15305TIP3    H267407   5.977   3.995  16.491 -2.0695  0.4121  0.2748
15306TIP3   OH267408   3.521   0.744  12.466  0.3384 -0.3341  0.5272
15306TIP3    H167409   3.587   0.802  12.503  1.4191 -0.4496 -1.1040
15306TIP3    H267410   3.568   0.662  12.450 -0.4127 -0.6897  0.0848
15307TIP3   OH267411   0.468   6.721  13.125 -0.7535  0.2110 -0.1061
15307TIP3    H167412   0.414   6.643  13.142 -0.9969  0.3804 -0.0974
15307TIP3    H267413   0.553   6.700  13.164 -0.8273 -0.0397 -0.0773
15308TIP3   OH267414   4.489   5.054   2.409  0.2711  0.1929  0.0506
15308TIP3    H167415   4.410   5.107   2.409  0.6621  0.8114  1.2985
15308TIP3    H267416   4.552   5.103   2.356  0.4871  0.7654  0.8252
15309TIP3   OH267417   5.722   6.296   4.090 -0.1917 -0.0505  0.5411
15309TIP3    H167418   5.640   6.324   4.049 -0.6395 -0.7792  0.9247
15309TIP3    H267419   5.695   6.262   4.175  0.6653  0.9149  1.2243
15310TIP3   OH267420   5.734   2.033  15.591  0.1072  0.0377 -0.4525
15310TIP3    H167421   5.684   2.015  15.670 -0.8734 -0.0109 -1.0689
15310TIP3    H267422   5.758   1.947  15.557  0.7870  0.0643 -0.0587
15311TIP3   OH267423   6.582   3.994  11.341  0.4982  0.2731 -0.2397
15311TIP3    H167424   6.518   4.023  11.276  0.3453 -1.7850 -1.0762
15311TIP3    H267425   6.643   4.068  11.348 -0.6046  1.3248 -1.2024
15312TIP3   OH267426   5.839   3.614   2.424 -0.0524  0.4476  0.5760
15312TIP3    H167427   5.838   3.661   2.507  0.3689  1.6310 -0.0620
15312TIP3    H267428   5.897   3.666   2.368  1.0471 -1.2444  0.0534
15313TIP3   OH267429   2.326   4.455  14.876 -0.1112  0.2673  0.2705
15313TIP3    H167430   2.260   4.447  14.808  1.2334 -1.6366 -0.9058
15313TIP3    H267431   2.290   4.404  14.949 -0.0990 -0.5228 -0.2580
15314TIP3   OH267432   2.595   5.055   4.160 -0.3520  0.7193  0.3269
15314TIP3    H167433   2.683   5.023   4.178 -0.4018  1.5371  2.2733
15314TIP3    H267434   2.609   5.130   4.102  0.2692  1.0555  0.8949
15315TIP3   OH267435   2.467   0.448   5.000  0.6800 -0.2527  0.2952
15315TIP3    H167436   2.404   0.393   4.953  0.0519  1.0458 -0.4326
15315TIP3    H267437   2.431   0.537   4.994  2.4600  0.5004  0.0515
15316TIP3   OH267438   3.140   6.606   6.162 -0.3077 -0.1162  0.4293
15316TIP3    H167439   3.233   6.593   6.180 -0.5659 -0.9318  1.2408
15316TIP3    H267440   3.095   6.568   6.238 -1.3658 -1.7847 -0.9418
15317TIP3   OH267441   1.959   3.098   0.120  0.1670 -0.6632 -0.5659
15317TIP3    H167442   1.921   3.185   0.110  1.1834 -0.1031  0.2295
15317TIP3    H267443   1.922   3.047   0.048  0.2010  0.6598 -1.5621
15318TIP3   OH267444   3.410   0.262  16.302 -0.1928  0.0216  0.0014
15318TIP3    H167445   3.338   0.205  16.328 -0.7404  0.9633  0.6142
15318TIP3    H267446   3.489   0.212  16.321 -0.6246 -0.0197  1.8632
15319TIP3   OH267447   6.283   3.067   1.824 -0.4571  0.5491  0.8433
15319TIP3    H167448   6.349   3.061   1.756 -0.8079 -1.4173  0.6311
15319TIP3    H267449   6.294   2.987   1.876 -2.9021 -0.0333  0.5628
15320TIP3   OH267450   1.360   2.930   3.781  0.5143  0.1262  0.3392
15320TIP3    H167451   1.321   2.843   3.787  2.6831 -1.0659 -1.4248
15320TIP3    H267452   1.322   2.969   3.703 -0.4706  0.8202  1.1379
15321TIP3   OH267453   4.258   5.800  12.969  0.4523  0.3241 -0.3578
15321TIP3    H167454   4.165   5.813  12.950  0.0817 -0.9076  0.5016
15321TIP3    H267455   4.280   5.871  13.029 -0.0342  0.3950 -0.2580
15322TIP3   OH267456   4.869   4.058  16.456 -0.6676  0.0966  0.4786
15322TIP3    H167457   4.893   3.977  16.412 -1.6253 -0.5136  1.0283
15322TIP3    H267458   4.921   4.058  16.536  1.2495  1.3221 -0.7027
15323TIP3   OH267459   2.035   0.771   1.297 -0.9410 -0.1458 -0.5500
15323TIP3    H167460   2.088   0.691   1.290 -2.0217 -0.7915 -1.7395
15323TIP3    H267461   1.945   0.740   1.301 -1.3349  0.9980 -0.0111
15324TIP3   OH267462   1.378   5.941  16.875  0.1940 -0.3990  0.2431
15324TIP3    H167463   1.290   5.906  16.860  0.2753 -0.6885  0.4425
15324TIP3    H267464   1.363   6.020  16.927  0.1098 -0.9510  1.0791
15325TIP3   OH267465   5.557   1.429  16.275  0.1890 -0.2262 -0.8320
15325TIP3    H167466   5.593   1.471  16.197 -0.0338 -1.4259 -1.6134
15325TIP3    H267467   5.466   1.459  16.279  0.4506  0.5531 -0.4944
15326TIP3   OH267468   5.147   0.252   3.747  0.8615 -0.2951  0.2100
15326TIP3    H167469   5.146   0.225   3.839  0.2602 -0.6698  0.0980
15326TIP3    H267470   5.236   0.236   3.718  0.6806 -1.5829  0.3167
15327TIP3   OH267471   3.781   1.246   2.420  0.7353  0.1412  0.3882
15327TIP3    H167472   3.771   1.153   2.442  0.3459  0.4222  1.4633
15327TIP3    H267473   3.798   1.246   2.325 -1.9499 -0.8654 -0.1874
15328TIP3   OH267474   2.438   2.780   2.177  0.8167 -0.0496 -0.0824
15328TIP3    H167475   2.499   2.839   2.133 -0.1685  0.1262 -1.2738
15328TIP3    H267476   2.360   2.780   2.122 -0.5753  0.3229  1.7751
15329TIP3   OH267477   1.496   0.669  12.936  0.2770  0.0826 -0.0250
15329TIP3    H167478   1.416   0.673  12.988 -0.8361 -2.4237 -1.3669
15329TIP3    H267479   1.511   0.759  12.907 -1.1542  0.8634  1.5085
15330TIP3   OH267480   0.877   1.235  14.388  0.2012 -0.6885  0.5970
15330TIP3    H167481   0.867   1.156  14.335  0.9302 -1.2728  1.3123
15330TIP3    H267482   0.928   1.207  14.464  0.1680  0.3938  1.0360
15331TIP3   OH267483   6.005   2.874  14.834  0.1404 -0.3401 -0.1642
15331TIP3    H167484   6.049   2.935  14.893 -0.5447 -0.4322  0.4623
15331TIP3    H267485   6.046   2.789  14.851  0.9727 -0.1020 -0.9096
15332TIP3   OH267486   6.557   4.307   4.068  0.1607 -0.2270 -0.2022
15332TIP3    H167487   6.623   4.352   4.017 -0.9051 -0.7937 -2.1786
15332TIP3    H267488   6.481   4.365   4.066  0.2429 -0.0257  1.2092
15333TIP3   OH267489   2.297   1.987   5.001 -0.5561  0.1208  0.0011
15333TIP3    H167490   2.378   1.999   5.051  0.4061 -0.5641 -1.3458
15333TIP3    H267491   2.243   1.931   5.058  0.8239 -1.3098 -0.0010
15334TIP3   OH267492   2.351   6.613  12.690  0.1207  0.1688 -0.1909
15334TIP3    H167493   2.265   6.618  12.732 -0.0773  2.0694 -0.7323
15334TIP3    H267494   2.396   6.543  12.738 -0.7085  1.0492  2.0285
15335TIP3   OH267495   3.078   1.954  16.680  0.2016  0.1515  0.2275
15335TIP3    H167496   3.160   2.004  16.676 -0.1167  1.1041  3.2631
15335TIP3    H267497   3.100   1.877  16.732 -0.6227 -0.0146  0.3419
15336TIP3   OH267498   1.918   4.769  15.037 -0.2776  0.0053 -0.4118
15336TIP3    H167499   1.825   4.781  15.055 -0.1164  0.9700 -0.1310
15336TIP3    H267500   1.938   4.833  14.969  0.2652  0.0988 -0.1708
15337TIP3   OH267501   2.278   5.827  16.989 -0.6701  0.4827 -0.0106
15337TIP3    H167502   2.360   5.824  17.039 -1.8999  0.9805  2.1530
15337TIP3    H267503   2.250   5.919  16.994 -2.1799  0.0036  0.6980
15338TIP3   OH267504   0.617   3.284  10.954  0.0514  0.5393 -0.3601
15338TIP3    H167505   0.629   3.240  10.870  0.6027  0.7431 -0.3920
15338TIP3    H267506   0.635   3.217  11.019 -1.0596  0.1888 -0.3881
15339TIP3   OH267507   1.614   1.224   5.910  0.6703 -0.1143 -0.3269
15339TIP3    H167508   1.704   1.243   5.881  0.6385  0.4393 -0.0684
15339TIP3    H267509   1.603   1.277   5.988  0.3132 -0.6338 -0.0223
15340TIP3   OH267510   4.080   2.313   5.802 -0.3858 -0.0035  0.1550
15340TIP3    H167511   4.155   2.373   5.796 -0.9889  0.8433  0.8415
15340TIP3    H267512   4.110   2.244   5.862  0.0932 -0.0500 -0.1348
15341TIP3   OH267513   3.489   4.528  15.464 -0.5552  0.3835 -0.1321
15341TIP3    H167514   3.469   4.467  15.392  2.5947  1.1532 -1.8336
15341TIP3    H267515   3.553   4.482  15.517 -1.3163  0.6318  1.0200
15342TIP3   OH267516   3.964   4.522  12.408 -0.5568 -0.4908  0.4125
15342TIP3    H167517   3.890   4.583  12.415 -0.5612 -0.3931 -0.3831
15342TIP3    H267518   4.033   4.573  12.366 -0.1876 -0.7148  0.7476
15343TIP3   OH267519   0.096   6.554  13.361  0.6707 -0.2325  0.8070
15343TIP3    H167520   0.108   6.633  13.414  0.9026 -0.1435  0.6251
15343TIP3    H267521   0.016   6.571  13.310  1.9302  0.8650 -0.9227
15344TIP3   OH267522   4.995   6.590  15.305 -0.3707 -0.2980  0.6182
15344TIP3    H167523   4.973   6.617  15.216 -0.3160 -1.6126  0.1775
15344TIP3    H267524   5.033   6.503  15.294 -0.8838 -0.7095  1.9908
15345TIP3   OH267525   1.526   6.294  12.718  0.0963 -0.2640  0.6119
15345TIP3    H167526   1.485   6.260  12.638  1.5066  2.8919 -1.6656
15345TIP3    H267527   1.606   6.244  12.728  0.2436 -0.2428 -0.3933
15346TIP3   OH267528   5.532   0.514  13.196 -0.1763 -0.0277 -0.6521
15346TIP3    H167529   5.462   0.578  13.180 -1.3786 -0.5623  1.9728
15346TIP3    H267530   5.494   0.451  13.257  2.5636 -0.3779  0.8473
15347TIP3   OH267531   4.096   2.773   3.298  0.1039  0.0555 -0.3915
15347TIP3    H167532   4.122   2.685   3.325 -4.4183 -1.0598  1.2142
15347TIP3    H267533   4.114   2.828   3.374 -1.5064 -0.5651  0.4712
15348TIP3   OH267534   6.549   2.123   3.961 -0.1623  0.6625 -0.3164
15348TIP3    H167535   6.570   2.049   4.018 -1.1461  1.4463  1.1314
15348TIP3    H267536   6.621   2.127   3.898  1.5574  0.4208  1.5483
15349TIP3   OH267537   5.911   2.939  12.852  0.4001  0.4580 -0.3779
15349TIP3    H167538   5.856   3.017  12.842 -0.3166 -0.0343 -0.3845
15349TIP3    H267539   5.931   2.912  12.763 -1.0867 -0.5475 -0.4344
15350TIP3   OH267540   4.873   3.048   1.579 -0.7731 -0.0440  0.3714
15350TIP3    H167541   4.879   2.974   1.639  2.2862 -0.1389  0.1211
15350TIP3    H267542   4.854   3.007   1.494  0.6436 -0.5515  0.2777
15351TIP3   OH267543   5.519   0.876   0.274 -0.3887  0.0067 -0.1244
15351TIP3    H167544   5.479   0.892   0.189  1.7837 -0.5266 -1.3324
15351TIP3    H267545   5.611   0.856   0.254  0.9837  2.7485  2.5267
15352TIP3   OH267546   6.441   4.035  11.618  0.1394 -0.0782  0.5429
15352TIP3    H167547   6.425   3.956  11.670  1.3941 -0.3807  0.5125
15352TIP3    H267548   6.530   4.060  11.640  0.4265  0.2358 -0.8713
15353TIP3   OH267549   2.255   1.178   4.674 -0.0113  0.0887 -0.5553
15353TIP3    H167550   2.195   1.219   4.611  0.6499  0.7931 -0.7526
15353TIP3    H267551   2.262   1.242   4.745 -0.5361 -0.5826  0.1042
15354TIP3   OH267552   4.032   2.209  11.918 -0.2058 -0.4950  0.2290
15354TIP3    H167553   4.065   2.243  12.001  1.7057 -1.1223 -0.2075
15354TIP3    H267554   4.099   2.233  11.854 -0.4532 -2.0570 -0.6839
15355TIP3   OH267555   1.594   1.032   2.301 -0.6687  0.0677  0.2756
15355TIP3    H167556   1.562   0.971   2.234  0.6352  0.6617 -0.9379
15355TIP3    H267557   1.624   0.975   2.372 -1.4935 -0.5963  0.1229
15356TIP3   OH267558   4.295   1.273  15.724  0.1359 -0.1253 -0.5399
15356TIP3    H167559   4.273   1.235  15.639  1.0968  1.0068 -1.3300
15356TIP3    H267560   4.324   1.362  15.703  1.1735 -0.0957  0.8947
15357TIP3   OH267561   2.817   5.803   4.012 -0.5753 -0.1022  0.9526
15357TIP3    H167562   2.897   5.765   3.976 -0.6292  0.9668 -0.3895
15357TIP3    H267563   2.843   5.844   4.093  0.3195  0.5318  0.3571
15358TIP3   OH267564   0.625   1.947  12.569  0.1566  0.2306 -0.2139
15358TIP3    H167565   0.576   1.874  12.533 -0.2140 -0.1179  0.9336
15358TIP3    H267566   0.717   1.923  12.556  0.0331 -0.2205 -0.2820
15359TIP3   OH267567   6.800   2.010   4.874 -0.0568 -0.4622 -0.0427
15359TIP3    H167568   6.854   2.089   4.875  2.0975 -1.8261 -1.5237
15359TIP3    H267569   6.848   1.948   4.929 -2.1088 -0.5983  1.7400
15360TIP3   OH267570   4.226   0.770  11.206  0.1112  0.8270  0.4505
15360TIP3    H167571   4.186   0.829  11.143  0.8552  1.0456  0.1816
15360TIP3    H267572   4.296   0.821  11.247  0.1536  0.4348  0.8846
15361TIP3   OH267573   2.851   5.136   1.966  0.0984  0.3001  1.0208
15361TIP3    H167574   2.838   5.149   1.872  0.8523  2.7405  1.1724
15361TIP3    H267575   2.766   5.106   1.999 -0.4389  0.3106 -0.3068
15362TIP3   OH267576   2.522   1.971   1.302 -0.1316 -0.0899 -0.7739
15362TIP3    H167577   2.591   2.034   1.281  0.2329  0.7988  2.5342
15362TIP3    H267578   2.567   1.887   1.307  1.1489  0.6371  2.4925
15363TIP3   OH267579   6.225   3.654   2.385 -0.2814 -0.1324 -0.3590
15363TIP3    H167580   6.210   3.578   2.330 -0.0584 -0.2173 -0.3006
15363TIP3    H267581   6.311   3.640   2.424  0.5225  0.9690 -1.6814
15364TIP3   OH267582   0.100   4.055  13.736 -0.2232  0.3025 -0.7597
15364TIP3    H167583   0.194   4.063  13.751  0.0088 -1.3354 -1.1454
15364TIP3    H267584   0.092   3.992  13.664 -1.6705 -1.9044  1.2023
15365TIP3   OH267585   5.860   6.594   0.441  0.6348  0.0119  0.7438
15365TIP3    H167586   5.877   6.574   0.533  3.8102  1.6928  0.6658
15365TIP3    H267587   5.842   6.688   0.439 -2.2318 -0.4494 -0.1521
15366TIP3   OH267588   4.221   6.009  13.795  0.2244 -0.7036 -0.1961
15366TIP3    H167589   4.196   6.064  13.720  1.1671 -1.0093 -0.7560
15366TIP3    H267590   4.303   5.968  13.768  1.4909  0.4666  1.6546
15367TIP3   OH267591   1.494   6.798  12.839  0.1905  0.0888 -0.2699
15367TIP3    H167592   1.409   6.830  12.809  0.3736  0.4329 -0.4255
15367TIP3    H267593   1.527   6.868  12.897  0.3664 -0.0421 -0.2107
15368TIP3   OH267594   3.196   1.460  12.331 -0.1470 -0.1081 -0.7848
15368TIP3    H167595   3.266   1.399  12.308  0.8805  1.2654 -1.4104
15368TIP3    H267596   3.119   1.404  12.343  1.4277 -1.9659  1.9838
15369TIP3   OH267597   1.866   6.248  14.879  0.2325  0.0308  0.1338
15369TIP3    H167598   1.849   6.196  14.957 -0.1615  0.2687  0.2065
15369TIP3    H267599   1.784   6.245  14.829  0.0302  1.0065  0.3840
15370TIP3   OH267600   3.849   0.114  12.648 -0.0417  0.0910  0.1769
15370TIP3    H167601   3.791   0.165  12.705  0.0143  1.1226 -0.6562
15370TIP3    H267602   3.810   0.027  12.645 -0.8865  0.4470  0.5868
15371TIP3   OH267603   2.347   3.066   3.650  0.4419  0.5133  0.9849
15371TIP3    H167604   2.398   3.114   3.715  0.2394  0.2576  1.3347
15371TIP3    H267605   2.258   3.098   3.661  0.0810 -0.7109  1.9844
15372TIP3   OH267606   4.721   1.420  12.071  0.2760  0.3580  0.2482
15372TIP3    H167607   4.767   1.492  12.026  1.4512 -0.4197  0.1697
15372TIP3    H267608   4.648   1.399  12.013  0.0062  1.3646  0.1904
15373TIP3   OH267609   2.701   5.791  15.492 -0.0203  0.5024  0.3583
15373TIP3    H167610   2.666   5.737  15.422  0.2608  0.1522  0.4872
15373TIP3    H267611   2.626   5.807  15.550 -0.2897  0.9350 -0.1100
15374TIP3   OH267612   6.342   3.511  16.972  0.6724 -0.4135 -0.1978
15374TIP3    H167613   6.387   3.548  16.895  0.6619 -1.2704 -0.6216
15374TIP3    H267614   6.251   3.503  16.945 -0.1398  2.7303  1.1591
15375TIP3   OH267615   1.733   0.731  13.284  0.2291  0.2679  0.4953
15375TIP3    H167616   1.725   0.645  13.243 -0.8586 -0.0600  1.3512
15375TIP3    H267617   1.746   0.791  13.211  0.3469 -0.5404 -0.1646
15376TIP3   OH267618   0.100   3.253   5.180  0.0988 -0.0932 -0.3494
15376TIP3    H167619   0.100   3.347   5.164  1.3396 -0.1513 -0.7700
15376TIP3    H267620   0.185   3.234   5.217 -0.3411 -0.9836  0.2446
15377TIP3   OH267621   2.658   6.194   4.634  0.3157  0.0401 -0.4411
15377TIP3    H167622   2.565   6.170   4.638 -0.4458  2.3692 -2.0761
15377TIP3    H267623   2.699   6.120   4.590 -0.7160 -1.1194  0.4730
15378TIP3   OH267624   5.978   0.268   1.205 -0.0256 -0.4165  0.1704
15378TIP3    H167625   6.064   0.268   1.249  0.6352 -0.7224 -1.0796
15378TIP3    H267626   5.985   0.198   1.140 -0.3725  1.1099 -1.5804
15379TIP3   OH267627   2.511   4.794   4.213 -0.3203 -0.1604 -0.1403
15379TIP3    H167628   2.594   4.748   4.227 -0.6745 -0.7521  0.0458
15379TIP3    H267629   2.537   4.884   4.194  0.3495 -0.2364  0.3674
15380TIP3   OH267630   5.708   6.721   3.093 -0.3460  0.3460  0.4539
15380TIP3    H167631   5.780   6.663   3.116 -0.7776  0.3401  1.8543
15380TIP3    H267632   5.633   6.663   3.081 -0.2468  0.3975 -0.5705
15381TIP3   OH267633   6.636   2.139   2.645  0.0837 -0.0109 -0.3332
15381TIP3    H167634   6.731   2.133   2.655  0.1967  2.5675  0.6947
15381TIP3    H267635   6.601   2.116   2.731 -0.1657  0.3741 -0.3342
15382TIP3   OH267636   0.679   1.783   4.936 -0.2907 -0.4315  0.0943
15382TIP3    H167637   0.696   1.871   4.971  0.1106 -0.3492 -0.2928
15382TIP3    H267638   0.586   1.768   4.953 -0.1238 -0.3799  1.1542
15383TIP3   OH267639   2.365   4.006  13.785  0.1206 -1.0603 -0.2004
15383TIP3    H167640   2.381   4.085  13.733  0.4298 -0.9334  0.0879
15383TIP3    H267641   2.393   4.029  13.873 -1.0531 -1.0429  0.1826
15384TIP3   OH267642   2.609   5.550  11.148  0.0805  0.0629  0.4742
15384TIP3    H167643   2.667   5.592  11.211 -0.4216 -0.0197  1.0002
15384TIP3    H267644   2.645   5.575  11.062 -1.5127  3.6735  0.6340
15385TIP3   OH267645   4.517   5.116  12.115 -0.2168  0.2151 -0.1400
15385TIP3    H167646   4.607   5.137  12.093  0.0622  1.4858  1.9653
15385TIP3    H267647   4.523   5.046  12.180 -0.7064  0.7051  0.4483
15386TIP3   OH267648   4.828   0.355  14.853  0.2481  0.2684 -0.0292
15386TIP3    H167649   4.835   0.429  14.794 -1.0734  0.1918 -0.3133
15386TIP3    H267650   4.800   0.394  14.936 -0.7912  0.0780 -0.2725
15387TIP3   OH267651   6.764   5.101   3.312  0.1814  0.2231 -0.4295
15387TIP3    H167652   6.799   5.042   3.245 -1.6268 -0.1308 -1.1181
15387TIP3    H267653   6.771   5.052   3.393  3.5136  1.1006 -0.0442
15388TIP3   OH267654   6.711   0.012   0.761  0.5909  0.1188 -0.3307
15388TIP3    H167655   6.793   0.061   0.761  2.0810 -2.1176  1.8117
15388TIP3    H267656   6.726  -0.060   0.699 -0.0206  0.0563 -0.4137
15389TIP3   OH267657   2.011   5.751   0.986  0.1326  0.0549  0.8204
15389TIP3    H167658   1.940   5.801   1.024  0.5288  0.4954  0.9952
15389TIP3    H267659   2.080   5.752   1.052  0.6089  0.3367  0.3339
15390TIP3   OH267660   3.355   3.423  14.933  0.0230  0.5465  0.0026
15390TIP3    H167661   3.311   3.387  14.855  0.6281 -0.2575  0.0178
15390TIP3    H267662   3.341   3.517  14.926 -2.5153  0.2849  0.5069
15391TIP3   OH267663   6.627   2.654   0.479  0.0390  0.6086  0.1673
15391TIP3    H167664   6.562   2.590   0.451  1.4655 -1.7500  1.9319
15391TIP3    H267665   6.598   2.681   0.567  0.4680  0.9564  0.2063
15392TIP3   OH267666   2.954   1.802  14.661 -0.4477 -0.3436 -0.1382
15392TIP3    H167667   2.883   1.739  14.662  0.7288 -1.7633 -1.2462
15392TIP3    H267668   2.978   1.814  14.753 -1.7314 -0.2644  0.1923
15393TIP3   OH267669   2.141   4.773  11.416  0.5042  0.3835 -0.3927
15393TIP3    H167670   2.058   4.817  11.436 -0.2057 -0.0622 -2.1828
15393TIP3    H267671   2.183   4.829  11.351  1.7175  0.6767  0.5973
15394TIP3   OH267672   3.008   5.251   5.504  0.3387  0.1874  1.0692
15394TIP3    H167673   2.977   5.331   5.462 -2.8603 -1.5573 -0.2628
15394TIP3    H267674   3.037   5.195   5.432 -1.0156 -1.2140  1.5619
15395TIP3   OH267675   3.064   3.263   1.873 -1.1206 -0.7733  0.5267
15395TIP3    H167676   3.086   3.307   1.791  2.1868  0.7241  2.0068
15395TIP3    H267677   2.980   3.301   1.900 -0.6595  1.1783 -0.5952
15396TIP3   OH267678   0.048   6.506  14.083  0.4037 -0.2581 -0.4318
15396TIP3    H167679   0.119   6.484  14.143  0.0794  3.3134  1.5351
15396TIP3    H267680  -0.032   6.490  14.132  0.0702  0.9119 -0.5583
15397TIP3   OH267681   1.964   3.234   2.927 -0.0024 -0.0258  0.1691
15397TIP3    H167682   2.004   3.162   2.975 -0.7362 -0.0738  0.7195
15397TIP3    H267683   2.007   3.313   2.960  2.4475 -0.3058 -2.0331
15398TIP3   OH267684   1.864   0.356   6.074 -0.1769  0.2146 -0.3110
15398TIP3    H167685   1.935   0.370   6.137 -0.2901  0.4758 -0.2398
15398TIP3    H267686   1.786   0.341   6.129  0.0731 -1.4573 -0.3727
15399TIP3   OH267687   0.445   2.985  12.642  0.3026  0.4269  0.7347
15399TIP3    H167688   0.497   2.942  12.575 -0.1351  1.4431 -0.2998
15399TIP3    H267689   0.509   3.022  12.703  0.7190 -0.1204  0.6273
15400TIP3   OH267690   1.606   5.977  12.808 -0.5303 -0.1475 -0.0626
15400TIP3    H167691   1.660   6.055  12.800 -1.3347  0.4168 -0.1379
15400TIP3    H267692   1.658   5.907  12.769  0.6626  0.1152  1.0199
15401TIP3   OH267693   2.926   1.977  16.115  0.0769  0.5977 -0.1658
15401TIP3    H167694   2.914   1.891  16.075  0.5846 -0.1538  1.2368
15401TIP3    H267695   3.020   1.993  16.108  0.2053  0.3643  0.8596
15402TIP3   OH267696   0.008   5.810   4.883  0.1083 -0.0707  0.0537
15402TIP3    H167697   0.037   5.900   4.896  0.3799 -0.3124  1.2219
15402TIP3    H267698  -0.068   5.818   4.826 -0.6358  1.0179  1.1521
15403TIP3   OH267699   0.126   3.666  13.317 -0.5637  0.4867  0.3235
15403TIP3    H167700   0.069   3.678  13.240 -1.9958 -0.4066  1.2002
15403TIP3    H267701   0.085   3.595  13.366  0.8814  0.3749  1.4246
15404TIP3   OH267702   3.776   4.347   2.547 -0.1066  0.1831 -0.0104
15404TIP3    H167703   3.852   4.368   2.602  1.3436 -0.7956 -1.5285
15404TIP3    H267704   3.804   4.372   2.458 -1.2762 -0.8730 -0.7027
15405TIP3   OH267705   4.111   2.124  15.455  0.5108 -0.1794 -0.0702
15405TIP3    H167706   4.128   2.116  15.549  1.3493 -1.8404 -0.3234
15405TIP3    H267707   4.032   2.072  15.441  1.8848 -2.2137 -0.6495
15406TIP3   OH267708   6.706   4.805   3.442 -0.3563  0.9181 -0.3555
15406TIP3    H167709   6.650   4.841   3.511  0.6160  1.6065  0.0824
15406TIP3    H267710   6.795   4.820   3.472  0.0860 -0.5763 -0.8403
15407TIP3   OH267711   6.434   1.110  11.364 -0.5035 -0.4092  0.2875
15407TIP3    H167712   6.415   1.124  11.271  2.8853  1.7249 -0.2606
15407TIP3    H267713   6.526   1.081  11.366 -0.8030 -1.4811  2.9449
15408TIP3   OH267714   5.082   0.917   0.160  0.1506 -0.2335  0.5428
15408TIP3    H167715   5.064   0.919   0.066 -0.6529 -4.0461  0.4496
15408TIP3    H267716   5.042   0.997   0.194  0.7884  1.4497 -2.3321
15409TIP3   OH267717   6.647   3.739   0.883  0.0681 -0.0256  0.3232
15409TIP3    H167718   6.709   3.665   0.883 -0.2161 -0.4186 -3.1989
15409TIP3    H267719   6.702   3.816   0.897  1.0492 -0.5602 -0.4524
15410TIP3   OH267720   0.123   5.524  14.877  0.3920 -0.2149  0.0898
15410TIP3    H167721   0.150   5.584  14.947  2.0629 -1.3907  0.5256
15410TIP3    H267722   0.179   5.447  14.889 -0.4012 -1.1022 -1.5793
15411TIP3   OH267723   0.726   2.213  11.012  0.1529  0.7599  0.1396
15411TIP3    H167724   0.678   2.202  10.929  0.0458  1.3059  0.1266
15411TIP3    H267725   0.816   2.233  10.985 -0.1904  2.3791  0.1284
15412TIP3   OH267726   2.666   2.493  12.389 -0.3873 -1.1154 -0.0480
15412TIP3    H167727   2.624   2.418  12.431 -0.3167 -1.4804 -0.6308
15412TIP3    H267728   2.750   2.502  12.434 -0.1669 -1.7165 -0.3403
15413TIP3   OH267729   2.429   2.992  12.546 -0.1499  0.0574 -0.3400
15413TIP3    H167730   2.509   3.006  12.595 -0.1884  1.3036 -0.6102
15413TIP3    H267731   2.411   2.898  12.555  1.3354 -0.2385 -0.2969
15414TIP3   OH267732   0.925   0.421  13.694  0.4780 -0.6365  0.3682
15414TIP3    H167733   0.917   0.386  13.606  1.9332  0.2984 -0.1634
15414TIP3    H267734   0.836   0.448  13.717  0.0714 -0.9618 -0.7766
15415TIP3   OH267735   2.743   4.713  11.805  0.0158  0.2823 -0.8086
15415TIP3    H167736   2.650   4.733  11.813 -0.4890 -2.3665  1.6613
15415TIP3    H267737   2.785   4.771  11.868  0.0516  1.3603 -1.8019
15416TIP3   OH267738   4.072   4.924  17.114  0.3315  0.2471 -0.2445
15416TIP3    H167739   4.017   4.998  17.088  1.1182  1.0246  0.2410
15416TIP3    H267740   4.012   4.850  17.118 -0.4299  0.7938 -0.9969
15417TIP3   OH267741   4.556   1.027   5.709  0.2213  0.1322  0.0539
15417TIP3    H167742   4.490   0.960   5.686  0.5306 -0.2778  0.3419
15417TIP3    H267743   4.514   1.110   5.687 -0.9740 -0.0211  1.5636
15418TIP3   OH267744   5.169   2.540  13.927 -0.3122  0.5200  0.8274
15418TIP3    H167745   5.233   2.611  13.938 -1.4729  1.5241  1.4185
15418TIP3    H267746   5.220   2.466  13.895  1.1594  1.2467  1.3969
15419TIP3   OH267747   5.192   3.885  16.821 -0.3759  0.7112  0.3149
15419TIP3    H167748   5.130   3.812  16.824 -0.2262  0.4327 -1.7852
15419TIP3    H267749   5.159   3.947  16.887 -1.3915 -0.5405  1.0413
15420TIP3   OH267750   4.692   4.013  12.824 -0.1119  0.3243  0.3638
15420TIP3    H167751   4.623   4.079  12.829  0.0747  0.5695 -0.2672
15420TIP3    H267752   4.768   4.059  12.790 -0.1618 -0.3484 -0.6914
15421TIP3   OH267753   5.834   3.273  14.133 -0.3913 -0.1392 -0.1157
15421TIP3    H167754   5.831   3.368  14.119 -2.0439 -0.1561 -0.0831
15421TIP3    H267755   5.775   3.258  14.206  0.0249 -1.1872  0.0249
15422TIP3   OH267756   3.962   0.013   3.670  0.7825  0.5523 -0.3886
15422TIP3    H167757   3.958   0.088   3.610 -0.5087  0.8028 -0.0138
15422TIP3    H267758   3.884   0.021   3.724  0.1568 -1.5514 -0.9060
15423TIP3   OH267759   4.490   6.292  13.574  0.5594 -0.1471  0.4806
15423TIP3    H167760   4.509   6.342  13.653 -1.5313  1.4590  0.0423
15423TIP3    H267761   4.491   6.357  13.503  0.4591 -1.2037 -0.5245
15424TIP3   OH267762   0.926   2.153   6.408  0.2934  0.0997  0.2083
15424TIP3    H167763   0.845   2.167   6.358 -0.8014 -0.2378  1.7963
15424TIP3    H267764   0.930   2.226   6.469 -0.2406 -1.2048  1.9011
15425TIP3   OH267765   6.470   3.896  15.281  0.7287 -0.1893 -0.7147
15425TIP3    H167766   6.551   3.848  15.303  1.0237  0.7609  0.4004
15425TIP3    H267767   6.500   3.983  15.257  0.0886 -0.1012 -1.2071
15426TIP3   OH267768   5.230   3.419   5.040  0.1082 -0.2827  0.0855
15426TIP3    H167769   5.152   3.426   4.985  0.5256  0.4489 -0.4247
15426TIP3    H267770   5.240   3.506   5.079 -0.7815 -1.0503  2.1778
15427TIP3   OH267771   5.942   2.727  16.191  0.6235  0.2029 -0.2450
15427TIP3    H167772   5.874   2.660  16.201 -0.5250  1.3832  0.0605
15427TIP3    H267773   5.898   2.799  16.146  1.6792  0.9765 -0.0572
15428TIP3   OH267774   3.258   4.527  17.070 -0.4824  0.3822  0.1315
15428TIP3    H167775   3.228   4.580  16.996 -1.6497 -1.8128 -1.0722
15428TIP3    H267776   3.333   4.478  17.036 -1.9220 -1.7418 -0.1517
15429TIP3   OH267777   4.090   6.434   2.120  0.0242  0.5910 -0.8925
15429TIP3    H167778   4.108   6.512   2.172  1.2765  0.9185 -1.7789
15429TIP3    H267779   4.118   6.457   2.032  0.4417 -0.8715 -1.1604
15430TIP3   OH267780   5.087   5.916  11.548 -0.2426  0.0196  0.1906
15430TIP3    H167781   5.158   5.955  11.598 -0.7641 -1.2749  2.0486
15430TIP3    H267782   5.088   5.962  11.464  2.4819  0.3337  0.3201
15431TIP3   OH267783   3.847   5.719   1.912  0.4872  0.0531 -0.1162
15431TIP3    H167784   3.897   5.788   1.870 -0.0972  0.6819  0.2038
15431TIP3    H267785   3.891   5.705   1.996  0.8147 -0.2162 -0.3301
15432TIP3   OH267786   3.180   0.598  15.492 -0.5845 -0.1811 -0.4629
15432TIP3    H167787   3.169   0.544  15.570  1.0159  0.5148  0.2879
15432TIP3    H267788   3.117   0.669  15.502 -0.0635  0.1618  0.4433
15433TIP3   OH267789   2.814   4.402  16.567  0.4986 -0.3066 -0.1808
15433TIP3    H167790   2.731   4.359  16.546 -0.0747 -0.1219  1.5649
15433TIP3    H267791   2.789   4.475  16.624  1.9012 -0.4544  0.6502
15434TIP3   OH267792   3.111   6.043   6.111 -0.6524 -0.4775  0.1904
15434TIP3    H167793   3.018   6.053   6.132 -0.6273 -0.4139  0.2725
15434TIP3    H267794   3.155   6.109   6.165 -0.5983 -0.2103 -0.1823
15435TIP3   OH267795   4.711   4.398   1.393 -0.1010  0.0333 -0.1623
15435TIP3    H167796   4.676   4.345   1.464  1.0834  0.1917  0.5723
15435TIP3    H267797   4.731   4.336   1.324  0.5937 -0.3966  0.4157
15436TIP3   OH267798   1.796   0.914  13.053  0.3305  0.0468  0.3042
15436TIP3    H167799   1.749   0.919  12.970  1.0696 -1.0775 -0.2127
15436TIP3    H267800   1.823   1.005  13.071 -0.7986  0.4770 -0.0915
15437TIP3   OH267801   6.117   2.997   2.962  0.6432 -0.7279  0.2827
15437TIP3    H167802   6.165   3.032   2.887  0.8478  0.5361  0.9714
15437TIP3    H267803   6.061   3.069   2.990  0.0663 -1.4109  0.9372
15438TIP3   OH267804   6.192   4.098   2.031  0.4474  0.1544  0.2591
15438TIP3    H167805   6.242   4.051   2.097  0.6841  0.6289  0.4246
15438TIP3    H267806   6.117   4.043   2.013 -0.7846  0.9844  2.4883
15439TIP3   OH267807   4.967   3.803  13.574 -0.2990  0.4192 -0.1875
15439TIP3    H167808   4.958   3.831  13.666  1.7525  0.7870 -0.0485
15439TIP3    H267809   4.945   3.710  13.576  0.0090  0.3464  0.7545
15440TIP3   OH267810   1.794   5.132  15.791 -0.3022  0.3795  0.4110
15440TIP3    H167811   1.727   5.195  15.767  0.0412 -0.0729 -1.9018
15440TIP3    H267812   1.750   5.047  15.788 -0.0283  0.2320  0.5314
15441TIP3   OH267813   2.356   1.953  13.917 -0.3465  0.0784 -0.5048
15441TIP3    H167814   2.414   2.027  13.936  1.0239 -0.2288 -2.9882
15441TIP3    H267815   2.388   1.881  13.971 -1.0165  0.9564  1.1243
15442TIP3   OH267816   3.044   1.789   0.844  0.2326 -0.1729 -0.6149
15442TIP3    H167817   3.111   1.850   0.811  0.7771 -1.2302 -1.5187
15442TIP3    H267818   2.961   1.826   0.815  0.3461  1.3841  0.8769
15443TIP3   OH267819   5.395   2.633   3.020  0.4437  0.1732 -0.1058
15443TIP3    H167820   5.383   2.607   2.929  1.6692 -0.0061 -0.2308
15443TIP3    H267821   5.477   2.683   3.021 -0.8585  2.4753  0.4423
15444TIP3   OH267822   3.551   1.570   6.420  0.0241  0.1191 -0.0523
15444TIP3    H167823   3.471   1.622   6.435  1.5785  2.3103  1.3397
15444TIP3    H267824   3.588   1.606   6.339  1.3921  1.7070  1.2058
15445TIP3   OH267825   3.156   6.557   5.323  0.4281  0.1185  0.7028
15445TIP3    H167826   3.177   6.649   5.332  0.1831  0.2148  0.3309
15445TIP3    H267827   3.062   6.555   5.307  0.4230 -0.1970  0.7631
15446TIP3   OH267828   2.812   0.682  10.223  1.0644  0.1993  0.0470
15446TIP3    H167829   2.785   0.594  10.252 -0.2594  1.5377  3.3584
15446TIP3    H267830   2.888   0.702  10.278 -0.2068  2.0487  1.2169
15447TIP3   OH267831   1.111   3.122  11.534 -0.2641  0.2032 -0.1023
15447TIP3    H167832   1.154   3.038  11.515 -1.6360 -0.6416  0.3677
15447TIP3    H267833   1.036   3.124  11.475  0.8811  2.1198 -1.6267
15448TIP3   OH267834   0.818   3.122  15.683 -0.5175  0.3603  0.4283
15448TIP3    H167835   0.731   3.097  15.650 -0.0185 -1.5417  0.4477
15448TIP3    H267836   0.869   3.140  15.604 -0.5220  0.0310  0.3492
15449TIP3   OH267837   4.163   5.333  12.001 -0.0654  0.0367 -0.6185
15449TIP3    H167838   4.167   5.428  11.992 -1.1574  0.2452  0.5907
15449TIP3    H267839   4.082   5.318  12.052  0.3306 -1.4949 -0.3904
15450TIP3   OH267840   5.924   3.126   2.657  0.1601 -0.0146  0.0835
15450TIP3    H167841   6.003   3.134   2.604  0.0130  1.2032  0.0163
15450TIP3    H267842   5.914   3.212   2.699 -0.4424 -0.5386  1.0739
15451TIP3   OH267843   4.452   0.903   3.576 -0.0079  0.2522  0.0980
15451TIP3    H167844   4.441   0.808   3.572  1.9168  0.0254 -0.9259
15451TIP3    H267845   4.515   0.923   3.507  1.9615  1.8727  2.1882
15452TIP3   OH267846   1.994   0.114  16.399  0.2653  0.2756  0.2064
15452TIP3    H167847   1.920   0.085  16.345  1.2768 -1.0935 -0.5103
15452TIP3    H267848   2.066   0.125  16.338  1.4302 -1.2699  1.2137
15453TIP3   OH267849   5.817   4.958  11.725 -0.3899  0.2052  0.0571
15453TIP3    H167850   5.773   5.003  11.653  0.7167  1.1916 -0.0431
15453TIP3    H267851   5.837   4.871  11.690 -0.7471  0.3292 -0.4753
15454TIP3   OH267852   0.187   5.603   3.601 -0.2658  0.4584  0.0778
15454TIP3    H167853   0.252   5.533   3.596  0.5838  1.1850  0.6790
15454TIP3    H267854   0.179   5.635   3.511  0.0400  0.2065 -0.0392
15455TIP3   OH267855   2.270   3.160   5.907 -0.4818  0.1200  0.1575
15455TIP3    H167856   2.330   3.089   5.885 -1.8205 -0.5346 -1.6466
15455TIP3    H267857   2.269   3.215   5.828 -1.8833  0.3584  0.3223
15456TIP3   OH267858   2.431   0.498   2.132 -0.0267 -0.0709 -0.0419
15456TIP3    H167859   2.367   0.462   2.193  1.8075  0.0624  2.0719
15456TIP3    H267860   2.414   0.592   2.132  0.0327 -0.0624  0.3026
15457TIP3   OH267861   3.327   0.130  14.656  0.6127  0.1554  0.2296
15457TIP3    H167862   3.356   0.213  14.618  1.8982 -1.0195 -1.5067
15457TIP3    H267863   3.386   0.117  14.731  1.4330  0.0999 -0.4089
15458TIP3   OH267864   1.327   6.821   0.703  0.0136  0.1753 -0.1709
15458TIP3    H167865   1.398   6.773   0.661  0.7059 -1.1011  2.3017
15458TIP3    H267866   1.249   6.795   0.654  0.8167 -0.9998 -0.8782
15459TIP3   OH267867   6.118   2.802   4.733 -0.2491 -0.2287 -0.6582
15459TIP3    H167868   6.091   2.813   4.642  1.6994 -1.0569 -1.3974
15459TIP3    H267869   6.176   2.726   4.731 -0.0181 -0.1382  1.2584
15460TIP3   OH267870   3.543   5.296   5.330 -0.2383 -0.0781 -0.2927
15460TIP3    H167871   3.517   5.218   5.378 -0.5533  1.0999  1.5508
15460TIP3    H267872   3.626   5.272   5.288  0.0165 -1.1896  0.7970
15461TIP3   OH267873   0.904   1.736   5.389 -0.1163 -0.3691  0.2439
15461TIP3    H167874   0.976   1.781   5.345  0.5577 -0.9296  0.7688
15461TIP3    H267875   0.919   1.643   5.372 -0.7755 -0.4904  0.2799
15462TIP3   OH267876   4.327   4.216  15.059  0.2985  0.0766 -0.1692
15462TIP3    H167877   4.321   4.270  14.980  1.5285 -1.0586 -1.0826
15462TIP3    H267878   4.412   4.173  15.052 -0.1621 -1.0926  1.1096
15463TIP3   OH267879   5.233   5.080  16.806 -0.1574  0.0411 -0.4483
15463TIP3    H167880   5.250   5.172  16.783 -0.2320 -0.2354 -1.6810
15463TIP3    H267881   5.320   5.041  16.813 -0.1276  0.1790  0.0055
15464TIP3   OH267882   5.288   3.028   6.348  0.7421 -0.0699  0.2222
15464TIP3    H167883   5.338   3.038   6.429  0.3900  0.2989  0.3994
15464TIP3    H267884   5.351   2.994   6.285  0.9956 -0.4539  0.6757
15465TIP3   OH267885   0.007   1.160   3.031 -0.3011  0.8334  0.0970
15465TIP3    H167886  -0.047   1.160   2.952  0.0632  1.1004 -0.1501
15465TIP3    H267887  -0.056   1.165   3.103 -0.6952 -0.4695 -0.1276
15466TIP3   OH267888   1.590   6.485   6.135 -0.2740 -0.7298  0.1910
15466TIP3    H167889   1.545   6.461   6.216 -1.3939 -1.8595 -0.7174
15466TIP3    H267890   1.683   6.475   6.155 -0.5048 -0.5212  1.4612
15467TIP3   OH267891   1.712   3.834  11.826  0.0610 -0.0738 -0.3106
15467TIP3    H167892   1.796   3.812  11.866  0.9131 -1.6308 -2.7206
15467TIP3    H267893   1.724   3.924  11.796  1.8039 -0.9504 -2.5712
15468TIP3   OH267894   4.022   0.371  11.549 -0.1996 -0.4783 -0.2034
15468TIP3    H167895   4.058   0.341  11.633 -1.1658  0.7893  0.7071
15468TIP3    H267896   4.001   0.290  11.502 -0.4098 -1.2386  1.1295
15469TIP3   OH267897   1.994   4.604  14.735  0.6851  0.0712  0.1621
15469TIP3    H167898   2.017   4.605  14.828  1.3539  1.1767  0.0064
15469TIP3    H267899   2.071   4.567  14.692  0.1149 -1.0804  0.0882
15470TIP3   OH267900   6.683   5.263  16.213  0.4756  0.7188  0.6562
15470TIP3    H167901   6.753   5.257  16.148  2.3741  2.0978  2.4471
15470TIP3    H267902   6.656   5.354  16.211  0.0513  0.6171  1.2950
15471TIP3   OH267903   5.954   3.464  14.517 -0.1126  0.3829 -0.2255
15471TIP3    H167904   6.002   3.382  14.505  2.1622  1.6841 -0.5849
15471TIP3    H267905   5.897   3.447  14.592  1.6305 -0.9979  0.8891
15472TIP3   OH267906   1.162   5.442  14.520  0.2744 -0.0837 -0.0726
15472TIP3    H167907   1.125   5.355  14.507  2.9093 -1.2406 -0.5655
15472TIP3    H267908   1.185   5.471  14.431  1.6061  0.0235  0.2842
15473TIP3   OH267909   3.021   4.492  15.045  0.5082 -0.0028 -0.2258
15473TIP3    H167910   2.954   4.427  15.066 -0.6068  0.9834 -0.6280
15473TIP3    H267911   3.104   4.449  15.066 -0.2686 -1.0534  0.8185
15474TIP3   OH267912   5.454   1.204   5.289  0.0437  0.8751  0.3748
15474TIP3    H167913   5.454   1.258   5.210 -2.6041 -0.4819 -0.6968
15474TIP3    H267914   5.547   1.185   5.305  0.6732  0.7811 -2.7354
15475TIP3   OH267915   6.168   1.057  14.468  0.0114 -0.1141 -0.2358
15475TIP3    H167916   6.103   1.109  14.422 -1.6420 -2.6592 -1.0069
15475TIP3    H267917   6.120   1.016  14.540  1.2472 -0.4775  0.4153
15476TIP3   OH267918   2.582   4.939   5.034 -0.4793  0.1098  0.4749
15476TIP3    H167919   2.656   4.949   4.973 -0.5572  0.3569  0.4207
15476TIP3    H267920   2.546   5.028   5.043 -0.7752 -0.0130  0.4961
15477TIP3   OH267921   5.371   3.849   1.864 -0.0834  0.1608  0.4627
15477TIP3    H167922   5.439   3.853   1.797  0.4673  1.9822  1.0749
15477TIP3    H267923   5.415   3.874   1.945 -1.5565  2.0109  0.7731
15478TIP3   OH267924   3.247   4.534   1.642  0.5652 -0.0452 -0.3961
15478TIP3    H167925   3.291   4.470   1.586  0.9795 -0.9537  0.9152
15478TIP3    H267926   3.274   4.511   1.730  0.0078  1.4095  0.1922
15479TIP3   OH267927   2.641   1.570  16.550 -0.1940  0.4194 -0.1519
15479TIP3    H167928   2.691   1.570  16.469 -2.3950  0.8024 -1.5795
15479TIP3    H267929   2.556   1.533  16.527 -0.9034  0.5687  1.9691
15480TIP3   OH267930   0.130   1.430  16.444 -0.2432 -0.0553 -0.1289
15480TIP3    H167931   0.154   1.473  16.526 -1.6669  0.1723  0.1963
15480TIP3    H267932   0.048   1.471  16.418 -2.3135 -3.2216  0.7638
15481TIP3   OH267933   0.496   4.572  11.358  0.2040 -0.2739  0.1956
15481TIP3    H167934   0.497   4.666  11.377  2.6175 -0.1017 -0.4093
15481TIP3    H267935   0.527   4.530  11.439  2.3149 -0.2113 -0.5015
15482TIP3   OH267936   1.896   0.588  15.949  0.7757  0.0146 -0.1512
15482TIP3    H167937   1.957   0.630  16.010  1.3932  0.8314 -1.2801
15482TIP3    H267938   1.952   0.558  15.877 -0.0540  0.0338 -0.8108
15483TIP3   OH267939   3.699   3.805  12.601 -0.5671  0.3780  0.1374
15483TIP3    H167940   3.623   3.749  12.581 -0.7129 -0.6269  3.0447
15483TIP3    H267941   3.772   3.763  12.556 -1.4733  0.7114 -1.7626
15484TIP3   OH267942   0.306   0.190   6.012 -0.0042  0.3333  0.2271
15484TIP3    H167943   0.303   0.095   5.999  0.2354 -0.1264  3.0419
15484TIP3    H267944   0.279   0.204   6.102 -1.3676  3.1073 -0.4830
15485TIP3   OH267945   5.924   2.256  16.290  0.9567  0.1083 -0.3900
15485TIP3    H167946   5.833   2.250  16.320  0.8979 -1.5607 -0.7816
15485TIP3    H267947   5.925   2.209  16.207  2.3401 -0.7537  0.0658
15486TIP3   OH267948   5.370   3.925   1.093 -0.1818 -0.0379  0.1287
15486TIP3    H167949   5.372   3.923   1.189  1.2428 -0.2730  0.1091
15486TIP3    H267950   5.357   4.017   1.071 -0.6079  0.0046  0.5422
15487TIP3   OH267951   6.716   4.829  10.114 -0.9620  0.0474  0.2136
15487TIP3    H167952   6.804   4.799  10.093 -0.2886  0.0075  2.7329
15487TIP3    H267953   6.658   4.759  10.083 -0.1111 -0.1433 -1.0379
15488TIP3   OH267954   6.073   5.061   3.962 -0.0578  0.0066  0.7970
15488TIP3    H167955   5.986   5.096   3.942 -0.8148 -2.5650 -0.9129
15488TIP3    H267956   6.108   5.121   4.028 -1.3824  3.6256 -1.4596
15489TIP3   OH267957   0.316   5.068  13.983  1.2001 -0.4543  0.2991
15489TIP3    H167958   0.268   5.071  14.066  2.4380  1.3458  1.0106
15489TIP3    H267959   0.257   5.022  13.923  0.7159 -2.8705  2.4247
15490TIP3   OH267960   4.972   4.208   1.580  0.0490  0.5900  0.1100
15490TIP3    H167961   5.054   4.256   1.572  0.5632 -0.2549  0.1397
15490TIP3    H267962   4.998   4.120   1.605 -0.7954  0.0441 -0.8272
15491TIP3   OH267963   0.537   5.027   4.509  0.1438 -0.0409  0.4215
15491TIP3    H167964   0.589   5.103   4.484  1.0440 -0.4424  1.0146
15491TIP3    H267965   0.506   4.991   4.427  1.6606 -0.3773 -0.0392
15492TIP3   OH267966   3.666   5.566   2.166 -0.3018  0.7423 -0.6735
15492TIP3    H167967   3.659   5.647   2.116  0.6051  1.4532  0.3060
15492TIP3    H267968   3.750   5.572   2.211 -0.3823 -0.5792 -0.2856
15493TIP3   OH267969   3.252   1.475  13.409 -0.0599 -0.3398  0.1678
15493TIP3    H167970   3.214   1.393  13.442  1.0844 -0.7260  0.5674
15493TIP3    H267971   3.344   1.471  13.436 -0.0249  1.1529  0.3103
15494TIP3   OH267972   6.595   5.778  12.765 -0.0844 -0.6084 -0.5670
15494TIP3    H167973   6.512   5.770  12.719  0.6913 -1.4440 -1.8815
15494TIP3    H267974   6.654   5.717  12.721  1.4157  0.4076 -0.0801
15495TIP3   OH267975   1.221   3.566  15.599 -0.3861  0.3077  0.2894
15495TIP3    H167976   1.219   3.470  15.599 -0.9763  0.2938  1.8647
15495TIP3    H267977   1.180   3.591  15.516 -1.1662 -0.7927  0.3233
15496TIP3   OH267978   1.411   2.536   4.581 -0.9606 -0.6501 -0.2823
15496TIP3    H167979   1.457   2.460   4.615 -0.2279  0.0946  0.4520
15496TIP3    H267980   1.479   2.588   4.537 -1.6627 -0.9890 -1.8698
15497TIP3   OH267981   1.045   2.075   5.350  0.2791 -0.7091 -0.3382
15497TIP3    H167982   1.106   2.057   5.423  0.0235  0.8573  0.3141
15497TIP3    H267983   0.959   2.051   5.385 -0.0031  1.1607  0.3710
15498TIP3   OH267984   2.629   2.199   5.023  0.2603  0.9679 -1.0298
15498TIP3    H167985   2.545   2.240   5.002 -0.0203  0.0433 -1.7365
15498TIP3    H267986   2.610   2.139   5.095 -0.8289 -2.9750 -4.2726
15499TIP3   OH267987   0.870   1.641   3.590  1.0366 -0.0704  0.0024
15499TIP3    H167988   0.814   1.700   3.640 -0.1362  0.2981 -1.6638
15499TIP3    H267989   0.864   1.673   3.500  3.5447 -0.3328 -0.3370
15500TIP3   OH267990   2.811   5.136   4.964 -0.2753 -0.3162  0.3722
15500TIP3    H167991   2.777   5.217   4.926  0.0609 -0.9971 -1.4948
15500TIP3    H267992   2.790   5.142   5.057 -4.6879 -0.2485 -0.4284
15501TIP3   OH267993   5.152   0.360  13.106 -0.1934 -0.2849 -0.0996
15501TIP3    H167994   5.182   0.277  13.070 -0.7300  0.1183 -1.5311
15501TIP3    H267995   5.207   0.426  13.063  1.6195  0.0464  2.4703
15502TIP3   OH267996   4.488   2.932  12.111  0.0577  0.4048  0.4248
15502TIP3    H167997   4.456   2.914  12.199  1.4025  0.2763  0.9003
15502TIP3    H267998   4.493   3.028  12.107 -2.1563  0.5576 -0.3316
15503TIP3   OH267999   2.017   3.445  12.866 -0.0512 -0.1007  0.0303
15503TIP3    H168000   1.959   3.481  12.799  0.8813 -0.8374 -1.2321
15503TIP3    H268001   2.093   3.504  12.866 -0.5363  0.5565  1.2902
15504TIP3   OH268002   4.497   4.275   5.314 -0.2928 -1.0462  0.0548
15504TIP3    H168003   4.503   4.215   5.388  0.9412 -1.3478 -0.2836
15504TIP3    H268004   4.436   4.232   5.253  0.5823 -1.9679 -0.1892
15505TIP3   OH268005   3.798   5.633   2.793  0.3250 -0.5515  0.0782
15505TIP3    H168006   3.735   5.564   2.813  1.0312 -0.8096  1.5787
15505TIP3    H268007   3.769   5.669   2.709 -0.1434 -2.5549 -0.6800
15506TIP3   OH268008   0.630   5.109   2.966  0.2807 -0.1597 -0.4856
15506TIP3    H168009   0.565   5.168   2.928  0.2382  0.4732  0.5511
15506TIP3    H268010   0.582   5.028   2.983 -0.5222  0.6376  1.2152
15507TIP3   OH268011   3.767   5.145  12.912  0.0746  0.2258  0.3419
15507TIP3    H168012   3.808   5.170  12.995  0.3865  2.9618 -0.5436
15507TIP3    H268013   3.680   5.184  12.916 -0.4448 -0.8544 -0.0651
15508TIP3   OH268014   2.151   6.776   2.037  1.1229  0.3660  0.5363
15508TIP3    H168015   2.239   6.764   2.002  1.5168  0.5614  1.4335
15508TIP3    H268016   2.163   6.782   2.132 -0.0059 -0.9422  0.7962
15509TIP3   OH268017   1.668   2.538   2.027 -0.2779  0.1965 -0.2636
15509TIP3    H168018   1.697   2.589   1.952  1.7100  0.7742  0.8244
15509TIP3    H268019   1.688   2.594   2.103 -2.7867 -0.0871  0.7155
15510TIP3   OH268020   6.052   0.554  15.483 -0.1576 -0.0197  0.4230
15510TIP3    H168021   6.077   0.647  15.485 -1.7273  0.4635 -0.1562
15510TIP3    H268022   6.072   0.522  15.571 -0.5924  1.1774  0.9859
15511TIP3   OH268023   1.462   3.080  13.777  0.3432 -0.5679 -0.0702
15511TIP3    H168024   1.489   3.164  13.741 -0.2838 -0.9975 -1.5906
15511TIP3    H268025   1.544   3.032  13.790  0.7549  0.4560  1.3763
15512TIP3   OH268026   5.979   4.905   2.829  0.0923 -0.0569 -0.6404
15512TIP3    H168027   5.918   4.942   2.893 -0.2840 -0.2899 -0.8615
15512TIP3    H268028   6.049   4.971   2.822 -1.2115  1.2410 -1.9994
15513TIP3   OH268029   3.888   2.448  14.667 -0.1062  0.0355 -0.0292
15513TIP3    H168030   3.942   2.519  14.703 -1.8839  1.7285 -0.5589
15513TIP3    H268031   3.943   2.410  14.599  0.3144  1.9986 -0.8651
15514TIP3   OH268032   4.750   2.636  15.069  0.5035  0.0581  0.4143
15514TIP3    H168033   4.700   2.555  15.079 -1.8696  1.4963  0.9770
15514TIP3    H268034   4.713   2.678  14.991  1.4229  0.7843  0.3514
15515TIP3   OH268035   1.982   0.566   4.396  0.3363  0.5606 -0.6087
15515TIP3    H168036   1.889   0.565   4.375  0.3310 -0.1648 -0.5681
15515TIP3    H268037   2.027   0.569   4.312  0.2851 -0.2775 -0.6777
15516TIP3   OH268038   3.002   5.087   1.422  0.3763  0.4354 -0.3848
15516TIP3    H168039   3.048   5.049   1.497 -0.4764  1.2904  0.6005
15516TIP3    H268040   3.011   5.021   1.353  1.4271 -0.2432  0.3665
15517TIP3   OH268041   1.336   0.095   1.918 -0.1733 -0.2793  0.4301
15517TIP3    H168042   1.404   0.133   1.973  0.5057  0.0131 -0.5875
15517TIP3    H268043   1.369   0.104   1.829 -1.5243 -0.1687 -0.0873
15518TIP3   OH268044   1.238   3.299   3.005  0.7984  0.0571 -0.2474
15518TIP3    H168045   1.331   3.315   3.020  0.8041  1.2258 -1.4052
15518TIP3    H268046   1.234   3.259   2.918  0.2144 -0.0333 -0.1847
15519TIP3   OH268047   0.044   6.407  13.605  0.4815 -0.3466 -0.1464
15519TIP3    H168048   0.038   6.451  13.520 -1.7118  0.2478  0.2526
15519TIP3    H268049   0.055   6.478  13.668 -0.0617 -0.5934  0.2364
15520TIP3   OH268050   1.307   0.675  15.978 -0.2044  0.2941  0.0732
15520TIP3    H168051   1.307   0.586  16.015 -0.3688  0.0776 -0.4434
15520TIP3    H268052   1.400   0.695  15.967 -0.1788 -0.0372 -0.3389
15521TIP3   OH268053   5.586   4.156   1.208  0.2778 -0.0600 -0.2396
15521TIP3    H168054   5.562   4.065   1.226 -1.0001  0.1861 -0.5822
15521TIP3    H268055   5.637   4.183   1.284  1.5399 -1.3509 -0.5809
15522TIP3   OH268056   1.612   5.567   9.987 -0.2485 -0.3458  0.3309
15522TIP3    H168057   1.605   5.653  10.027  0.8701 -0.1171  0.0614
15522TIP3    H268058   1.543   5.515  10.029 -1.2593  0.8029  0.1318
15523TIP3   OH268059   6.744   4.249   2.557 -0.0161  0.0792  0.3816
15523TIP3    H168060   6.758   4.209   2.470  1.1261  1.1866  0.0339
15523TIP3    H268061   6.650   4.239   2.572 -0.0861 -0.9708 -0.5590
15524TIP3   OH268062   5.271   2.025  13.148 -0.2425  0.2051  0.0107
15524TIP3    H168063   5.293   2.022  13.241  1.1503  0.7976 -0.2765
15524TIP3    H268064   5.324   2.097  13.113 -3.2783  2.3343 -0.6176
15525TIP3   OH268065   3.965   3.483   2.969  0.4649  0.1730 -0.0777
15525TIP3    H168066   3.879   3.476   3.011  0.4338 -0.3499 -0.2138
15525TIP3    H268067   3.947   3.514   2.881  0.5249  1.2178  0.2633
15526TIP3   OH268068   1.621   3.394   0.714  0.3822  0.0234 -0.3919
15526TIP3    H168069   1.533   3.431   0.709 -0.6241 -2.1073  0.3982
15526TIP3    H268070   1.654   3.400   0.624  0.2469  2.5524 -0.3581
15527TIP3   OH268071   6.335   6.423  10.709 -0.4380  0.4633  0.1440
15527TIP3    H168072   6.366   6.486  10.644  0.1957  0.0678  0.0603
15527TIP3    H268073   6.369   6.339  10.679 -0.7044  0.1799  0.6291
15528TIP3   OH268074   2.296   6.139   4.381  0.1493  0.5779  0.0144
15528TIP3    H168075   2.338   6.057   4.356 -0.1222  0.2175  0.7222
15528TIP3    H268076   2.345   6.169   4.458  0.9731  1.6759 -0.8949
15529TIP3   OH268077   0.032   1.599   5.591 -0.1080  0.3300 -0.4542
15529TIP3    H168078   0.070   1.518   5.623 -1.3445 -0.7223 -1.5543
15529TIP3    H268079   0.043   1.661   5.663  0.8770 -0.7926  0.3959
15530TIP3   OH268080   2.259   1.275   5.434  0.5204 -0.1081  0.2425
15530TIP3    H168081   2.258   1.326   5.353  1.9125 -0.3441  0.0667
15530TIP3    H268082   2.279   1.339   5.502 -1.1797  0.1947  0.5169
15531TIP3   OH268083   5.418   1.223  12.324 -0.0479 -0.6477  0.6171
15531TIP3    H168084   5.436   1.160  12.254  2.0040  1.0441 -0.5036
15531TIP3    H268085   5.461   1.186  12.401  0.3230 -1.0827  0.2108
15532TIP3   OH268086   0.962   4.147   1.455  0.7603 -0.3107 -0.0585
15532TIP3    H168087   0.963   4.198   1.374 -2.0420 -0.7689 -0.4908
15532TIP3    H268088   0.970   4.213   1.525 -1.2964  0.6389 -0.6432
15533TIP3   OH268089   0.465   3.600   2.440 -0.1137  0.2046 -0.5983
15533TIP3    H168090   0.465   3.547   2.519  0.9681  1.1552  0.0830
15533TIP3    H268091   0.505   3.545   2.373  1.4417  0.2828  0.2161
15534TIP3   OH268092   2.956   5.278  14.846 -0.0741  0.2247 -0.3164
15534TIP3    H168093   2.933   5.348  14.908  0.3664  0.7920 -0.7762
15534TIP3    H268094   2.895   5.289  14.773  0.2484  0.3807 -0.5658
15535TIP3   OH268095   4.339   5.143   2.896 -0.4271 -0.1939 -0.2414
15535TIP3    H168096   4.361   5.180   2.810 -2.2094  1.0441 -0.2251
15535TIP3    H268097   4.286   5.066   2.876 -1.1344  0.2894 -0.2867
15536TIP3   OH268098   0.201   0.843   0.903  0.0185 -0.0465 -0.1368
15536TIP3    H168099   0.144   0.791   0.962  0.0113  0.4310  0.2841
15536TIP3    H268100   0.287   0.802   0.912 -0.4711 -1.5565 -1.7089
15537TIP3   OH268101   0.221   5.097  12.448  0.4156  0.0547 -0.4152
15537TIP3    H168102   0.190   5.142  12.370 -0.0315  1.5303  0.5882
15537TIP3    H268103   0.167   5.130  12.519  4.3113  3.0389  1.5248
15538TIP3   OH268104   5.180   2.203  14.289  0.0371  0.1478  0.0782
15538TIP3    H168105   5.204   2.210  14.381  0.7611 -1.7332  0.0610
15538TIP3    H268106   5.101   2.258  14.281  2.1278  3.6229  0.9115
15539TIP3   OH268107   3.411   3.924   5.658  0.6158 -0.2827  0.9054
15539TIP3    H168108   3.376   3.938   5.746  2.3386  2.5674  1.2865
15539TIP3    H268109   3.449   4.009   5.634  2.4975 -1.6828 -1.5424
15540TIP3   OH268110   5.655   4.548   2.847  0.3422  0.0726  0.1228
15540TIP3    H168111   5.670   4.562   2.941  1.2808 -1.1666  0.1792
15540TIP3    H268112   5.715   4.608   2.804  2.5730 -1.8455  0.3596
15541TIP3   OH268113   6.459   0.554  13.982  0.2124  0.1183  0.5851
15541TIP3    H168114   6.463   0.463  14.013 -0.4245 -0.9868 -2.2459
15541TIP3    H268115   6.516   0.555  13.905 -0.4705  1.9194  0.0581
15542TIP3   OH268116   5.446   0.923  12.729 -0.3075  0.3353 -0.0704
15542TIP3    H168117   5.364   0.969  12.748 -0.0368  0.8412 -0.0968
15542TIP3    H268118   5.486   0.911  12.815 -0.7826 -0.6461  0.0298
15543TIP3   OH268119   4.845   3.697   3.359 -0.1473 -0.2921  0.1465
15543TIP3    H168120   4.857   3.610   3.321  2.8212  0.1919 -0.2767
15543TIP3    H268121   4.774   3.736   3.308 -0.8914 -2.1190 -0.2846
15544TIP3   OH268122   3.620   4.341  12.507 -0.1350 -0.3927  0.0564
15544TIP3    H168123   3.558   4.286  12.461 -1.0346  0.1191  0.6224
15544TIP3    H268124   3.645   4.408  12.444 -0.3211 -0.4771 -0.1057
15545TIP3   OH268125   1.379   6.828   4.473  0.3626  0.0701 -0.5706
15545TIP3    H168126   1.323   6.777   4.415  1.3436  1.1064 -2.5206
15545TIP3    H268127   1.319   6.889   4.516 -0.2917 -0.2237 -1.0503
15546TIP3   OH268128   4.963   4.145   0.164 -0.4478  0.4829  0.3266
15546TIP3    H168129   4.932   4.215   0.106 -0.6920  0.6249  0.6203
15546TIP3    H268130   4.918   4.067   0.133 -0.9317  0.6438  0.5989
15547TIP3   OH268131   5.833   6.003  13.295  0.2934 -0.1217 -0.0895
15547TIP3    H168132   5.750   5.976  13.254 -1.6366  0.6477  2.9335
15547TIP3    H268133   5.830   6.099  13.294  0.2073 -0.0644  1.5538
15548TIP3   OH268134   6.077   6.512   3.727  0.1576  0.2173 -0.1414
15548TIP3    H168135   6.019   6.572   3.681 -0.3284  1.0901  1.5203
15548TIP3    H268136   6.059   6.528   3.820  0.4297 -2.0932  0.3707
15549TIP3   OH268137   2.093   1.085  14.647  0.0581  0.3597 -0.0986
15549TIP3    H168138   2.105   1.180  14.644  1.5338  0.1762 -1.1413
15549TIP3    H268139   1.998   1.073  14.649 -0.1804  1.8715  2.6965
15550TIP3   OH268140   0.552   5.286  12.995 -0.0005  0.4255  0.0530
15550TIP3    H168141   0.566   5.301  13.088 -2.1055  1.6132  0.2404
15550TIP3    H268142   0.568   5.372  12.954  0.9605 -0.0974 -0.7149
15551TIP3   OH268143   4.511   2.036   2.838  0.0729 -0.4812 -0.0933
15551TIP3    H168144   4.477   2.122   2.813  0.5901 -0.5993 -1.3171
15551TIP3    H268145   4.445   1.999   2.896 -0.5564  0.3926 -0.2370
15552TIP3   OH268146   3.946   6.787   4.044 -0.3406  0.4241  0.4780
15552TIP3    H168147   3.886   6.737   3.989 -0.1068 -1.4095  1.7785
15552TIP3    H268148   3.890   6.849   4.091 -1.4112 -1.6036  2.0625
15553TIP3   OH268149   0.219   3.023   0.149  0.2779 -0.2798 -0.0344
15553TIP3    H168150   0.260   2.967   0.215 -0.4118 -1.3357 -0.4854
15553TIP3    H268151   0.217   2.970   0.070 -1.1348  0.0662 -0.2551
15554TIP3   OH268152   0.307   3.820   2.344 -0.1793  0.0147 -0.3756
15554TIP3    H168153   0.351   3.740   2.373 -0.0920  0.6763  1.4565
15554TIP3    H268154   0.377   3.876   2.311  0.0146  0.0640  0.1126
15555TIP3   OH268155   5.783   3.072  12.451 -0.3403 -0.4632 -0.4659
15555TIP3    H168156   5.875   3.096  12.440 -0.0940 -0.9228  0.4854
15555TIP3    H268157   5.748   3.071  12.362  1.0633 -2.1700 -1.0748
15556TIP3   OH268158   3.470   6.644  14.756  0.1138  0.8944 -0.5746
15556TIP3    H168159   3.549   6.599  14.788 -0.2137  1.0966  0.5735
15556TIP3    H268160   3.460   6.718  14.815 -1.6982  0.1195  0.1752
15557TIP3   OH268161   3.869   0.803  16.459  0.1657 -0.8376  0.0581
15557TIP3    H168162   3.791   0.859  16.460  0.5270 -0.2841 -1.2985
15557TIP3    H268163   3.906   0.814  16.547 -1.2414 -1.0793  0.7145
15558TIP3   OH268164   6.448   1.145   2.268 -0.0187 -0.2994 -0.3184
15558TIP3    H168165   6.438   1.050   2.268 -0.9382 -0.2246 -1.2522
15558TIP3    H268166   6.361   1.178   2.247 -0.1773  0.8318  1.8374
15559TIP3   OH268167   1.806   1.907  14.242  0.4207  0.2669  0.1978
15559TIP3    H168168   1.771   1.847  14.175  0.5926  1.0751 -0.6238
15559TIP3    H268169   1.897   1.921  14.217  0.8576 -0.4221  1.3359
15560TIP3   OH268170   3.563   5.055   0.507  0.2051 -0.1003 -0.0039
15560TIP3    H168171   3.478   5.021   0.535  0.4664 -1.8755 -1.2104
15560TIP3    H268172   3.623   5.033   0.578  0.1456 -1.2367 -0.2845
15561TIP3   OH268173   4.587   0.333  12.066 -0.0062  0.8307  0.0885
15561TIP3    H168174   4.665   0.340  12.012  1.0182  0.8332  1.5090
15561TIP3    H268175   4.551   0.422  12.069  0.0455  0.8713 -0.3854
15562TIP3   OH268176   3.538   2.022  17.009  0.7534 -0.5074  0.4872
15562TIP3    H168177   3.610   2.069  16.965 -1.3066  1.6126 -0.8327
15562TIP3    H268178   3.521   2.073  17.088 -1.6654  1.3937 -1.0818
15563TIP3   OH268179   4.307   0.148   2.279  0.1839 -0.0393  0.2948
15563TIP3    H168180   4.218   0.117   2.296  0.2940  1.0043  3.4770
15563TIP3    H268181   4.351   0.074   2.237 -1.9135 -0.8921 -0.4963
15564TIP3   OH268182   4.316   0.154   3.223 -0.2868 -0.5774  0.2519
15564TIP3    H168183   4.274   0.169   3.308  0.3173  2.1368  0.1774
15564TIP3    H268184   4.244   0.144   3.162 -0.7314 -2.5289  1.0114
15565TIP3   OH268185   4.744   2.362   3.422  0.7049 -0.0917  0.4435
15565TIP3    H168186   4.730   2.424   3.350  0.2432  0.7470  1.2422
15565TIP3    H268187   4.705   2.404   3.498 -0.2426 -1.6642  0.8758
15566TIP3   OH268188   1.032   1.230   5.279 -0.4037 -0.7485  0.1604
15566TIP3    H168189   1.106   1.184   5.239 -0.2451 -0.3133 -0.0614
15566TIP3    H268190   0.955   1.179   5.254 -0.3525 -0.2682 -1.0656
15567TIP3   OH268191   6.397   4.983   2.648  0.2274  0.4798  0.1014
15567TIP3    H168192   6.457   5.044   2.691  0.7815 -0.3422  0.5227
15567TIP3    H268193   6.320   4.981   2.704  0.3727  0.4967  0.3036
15568TIP3   OH268194   2.272   6.755   0.427  0.4459  0.2519 -1.0972
15568TIP3    H168195   2.179   6.760   0.403 -0.7303 -2.0014  2.2374
15568TIP3    H268196   2.284   6.829   0.487  0.7447  0.4031 -1.3447
15569TIP3   OH268197   5.638   4.716   2.411 -0.3159 -0.3519  0.7585
15569TIP3    H168198   5.701   4.676   2.470 -0.4022  1.2495  2.0062
15569TIP3    H268199   5.688   4.736   2.332  0.7481  0.7727  1.6733
15570TIP3   OH268200   0.038   0.578  14.894 -0.5402  0.1759 -0.0157
15570TIP3    H168201  -0.052   0.611  14.887 -0.5964 -0.2005 -1.4676
15570TIP3    H268202   0.093   0.653  14.874 -0.4938  0.5326  1.3673
15571TIP3   OH268203   2.679   0.837   2.696  0.2583  0.2058 -0.0938
15571TIP3    H168204   2.753   0.897   2.686  1.5249 -0.8048  2.4225
15571TIP3    H268205   2.678   0.786   2.615  1.1388  1.4354 -0.9270
15572TIP3   OH268206   4.082   5.272   0.689  0.6411  0.0626  0.6214
15572TIP3    H168207   4.069   5.265   0.784 -0.8586 -1.3729  0.3556
15572TIP3    H268208   4.009   5.325   0.658 -0.3985 -1.6637 -0.0061
15573TIP3   OH268209   3.206   6.807  13.222 -0.3014 -0.0164 -0.2250
15573TIP3    H168210   3.254   6.831  13.301  0.3197  0.6041 -0.7694
15573TIP3    H268211   3.150   6.734  13.248 -1.1446  1.0644  1.1293
15574TIP3   OH268212   2.106   3.896  13.691  0.3147 -0.0116 -0.7255
15574TIP3    H168213   2.103   3.882  13.596  0.4419 -0.9826 -0.5890
15574TIP3    H268214   2.185   3.948  13.705  0.4961 -0.1853 -1.1066
15575TIP3   OH268215   2.157   0.447  14.790  0.3866  0.1844 -0.0494
15575TIP3    H168216   2.083   0.452  14.730  0.4832  0.4343 -0.1495
15575TIP3    H268217   2.222   0.393  14.745  0.3569  0.1603 -0.0633
15576TIP3   OH268218   1.239   2.805   1.748 -0.0320 -0.0225 -0.2841
15576TIP3    H168219   1.145   2.819   1.759 -0.1539 -0.2436 -0.9929
15576TIP3    H268220   1.279   2.848   1.823 -0.7394 -0.4038  0.3200
15577TIP3   OH268221   4.895   4.771   1.490  0.3898 -0.1365  0.2364
15577TIP3    H168222   4.860   4.831   1.556  0.3180  1.9332 -1.5978
15577TIP3    H268223   4.962   4.821   1.445 -0.2615 -1.1199 -1.9444
15578TIP3   OH268224   1.095   4.453  13.451  0.1486 -0.4068 -0.6438
15578TIP3    H168225   1.011   4.449  13.498 -0.2733  1.5621 -1.1632
15578TIP3    H268226   1.071   4.449  13.359  0.6002  0.3358 -0.7991
15579TIP3   OH268227   0.322   5.106  11.622  0.4100 -0.1222  0.5127
15579TIP3    H168228   0.305   5.015  11.596 -0.9641  0.0970  0.5379
15579TIP3    H268229   0.383   5.100  11.695  0.8453 -0.9842  0.0951
15580TIP3   OH268230   2.028   5.981  12.208 -0.0073 -0.2406 -0.2548
15580TIP3    H168231   2.120   5.993  12.185  0.4722  0.7817  1.9897
15580TIP3    H268232   2.025   5.897  12.254 -0.4413 -0.8156 -1.2767
15581TIP3   OH268233   0.175   0.145   4.132 -0.2840  0.2688  0.0549
15581TIP3    H168234   0.251   0.170   4.080 -0.4314  1.7460  0.5005
15581TIP3    H268235   0.179   0.202   4.208 -1.9831  0.5693 -0.0498
15582TIP3   OH268236   0.793   5.583   1.287 -0.5252  0.6132 -0.5565
15582TIP3    H168237   0.848   5.616   1.215 -0.7858 -1.2685 -1.6655
15582TIP3    H268238   0.821   5.493   1.300 -1.2605  0.5696  0.9866
15583TIP3   OH268239   4.821   5.153   3.243 -0.6724  0.0897 -0.1968
15583TIP3    H168240   4.819   5.067   3.286  1.2431 -1.0292 -2.1342
15583TIP3    H268241   4.897   5.197   3.281  1.2282 -1.0323 -2.4635
15584TIP3   OH268242   2.287   6.469  10.751  0.7844 -0.3719  0.1878
15584TIP3    H168243   2.360   6.423  10.792  0.9078  0.0243  0.4188
15584TIP3    H268244   2.322   6.503  10.669  0.6726 -0.7473 -0.0185
15585TIP3   OH268245   5.962   5.215   0.998 -0.2978  0.3341 -0.4927
15585TIP3    H168246   6.021   5.166   0.941  1.7808  2.9256 -0.7039
15585TIP3    H268247   5.878   5.170   0.988  0.9370 -1.7946 -2.3542
15586TIP3   OH268248   2.403   0.268  14.366 -0.1822 -0.6679 -0.0971
15586TIP3    H168249   2.419   0.362  14.351  1.4871 -0.8454  0.3034
15586TIP3    H268250   2.490   0.228  14.357 -0.5410 -1.9075  1.5860
15587TIP3   OH268251   1.053   5.944   3.575 -0.2545  0.1084 -0.5444
15587TIP3    H168252   0.973   5.997   3.573  0.8495  1.8714 -1.0231
15587TIP3    H268253   1.123   6.009   3.584  1.0153 -1.5146  2.1672
15588TIP3   OH268254   3.135   1.886  10.610  0.1931  0.4390 -0.3004
15588TIP3    H168255   3.123   1.975  10.578 -1.7823  0.2031 -0.3072
15588TIP3    H268256   3.123   1.892  10.705 -0.3130  0.1161 -0.3446
15589TIP3   OH268257   0.131   2.805  15.376 -0.2732 -0.0148  0.4837
15589TIP3    H168258   0.157   2.733  15.433  3.2136 -0.9133 -1.8991
15589TIP3    H268259   0.130   2.882  15.433  1.9075 -1.0258  2.0151
15590TIP3   OH268260   6.064   6.356  16.602 -0.6252  0.6768 -0.9017
15590TIP3    H168261   6.145   6.388  16.563  1.0630 -2.1923 -0.0779
15590TIP3    H268262   6.076   6.369  16.696 -0.5436 -0.8213 -0.6780
15591TIP3   OH268263   0.985   2.210  10.990 -0.4198  0.1526 -0.1765
15591TIP3    H168264   1.028   2.276  11.044  0.1839  0.2204 -0.7252
15591TIP3    H268265   0.997   2.128  11.037 -0.4315  0.3036  0.0897
15592TIP3   OH268266   4.812   3.773   5.017  0.5174  0.3729  0.0341
15592TIP3    H168267   4.720   3.794   4.997  0.3564 -0.5816 -0.2766
15592TIP3    H268268   4.848   3.742   4.934  0.2475 -2.2250  0.7731
15593TIP3   OH268269   2.225   5.689  14.444 -0.4230 -0.5653 -0.3805
15593TIP3    H168270   2.174   5.609  14.458 -3.4440  1.2655 -0.1860
15593TIP3    H268271   2.301   5.679  14.501 -0.8916 -3.0905 -0.0681
15594TIP3   OH268272   0.435   5.994  11.474 -0.0713  0.4391  0.0193
15594TIP3    H168273   0.393   6.021  11.392 -1.6429 -0.1387  0.5833
15594TIP3    H268274   0.446   5.900  11.465  1.2602  0.5958 -0.1579
15595TIP3   OH268275   4.411   1.789  13.421  0.4612 -0.3702 -0.0003
15595TIP3    H168276   4.418   1.698  13.394  1.5504 -0.1713 -0.4272
15595TIP3    H268277   4.360   1.831  13.351 -2.8882 -1.2281  1.6955
15596TIP3   OH268278   3.141   6.340  14.929  0.1508  0.1027  0.2546
15596TIP3    H168279   3.103   6.298  14.851  2.2848 -0.0817 -0.7465
15596TIP3    H268280   3.203   6.276  14.963  0.2338  0.7312  1.3198
15597TIP3   OH268281   6.375   3.951   0.359  0.2571 -0.0138 -0.1262
15597TIP3    H168282   6.469   3.945   0.342  0.7886 -0.5341  2.5091
15597TIP3    H268283   6.344   4.018   0.299  2.1624 -0.3054 -1.5413
15598TIP3   OH268284   0.030   3.386  11.990  0.4978  0.5661  0.0793
15598TIP3    H168285   0.065   3.385  12.079 -0.7441 -0.6138  0.5860
15598TIP3    H268286  -0.045   3.327  11.993 -0.1735  1.2825 -1.5178
15599TIP3   OH268287   2.836   0.198   1.243 -0.8432 -0.2852 -0.0036
15599TIP3    H168288   2.856   0.184   1.335  0.0693 -0.3960 -0.2165
15599TIP3    H268289   2.772   0.270   1.243 -1.5934 -0.9380  0.7669
15600TIP3   OH268290   4.868   6.573   5.781  0.1560 -0.1291  0.5792
15600TIP3    H168291   4.906   6.650   5.738  0.5326 -0.7947 -0.3010
15600TIP3    H268292   4.785   6.604   5.816  1.1183  1.1638  1.8577
15601TIP3   OH268293   1.047   0.954   2.545 -0.2327 -0.3155  0.0851
15601TIP3    H168294   1.025   1.035   2.591 -1.3381 -0.6919  0.2438
15601TIP3    H268295   1.083   0.897   2.613 -3.6935 -1.6061  1.0453
15602TIP3   OH268296   1.890   2.830   0.783  0.2560 -0.0503  0.5257
15602TIP3    H168297   1.825   2.787   0.838 -0.8821 -0.7490 -1.2775
15602TIP3    H268298   1.972   2.786   0.804 -0.2452 -0.6622  1.2685
15603TIP3   OH268299   5.410   1.139  13.909 -0.0390 -0.3248 -0.4412
15603TIP3    H168300   5.403   1.048  13.938 -0.3556 -0.1146  0.1506
15603TIP3    H268301   5.438   1.187  13.987 -2.8903  0.5841  0.1553
15604TIP3   OH268302   0.583   6.189   3.190 -0.5175 -0.4733  0.5238
15604TIP3    H168303   0.532   6.111   3.167 -1.6213  0.2306  0.5043
15604TIP3    H268304   0.532   6.231   3.258  0.9525 -0.6687  1.7911
15605TIP3   OH268305   5.149   6.274  17.133 -0.7270  0.4567 -0.6714
15605TIP3    H168306   5.238   6.283  17.167 -0.2853 -1.0430 -1.3345
15605TIP3    H268307   5.109   6.361  17.146  1.0709  1.3893 -1.0518
15606TIP3   OH268308   2.158   4.899  15.359  0.1360 -0.8788  0.4388
15606TIP3    H168309   2.204   4.970  15.403 -0.4281  0.7354 -1.4398
15606TIP3    H268310   2.219   4.869  15.292  0.2554 -2.0286  1.0319
15607TIP3   OH268311   6.416   0.250  12.534 -0.0949 -0.2056 -0.0418
15607TIP3    H168312   6.487   0.190  12.554  1.8610  1.7003 -0.8026
15607TIP3    H268313   6.403   0.241  12.439 -2.8745 -2.5011  0.4311
15608TIP3   OH268314   3.545   3.379   3.986  0.6316 -0.5237  0.2895
15608TIP3    H168315   3.536   3.413   4.074 -1.5807  1.7115 -0.7019
15608TIP3    H268316   3.492   3.299   3.985 -0.3743  0.1227  0.6754
15609TIP3   OH268317   2.857   1.897  11.495  0.0288  0.0065  0.3365
15609TIP3    H168318   2.854   1.881  11.589 -0.5408 -0.6293  0.2174
15609TIP3    H268319   2.879   1.990  11.487  2.1750 -0.3847  1.0723
15610TIP3   OH268320   0.182   1.722   6.338  0.2373 -0.2960 -0.4051
15610TIP3    H168321   0.218   1.653   6.393  0.5149  1.0074  1.1102
15610TIP3    H268322   0.140   1.675   6.265  1.4984 -1.9891 -0.0984
15611TIP3   OH268323   2.603   0.924  12.969  0.3323  0.6041  0.0043
15611TIP3    H168324   2.612   0.830  12.984  0.7515  0.5602 -0.5174
15611TIP3    H268325   2.527   0.932  12.911 -0.8822  0.7294  1.5450
15612TIP3   OH268326   4.967   0.509   4.674 -0.3800  0.1979 -0.1904
15612TIP3    H168327   4.957   0.479   4.584 -0.6013 -1.4657  0.3475
15612TIP3    H268328   4.884   0.554   4.693 -1.3913 -1.5864 -0.0859
15613TIP3   OH268329   4.944   4.272   5.098 -0.1015  0.1244  0.4394
15613TIP3    H168330   4.889   4.205   5.137  0.9751 -0.9127  0.2439
15613TIP3    H268331   5.023   4.273   5.152  0.7772 -0.2835 -0.7803
15614TIP3   OH268332   0.646   3.046   2.047 -0.4252 -0.1545 -0.0944
15614TIP3    H168333   0.661   2.951   2.048  0.4798 -0.0447  1.6664
15614TIP3    H268334   0.733   3.084   2.061 -1.0790  0.8341  1.5948
15615TIP3   OH268335   5.894   0.566  13.052 -0.1548 -0.0350  0.0856
15615TIP3    H168336   5.960   0.625  13.017  1.4540 -1.5811  0.3654
15615TIP3    H268337   5.939   0.517  13.121 -1.3673 -1.6647 -0.2117
15616TIP3   OH268338   3.852   4.594  16.384 -0.2060 -0.4668  0.0099
15616TIP3    H168339   3.842   4.679  16.427 -2.7061 -0.2548 -0.7910
15616TIP3    H268340   3.845   4.614  16.291  1.6039 -1.3218 -0.3438
15617TIP3   OH268341   6.663   1.290  15.753  0.0343 -0.1510 -0.2626
15617TIP3    H168342   6.691   1.233  15.825 -0.0592  0.6591  0.4430
15617TIP3    H268343   6.567   1.293  15.760  0.0241 -0.0861 -0.4270
15618TIP3   OH268344   0.108   0.208  12.535 -0.2683 -0.2390 -0.1674
15618TIP3    H168345   0.031   0.242  12.579 -1.2900 -2.7932  0.1906
15618TIP3    H268346   0.142   0.282  12.485 -2.2902  1.2478  0.5461
15619TIP3   OH268347   5.777   0.710   4.357 -0.7371  0.4615 -0.0600
15619TIP3    H168348   5.868   0.717   4.328 -0.7837 -1.1127 -0.6582
15619TIP3    H268349   5.730   0.677   4.281 -1.6397  0.3124  0.5440
15620TIP3   OH268350   5.000   4.637  12.415  0.0304  0.2597 -0.3776
15620TIP3    H168351   4.908   4.652  12.438 -0.2625 -0.4920 -1.0089
15620TIP3    H268352   5.044   4.718  12.440 -0.8511  0.7389 -0.3202
15621TIP3   OH268353   1.373   2.408   5.707 -0.7179 -0.5575 -0.1183
15621TIP3    H168354   1.360   2.494   5.667  1.0371 -0.5630 -0.7752
15621TIP3    H268355   1.318   2.410   5.785 -1.7089  0.6659 -0.8071
15622TIP3   OH268356   4.528   3.997  13.965  0.0506 -0.2746  0.1952
15622TIP3    H168357   4.466   4.067  13.945  0.2468  0.0328  0.6722
15622TIP3    H268358   4.473   3.921  13.984 -0.1555 -0.5788 -1.4584
15623TIP3   OH268359   1.919   0.034  14.498  0.0566 -0.6149 -0.0757
15623TIP3    H168360   1.920  -0.003  14.410  0.3097 -0.8364  0.0210
15623TIP3    H268361   1.991   0.097  14.499  0.1066 -0.6729  0.0002
15624TIP3   OH268362   0.104   6.026  17.046  0.2497 -0.6530 -0.3939
15624TIP3    H168363   0.178   6.065  17.001 -0.4176 -1.0935 -1.9337
15624TIP3    H268364   0.135   6.011  17.136  2.8409 -2.9856 -1.5577
15625TIP3   OH268365   4.789   6.124  15.238 -0.6032 -0.2958 -0.4131
15625TIP3    H168366   4.766   6.209  15.275  0.7352 -0.0373 -0.1568
15625TIP3    H268367   4.870   6.099  15.281 -0.7297 -1.5051 -0.8166
15626TIP3   OH268368   6.212   2.826   2.010  0.0346  0.2015 -0.3842
15626TIP3    H168369   6.148   2.785   1.951  0.3074  0.4640 -0.8676
15626TIP3    H268370   6.272   2.755   2.033 -1.0430 -0.3159  0.9475
15627TIP3   OH268371   3.869   2.401   3.150 -0.0108  0.2124 -0.2778
15627TIP3    H168372   3.960   2.409   3.123 -0.1031  0.6499 -0.4777
15627TIP3    H268373   3.873   2.394   3.245  0.4274 -3.0441 -0.4214
15628TIP3   OH268374   3.327   0.941   1.203  0.2645 -0.0956 -0.4074
15628TIP3    H168375   3.285   0.868   1.158  1.0906 -0.7856 -0.0993
15628TIP3    H268376   3.274   0.956   1.281 -2.4957  2.5651 -2.5855
15629TIP3   OH268377   5.514   5.822  12.345 -0.3615 -0.0744  0.2794
15629TIP3    H168378   5.442   5.865  12.300  0.8464  1.6502 -0.0825
15629TIP3    H268379   5.593   5.854  12.302  0.7526 -0.0904  2.1736
15630TIP3   OH268380   0.999   0.363   4.557  0.4228 -0.0036 -0.4006
15630TIP3    H168381   0.992   0.448   4.515  0.8272  0.7310  0.9652
15630TIP3    H268382   0.910   0.343   4.587  0.6674  0.8936  1.0230
15631TIP3   OH268383   1.183   0.859   0.355  0.4080 -0.1501 -0.6020
15631TIP3    H168384   1.246   0.787   0.348  1.3662  0.6649 -0.4297
15631TIP3    H268385   1.232   0.937   0.331 -0.1495  0.6843  0.8475
15632TIP3   OH268386   1.926   5.079   9.737 -0.0771 -0.5083  0.0950
15632TIP3    H168387   1.920   5.071   9.833  1.0888 -0.0548  0.2206
15632TIP3    H268388   1.859   5.144   9.715 -1.1698 -1.4933  0.4579
15633TIP3   OH268389   5.658   6.559  14.795  0.3247 -0.3549 -0.5012
15633TIP3    H168390   5.688   6.636  14.844 -0.4369  0.3091 -1.0481
15633TIP3    H268391   5.636   6.593  14.708 -3.0960 -0.5085  0.1554
15634TIP3   OH268392   4.012   5.584  11.873 -0.0525  0.2706  0.3491
15634TIP3    H168393   3.978   5.554  11.789  0.0892 -0.8612  0.6799
15634TIP3    H268394   4.065   5.661  11.851  0.6799 -0.5062 -0.7244
15635TIP3   OH268395   5.808   1.526  15.334 -0.3666  0.6090  0.4110
15635TIP3    H168396   5.831   1.569  15.252  0.9810 -1.6327 -0.4973
15635TIP3    H268397   5.890   1.527  15.385 -0.2195 -0.9407  0.2711
15636TIP3   OH268398   2.888   4.582  12.427 -0.1013  0.3876 -0.1044
15636TIP3    H168399   2.954   4.564  12.361  1.3432  0.0549  1.3832
15636TIP3    H268400   2.863   4.673  12.412  0.2733  0.3505 -1.0143
15637TIP3   OH268401   5.887   6.398   4.889 -0.3900  0.3342  0.0552
15637TIP3    H168402   5.870   6.441   4.973 -0.7081 -0.1564  0.2484
15637TIP3    H268403   5.983   6.397   4.882 -0.2243 -1.8253  1.6061
15638TIP3   OH268404   4.792   4.340  15.522 -0.0670  0.7229 -0.1170
15638TIP3    H168405   4.843   4.403  15.472 -1.2999  0.9567 -1.1459
15638TIP3    H268406   4.728   4.393  15.570 -1.0782  0.3045 -0.9485
15639TIP3   OH268407   0.479   2.039  15.090  0.2348 -0.0201 -0.2770
15639TIP3    H168408   0.564   1.998  15.074  0.8640  0.8139  0.8183
15639TIP3    H268409   0.462   2.022  15.183 -0.0056  1.2502 -0.0803
15640TIP3   OH268410   2.829   4.242   5.150 -0.5328  0.0085 -0.6739
15640TIP3    H168411   2.891   4.285   5.209 -0.8667 -1.1651  0.5756
15640TIP3    H268412   2.762   4.206   5.207 -1.0813 -0.8510 -1.8078
15641TIP3   OH268413   2.296   5.757   3.999 -0.2835  0.1445  0.2917
15641TIP3    H168414   2.209   5.759   4.039  0.1225  2.5250  1.2796
15641TIP3    H268415   2.284   5.799   3.914 -0.1540  0.2396  0.3200
15642TIP3   OH268416   1.841   1.239   1.960  0.0364 -0.6336  0.0802
15642TIP3    H168417   1.912   1.277   1.907 -0.4851  0.7792  0.3677
15642TIP3    H268418   1.799   1.176   1.901  0.5432 -0.3477 -0.6098
15643TIP3   OH268419   1.380   1.774   2.936 -0.0428  0.3082  0.1976
15643TIP3    H168420   1.425   1.735   2.861  1.0152  0.4036  0.7748
15643TIP3    H268421   1.287   1.769   2.913  0.0764 -2.0516  0.0048
15644TIP3   OH268422   5.652   0.647  11.512 -0.0142  0.0877  0.0415
15644TIP3    H168423   5.678   0.724  11.461 -0.0094 -0.1232 -0.2717
15644TIP3    H268424   5.576   0.677  11.562 -0.1787  0.2189 -0.2840
15645TIP3   OH268425   2.305   6.625   4.811  0.2001  0.0677 -0.0333
15645TIP3    H168426   2.241   6.590   4.749 -0.2038  0.3192  0.2333
15645TIP3    H268427   2.376   6.659   4.757  0.5511 -1.0494 -0.3076
15646TIP3   OH268428   6.227   4.476  15.388 -0.0067  0.6255  0.1489
15646TIP3    H168429   6.264   4.391  15.364 -0.6463 -0.2264  1.9828
15646TIP3    H268430   6.147   4.483  15.335 -0.2651 -0.1924  0.4233
15647TIP3   OH268431   4.363   0.089  16.149  0.2559 -0.1879 -0.6169
15647TIP3    H168432   4.287   0.063  16.201 -0.3347 -0.1798 -1.4411
15647TIP3    H268433   4.370   0.184  16.163 -0.6412  0.0232 -1.4665
15648TIP3   OH268434   5.116   1.683  13.912 -0.3800  0.3513 -0.1015
15648TIP3    H168435   5.026   1.652  13.900 -0.7157  0.3784  1.9728
15648TIP3    H268436   5.164   1.606  13.942  0.0338  0.5827 -0.1635
15649TIP3   OH268437   3.696   0.270  15.426 -0.3412 -0.0103 -0.2391
15649TIP3    H168438   3.668   0.189  15.384 -0.6763 -0.0008 -0.0352
15649TIP3    H268439   3.782   0.289  15.388  1.4497 -2.3808  2.2762
15650TIP3   OH268440   6.645   1.314   0.836  0.5966  0.4115  0.3172
15650TIP3    H168441   6.660   1.393   0.783  0.0465 -0.2871 -0.9314
15650TIP3    H268442   6.681   1.243   0.783 -1.9339 -0.5975 -0.2028
15651TIP3   OH268443   5.285   0.852   0.490 -0.1503  0.1578 -0.3653
15651TIP3    H168444   5.194   0.879   0.479 -0.4688 -1.6377 -2.9174
15651TIP3    H268445   5.279   0.760   0.519  0.8834  0.2702  0.2694
15652TIP3   OH268446   0.943   1.359  14.801 -0.3545 -0.4288  0.0874
15652TIP3    H168447   0.870   1.306  14.770  0.4024 -0.8968 -0.9451
15652TIP3    H268448   0.988   1.302  14.864 -0.7682 -0.1987  0.6040
15653TIP3   OH268449   2.844   3.206  11.678  0.1071  0.4593  0.3965
15653TIP3    H168450   2.778   3.247  11.621  0.0047  0.2639  0.3732
15653TIP3    H268451   2.798   3.192  11.761 -0.9498 -2.6779 -0.5674
15654TIP3   OH268452   0.494   6.265  11.948 -0.1526 -0.1695  0.5849
15654TIP3    H168453   0.400   6.285  11.952 -0.4586 -1.6958  2.0542
15654TIP3    H268454   0.510   6.241  11.857 -0.5833  2.5992 -0.3251
15655TIP3   OH268455   5.229   5.348   1.090  0.3261 -0.4086  0.0576
15655TIP3    H168456   5.245   5.382   1.178 -0.9756  1.4818 -0.3684
15655TIP3    H268457   5.165   5.278   1.103 -0.3322  0.2724  0.5853
15656TIP3   OH268458   0.374   4.182  15.802 -0.4846 -0.3951 -0.0775
15656TIP3    H168459   0.464   4.209  15.818 -0.7757  0.3818  0.3088
15656TIP3    H268460   0.372   4.089  15.822  0.1968 -0.3805  0.0595
15657TIP3   OH268461   5.548   1.662  15.369 -0.3503  0.6089 -0.1499
15657TIP3    H168462   5.501   1.628  15.293  0.0457 -0.8592  0.2295
15657TIP3    H268463   5.617   1.597  15.386 -2.0055 -0.5494  3.0389
15658TIP3   OH268464   5.921   3.925  16.799 -0.7989  0.6570  0.1560
15658TIP3    H168465   5.862   3.853  16.820  1.9831 -1.3423  1.8371
15658TIP3    H268466   5.927   3.975  16.881  0.3877  0.3231  0.3007
15659TIP3   OH268467   3.955   4.404  11.810  0.1858  0.1042 -0.1252
15659TIP3    H168468   3.902   4.369  11.882 -0.4723 -0.2247 -0.7562
15659TIP3    H268469   4.034   4.437  11.853 -1.1407  1.9674  1.0207
15660TIP3   OH268470   5.610   6.254   4.363 -0.7366 -0.3814  0.1424
15660TIP3    H168471   5.563   6.319   4.414 -0.8898 -0.4487  0.0870
15660TIP3    H268472   5.601   6.173   4.413  0.2182 -0.1739  0.6784
15661TIP3   OH268473   2.685   2.847  15.040 -0.3933  0.1698  0.6487
15661TIP3    H168474   2.608   2.870  15.092 -0.2716 -0.8642  1.3223
15661TIP3    H268475   2.649   2.805  14.962 -0.5509 -2.9626  2.2503
15662TIP3   OH268476   4.286   1.460  16.554  0.2783 -0.5140 -0.0135
15662TIP3    H168477   4.305   1.425  16.641  1.8470 -0.9003 -0.4789
15662TIP3    H268478   4.303   1.387  16.495 -0.6692 -0.2235 -0.6646
15663TIP3   OH268479   4.071   6.671  16.446 -0.0938  0.1913 -0.6755
15663TIP3    H168480   4.070   6.647  16.539  2.9609  0.7568 -0.3794
15663TIP3    H268481   4.093   6.589  16.401  0.7145  0.3720 -0.6313
15664TIP3   OH268482   5.861   3.065   1.378 -0.1204  0.1343  0.1793
15664TIP3    H168483   5.951   3.096   1.389 -0.7957  1.6988  1.8715
15664TIP3    H268484   5.828   3.114   1.303  0.4449 -0.5230 -0.5152
15665TIP3   OH268485   2.008   5.292  15.015 -0.0661  0.3254  0.2907
15665TIP3    H168486   1.937   5.263  15.072  0.4285  0.3851  0.9504
15665TIP3    H268487   2.056   5.212  14.993  0.1060  0.3818  0.4599
15666TIP3   OH268488   5.764   1.303  12.393 -0.2109  0.1514 -0.2812
15666TIP3    H168489   5.720   1.336  12.315 -0.8068  0.1638  0.0550
15666TIP3    H268490   5.693   1.285  12.455  0.1189 -1.3690 -0.3040
15667TIP3   OH268491   2.468   3.053  16.023 -0.0590  0.0044  0.1288
15667TIP3    H168492   2.498   3.078  16.110 -1.2882 -0.3286  0.6790
15667TIP3    H268493   2.481   2.958  16.020 -0.9881 -0.1432  0.3727
15668TIP3   OH268494   5.315   1.873  15.907 -0.6113 -0.0312 -0.2270
15668TIP3    H168495   5.233   1.920  15.926 -0.6384 -0.6784  1.3913
15668TIP3    H268496   5.286   1.790  15.869 -0.6271  0.4225 -1.2397
15669TIP3   OH268497   0.354   2.261  11.413 -0.3973  0.1563 -0.0621
15669TIP3    H168498   0.282   2.209  11.378 -0.8458  0.8579 -0.1960
15669TIP3    H268499   0.432   2.227  11.368 -0.9709  1.1068 -1.8685
15670TIP3   OH268500   4.884   1.532  14.052  0.5802 -0.1947 -0.0558
15670TIP3    H168501   4.822   1.564  14.117  0.7818  2.6769 -1.1166
15670TIP3    H268502   4.829   1.495  13.982  0.2171 -0.1416  0.2003
15671TIP3   OH268503   4.580   2.269  16.034 -0.1861  0.2622 -0.3761
15671TIP3    H168504   4.549   2.342  15.979 -2.0257 -0.3433 -0.2114
15671TIP3    H268505   4.632   2.312  16.103 -0.5841  1.3476 -0.7214
15672TIP3   OH268506   6.802   0.726   1.089 -0.2497 -0.0041  0.3432
15672TIP3    H168507   6.887   0.719   1.132 -0.7491  1.6300  1.6979
15672TIP3    H268508   6.740   0.739   1.161 -1.7015 -1.3943 -0.5983
15673TIP3   OH268509   2.183   5.768  15.112 -0.2395 -0.7697 -0.1743
15673TIP3    H168510   2.133   5.732  15.038 -1.4620 -2.0165  1.1934
15673TIP3    H268511   2.274   5.766  15.082 -0.5731 -2.4248 -1.2090
15674TIP3   OH268512   6.363   0.032   6.678 -0.5780 -0.1977  0.0424
15674TIP3    H168513   6.444   0.065   6.641 -0.8828  1.2817  0.6367
15674TIP3    H268514   6.351  -0.054   6.638  2.3097 -1.3800  1.4491
15675TIP3   OH268515   2.665   0.300  11.684  0.6301 -0.1601  0.0004
15675TIP3    H168516   2.750   0.282  11.726  0.4671  0.6145  0.6725
15675TIP3    H268517   2.681   0.379  11.631  0.3832 -0.1441 -0.0494
15676TIP3   OH268518   3.556   5.709  12.539 -0.6852 -0.1330 -0.0943
15676TIP3    H168519   3.470   5.681  12.572  0.3092 -1.8291  1.2318
15676TIP3    H268520   3.564   5.666  12.454 -0.1071 -2.1930  0.9416
15677TIP3   OH268521   6.386   3.032  13.338  0.1385  0.1950  0.3058
15677TIP3    H168522   6.394   3.127  13.346 -1.5594  0.3780  0.1605
15677TIP3    H268523   6.451   2.997  13.400  0.9223  1.4338  0.2063
15678TIP3   OH268524   2.911   2.308   4.846 -0.3091  0.3701  0.4650
15678TIP3    H168525   3.003   2.319   4.823 -0.5289  0.1419 -0.5672
15678TIP3    H268526   2.867   2.295   4.762 -1.3894  1.2305  0.8809
15679TIP3   OH268527   3.935   3.824  16.015  0.3030  0.2874  0.6426
15679TIP3    H168528   3.996   3.760  16.051  2.0487  2.1217  1.1667
15679TIP3    H268529   3.952   3.822  15.921  1.1574  0.7214  0.7739
15680TIP3   OH268530   1.387   3.073  15.801 -0.6470  0.0743  0.4772
15680TIP3    H168531   1.311   3.022  15.775 -1.1178  0.9552  0.0697
15680TIP3    H268532   1.373   3.159  15.761  0.3429  0.3870  0.7672
15681TIP3   OH268533   3.373   4.444  13.675 -0.2544  0.6156 -0.5114
15681TIP3    H168534   3.290   4.397  13.668 -0.2149  0.5216 -0.3525
15681TIP3    H268535   3.440   4.376  13.669 -0.1815  0.7145 -0.8688
15682TIP3   OH268536   3.907   4.332  15.182  0.2304  0.7685  0.0599
15682TIP3    H168537   3.972   4.299  15.244  1.1290 -2.0999 -2.1805
15682TIP3    H268538   3.909   4.427  15.193  1.3499  0.5134  3.3169
15683TIP3   OH268539   6.549   6.304   0.230 -0.0388 -0.0452 -0.0578
15683TIP3    H168540   6.599   6.232   0.193 -0.8596 -0.4166 -0.4648
15683TIP3    H268541   6.475   6.315   0.171  0.3445  1.4830 -0.3005
15684TIP3   OH268542   3.142   3.457  16.863 -0.1856 -0.2459  0.3018
15684TIP3    H168543   3.174   3.421  16.946 -1.0297  0.5267  0.9849
15684TIP3    H268544   3.157   3.551  16.870 -0.4467 -0.1541 -0.3333
15685TIP3   OH268545   6.029   0.004  12.848 -0.9254  0.7554 -0.1938
15685TIP3    H168546   6.064   0.091  12.828 -2.4728  1.4219 -0.1240
15685TIP3    H268547   5.934   0.013  12.839 -1.4267 -0.0814  2.9014
15686TIP3   OH268548   4.464   3.520  12.889 -0.0118  0.7325 -0.3825
15686TIP3    H168549   4.430   3.431  12.879 -1.3379  1.1035  0.5870
15686TIP3    H268550   4.471   3.553  12.800  1.0531 -0.5231 -0.7971
15687TIP3   OH268551   3.766   2.113  14.761 -0.0953 -0.2640  0.1687
15687TIP3    H168552   3.745   2.197  14.801  1.2690  0.3053 -0.2341
15687TIP3    H268553   3.681   2.070  14.748 -0.7683  0.7981  0.9103
15688TIP3   OH268554   2.239   2.153   4.226  0.5580  0.0911 -0.0334
15688TIP3    H168555   2.267   2.071   4.268  1.4860 -0.6445 -1.9639
15688TIP3    H268556   2.151   2.134   4.193  0.4365  0.1551  0.2535
15689TIP3   OH268557   4.275   2.224  16.208  0.0451  0.1167 -0.0127
15689TIP3    H168558   4.269   2.316  16.182 -1.7311 -0.2158 -0.9333
15689TIP3    H268559   4.304   2.179  16.128 -0.2252 -0.2567  0.0978
15690TIP3   OH268560   4.948   3.103  13.179  0.3575  0.0311  0.2348
15690TIP3    H168561   5.025   3.136  13.132  0.6532 -0.2824  0.5042
15690TIP3    H268562   4.890   3.070  13.110  0.7244 -0.2847  0.0811
15691TIP3   OH268563   5.898   0.627   5.566 -0.0802 -0.3401 -0.6329
15691TIP3    H168564   5.848   0.702   5.598  0.4777  0.2540 -1.1331
15691TIP3    H268565   5.832   0.566   5.533 -0.6851 -0.9343  1.5056
15692TIP3   OH268566   0.200   0.223  14.113  0.0684 -0.3341  0.0735
15692TIP3    H168567   0.234   0.307  14.144 -0.3540 -0.1649  0.0774
15692TIP3    H268568   0.134   0.199  14.178  0.2514 -0.7157  0.1210
15693TIP3   OH268569   5.390   1.920   4.091 -0.2065  0.0237  0.7300
15693TIP3    H168570   5.362   1.869   4.168  0.2283 -1.3899 -0.0149
15693TIP3    H268571   5.484   1.904   4.085 -0.5114 -1.3346 -1.0952
15694TIP3   OH268572   2.338   1.620   1.378  0.2938 -0.0660  0.0952
15694TIP3    H168573   2.323   1.711   1.405 -0.5148 -0.6294  1.6254
15694TIP3    H268574   2.334   1.623   1.282 -4.2693  0.8088  0.1214
15695TIP3   OH268575   2.934   1.886   1.093 -0.2771  0.4396 -0.2679
15695TIP3    H168576   2.956   1.847   1.008  1.3706  2.2896 -0.7567
15695TIP3    H268577   2.995   1.847   1.155  0.2149  0.9199 -0.4370
15696TIP3   OH268578   2.423   5.741   0.675 -0.3874  0.3506 -0.8101
15696TIP3    H168579   2.377   5.816   0.713 -1.1299  0.4585 -1.8571
15696TIP3    H268580   2.485   5.713   0.742 -0.8998  1.1951  0.0309
15697TIP3   OH268581   3.535   1.079  14.097 -0.6181 -0.4952  0.2867
15697TIP3    H168582   3.535   1.022  14.173  1.7391  1.2001  1.7202
15697TIP3    H268583   3.623   1.068  14.059 -0.4073  1.4271  0.0903
15698TIP3   OH268584   0.569   0.351   3.684 -0.7393 -0.3559 -0.1078
15698TIP3    H168585   0.526   0.436   3.681 -2.1032 -1.0204 -0.0518
15698TIP3    H268586   0.662   0.371   3.679 -1.0837  1.0556 -1.5143
15699TIP3   OH268587   2.859   3.377  11.374 -0.3000 -0.5443  0.2539
15699TIP3    H168588   2.825   3.324  11.303 -0.9722 -1.8629  1.5081
15699TIP3    H268589   2.927   3.323  11.414  2.3275  1.4180 -1.2375
15700TIP3   OH268590   1.924   3.748  11.598 -0.0515  0.0090  0.1538
15700TIP3    H168591   1.996   3.718  11.542  0.5914  1.1926  0.3140
15700TIP3    H268592   1.861   3.676  11.596 -0.4656  0.3605 -2.7613
15701TIP3   OH268593   3.069   1.089   5.716  0.5183 -0.0023  0.0363
15701TIP3    H168594   2.984   1.065   5.678  0.0056  0.2349  0.9958
15701TIP3    H268595   3.133   1.046   5.660 -0.2137  0.2218 -1.0033
15702TIP3   OH268596   5.987   5.533   2.370  0.5441 -0.1455 -0.9834
15702TIP3    H168597   5.964   5.618   2.408 -0.6131 -0.1618 -1.5907
15702TIP3    H268598   5.933   5.527   2.291  0.0090 -1.7689 -0.5411
15703TIP3   OH268599   4.854   5.267   1.786 -0.2551 -0.0630  0.3622
15703TIP3    H168600   4.893   5.331   1.845 -1.0296 -0.5642  1.4509
15703TIP3    H268601   4.765   5.256   1.818 -0.1716 -1.6093  0.1565
15704TIP3   OH268602   6.555   0.758   2.531 -0.0350  0.2428 -0.2997
15704TIP3    H168603   6.613   0.820   2.575  0.6600  0.2105 -1.1648
15704TIP3    H268604   6.613   0.695   2.489 -0.7264 -0.7039  0.1244
15705TIP3   OH268605   1.522   1.241   3.634 -0.0247  0.2270 -0.4957
15705TIP3    H168606   1.577   1.317   3.651 -0.3726  0.0119  1.9227
15705TIP3    H268607   1.446   1.252   3.691 -1.7842 -0.2546 -2.6333
15706TIP3   OH268608   4.805   2.741   3.517 -0.7773  0.1741 -0.0437
15706TIP3    H168609   4.747   2.757   3.592 -2.4403  1.9828 -1.5938
15706TIP3    H268610   4.813   2.826   3.475  2.6786 -0.1237 -0.2317
15707TIP3   OH268611   0.582   0.354   4.066  0.1922  0.1662  0.0946
15707TIP3    H168612   0.533   0.276   4.039 -0.2203  1.2700 -2.7601
15707TIP3    H268613   0.520   0.426   4.054  1.3947  1.2180 -0.0312
15708TIP3   OH268614   0.060   3.672  15.572  0.1006  0.2096  0.5933
15708TIP3    H168615   0.084   3.587  15.534  0.4281  0.9428 -0.8936
15708TIP3    H268616   0.143   3.710  15.599  0.0199  0.3570  0.6334
15709TIP3   OH268617   0.384   3.296   1.470  0.2166 -0.2489  0.0153
15709TIP3    H168618   0.422   3.291   1.558  0.5243 -0.2440 -0.1136
15709TIP3    H268619   0.411   3.214   1.428  0.9504  0.2046 -0.4142
15710TIP3   OH268620   4.701   5.851  15.167 -0.5829  0.2473  0.1480
15710TIP3    H168621   4.739   5.933  15.199  3.1606 -1.1148 -0.2816
15710TIP3    H268622   4.690   5.865  15.073  0.3323  0.2141  0.0253
15711TIP3   OH268623   4.184   3.905  11.748  0.0822 -0.3276 -0.5061
15711TIP3    H168624   4.118   3.898  11.679 -1.2592  1.5409  0.4823
15711TIP3    H268625   4.220   3.994  11.737  1.7532 -0.9525 -0.4004
15712TIP3   OH268626   3.696   1.224   0.131  0.9022 -0.4452  0.1924
15712TIP3    H168627   3.611   1.263   0.154  1.8249  1.8913 -0.0469
15712TIP3    H268628   3.675   1.158   0.065 -0.7163  0.2004  0.0068
15713TIP3   OH268629   6.672   5.211  11.734  0.8898 -0.0490 -0.4017
15713TIP3    H168630   6.754   5.162  11.744  1.6628  1.2874  0.0589
15713TIP3    H268631   6.687   5.268  11.659  1.1063  1.5604  0.8274
15714TIP3   OH268632   1.005   6.061   1.618  0.1486  0.0224  0.0763
15714TIP3    H168633   1.088   6.104   1.638  0.4613 -0.5979  0.1388
15714TIP3    H268634   0.988   6.082   1.527  0.7258 -0.4068 -0.1406
15715TIP3   OH268635   1.922   4.840   0.200  0.3642 -0.4796  0.0350
15715TIP3    H168636   1.983   4.769   0.182 -0.6838 -1.1898 -0.8661
15715TIP3    H268637   1.913   4.840   0.296  1.8753 -0.2350  0.2005
15716TIP3   OH268638   4.207   3.421   5.923  0.3003 -0.0660 -1.0130
15716TIP3    H168639   4.168   3.506   5.904  0.5094  0.0359 -0.9856
15716TIP3    H268640   4.278   3.412   5.859  1.1234  0.3555 -0.1798
15717TIP3   OH268641   5.283   4.956  11.282 -0.0538 -0.3710 -0.5065
15717TIP3    H168642   5.357   4.959  11.342 -1.1842 -0.0683  0.9265
15717TIP3    H268643   5.212   5.001  11.328 -1.0917 -0.4745 -1.9077
15718TIP3   OH268644   1.040   4.880  14.341 -0.5179 -0.3175 -0.2053
15718TIP3    H168645   1.044   4.824  14.419 -0.8481  0.2230  0.2050
15718TIP3    H268646   1.116   4.937  14.348  0.5545 -1.5652 -1.2953
15719TIP3   OH268647   1.597   3.144   5.550 -0.4366  0.0269 -0.1588
15719TIP3    H168648   1.585   3.087   5.626  1.6191 -0.4496 -0.1371
15719TIP3    H268649   1.588   3.233   5.585 -0.7238 -0.2145  0.3931
15720TIP3   OH268650   1.468   3.817  14.963  0.2393 -0.0850  0.0235
15720TIP3    H168651   1.533   3.770  15.015 -0.6252 -2.8549 -1.2081
15720TIP3    H268652   1.516   3.845  14.885  0.1951 -1.4669 -0.5349
15721TIP3   OH268653   0.473   2.392  11.108  0.0756  0.0112  0.6397
15721TIP3    H168654   0.409   2.350  11.051  1.0963 -1.0940  0.2747
15721TIP3    H268655   0.542   2.422  11.049 -0.3715  1.7608  0.9588
15722TIP3   OH268656   5.442   0.622  15.259  0.7904 -0.1877  0.8943
15722TIP3    H168657   5.490   0.702  15.282  0.6341 -0.1127  0.9640
15722TIP3    H268658   5.352   0.652  15.247  1.0603 -0.0040 -1.0090
15723TIP3   OH268659   0.810   4.388  17.099 -0.3591  0.4114  0.0061
15723TIP3    H168660   0.738   4.362  17.042  0.2006  2.2559 -1.6743
15723TIP3    H268661   0.852   4.461  17.053  2.0627 -0.0360  1.3300
15724TIP3   OH268662   2.949   5.899   4.853 -0.2616 -0.1071 -0.0705
15724TIP3    H168663   2.930   5.808   4.830 -1.5799  0.3129 -0.7523
15724TIP3    H268664   2.954   5.944   4.769 -0.7945  0.6553  0.2889
15725TIP3   OH268665   5.773   2.332   4.896  0.4186 -0.7370 -0.4892
15725TIP3    H168666   5.841   2.399   4.908 -0.0563 -0.4714  0.8428
15725TIP3    H268667   5.794   2.265   4.960 -0.8710 -0.3990  0.3092
15726TIP3   OH268668   5.516   3.746  13.477 -0.0264  0.4505  0.4119
15726TIP3    H168669   5.591   3.704  13.519  0.1718 -0.5552 -0.8604
15726TIP3    H268670   5.446   3.680  13.483  0.6018 -0.6380 -2.5833
15727TIP3   OH268671   6.375   5.209   4.913 -0.0899 -0.1129 -0.3352
15727TIP3    H168672   6.397   5.133   4.967  0.4818 -0.4825 -1.0778
15727TIP3    H268673   6.280   5.217   4.921  0.0275  0.1931  1.1796
15728TIP3   OH268674   1.019   6.208   4.243 -0.0597 -0.2408  0.2067
15728TIP3    H168675   0.979   6.161   4.317 -0.7594  0.6481  0.4020
15728TIP3    H268676   1.073   6.141   4.200 -0.8136 -1.1597  0.6391
15729TIP3   OH268677   3.625   1.325  16.545 -0.0829  0.0946 -0.2601
15729TIP3    H168678   3.624   1.412  16.505 -0.0347  0.2083 -0.0172
15729TIP3    H268679   3.533   1.302  16.556 -0.2477 -1.3366 -3.4163
15730TIP3   OH268680   3.852   0.133   5.427 -0.5206  0.4776  0.1520
15730TIP3    H168681   3.765   0.095   5.417 -1.3716  2.2485  0.5049
15730TIP3    H268682   3.850   0.178   5.511  1.2578 -0.6946  0.8807
15731TIP3   OH268683   6.483   5.163   0.128 -0.3306 -0.0553  0.3860
15731TIP3    H168684   6.571   5.194   0.108 -0.8637 -0.1912 -2.7993
15731TIP3    H268685   6.482   5.152   0.223  2.5767  1.3623  0.6973
15732TIP3   OH268686   2.790   2.916   5.082 -0.1887  0.5487  0.3211
15732TIP3    H168687   2.826   2.847   5.138  1.4288  0.4738 -0.7357
15732TIP3    H268688   2.767   2.870   5.001  0.2279  1.1200 -0.1301
15733TIP3   OH268689   5.753   3.728  14.253 -0.0921  0.4087  0.5238
15733TIP3    H168690   5.696   3.685  14.189  0.7755  0.0225 -0.0182
15733TIP3    H268691   5.750   3.670  14.329  0.0242  0.0882  0.2870
15734TIP3   OH268692   3.129   4.876   4.668 -0.3580  0.0990 -0.2778
15734TIP3    H168693   3.161   4.907   4.752 -1.3981 -1.2929  0.6857
15734TIP3    H268694   3.198   4.897   4.606 -0.8579  4.0328  0.2779
15735TIP3   OH268695   6.108   2.231  11.567  0.1143 -0.4970  0.3388
15735TIP3    H168696   6.177   2.262  11.509  1.1585 -0.9784  1.2842
15735TIP3    H268697   6.086   2.307  11.621 -1.0903  0.0462 -0.8578
15736TIP3   OH268698   2.746   1.519   4.316 -0.4756 -0.4349  0.2971
15736TIP3    H168699   2.829   1.537   4.360 -1.3625 -1.7686  2.7083
15736TIP3    H268700   2.765   1.444   4.259 -0.0246 -0.7521  0.8525
15737TIP3   OH268701   4.673   6.613   1.296  0.2893  0.1341  0.2379
15737TIP3    H168702   4.690   6.631   1.203  1.1746  1.4783  0.6267
15737TIP3    H268703   4.656   6.519   1.300 -1.8068  0.3667 -1.5648
15738TIP3   OH268704   0.577   2.235   0.274  0.2702  0.2941  0.4326
15738TIP3    H168705   0.565   2.199   0.362  0.8463 -2.4650 -0.5088
15738TIP3    H268706   0.490   2.265   0.248 -0.2419 -0.3825  1.3153
15739TIP3   OH268707   2.386   1.438   5.182  0.1319  0.2539  0.6082
15739TIP3    H168708   2.430   1.418   5.100  0.4012 -2.7518  1.3547
15739TIP3    H268709   2.441   1.398   5.249 -0.6520  1.6653  2.1749
15740TIP3   OH268710   5.391   5.834  11.308  0.7193 -0.1908 -0.3623
15740TIP3    H168711   5.378   5.929  11.311 -1.5593 -0.4658 -0.3142
15740TIP3    H268712   5.343   5.805  11.231 -0.8575 -1.5696  1.0424
15741TIP3   OH268713   0.230   3.142  16.237 -0.4913 -0.2450  0.4405
15741TIP3    H168714   0.262   3.053  16.252 -1.1915 -0.9996 -1.9818
15741TIP3    H268715   0.290   3.177  16.171 -0.1870  1.1445  1.4149
15742TIP3   OH268716   6.336   1.220  15.184  0.1550  0.2756  0.4256
15742TIP3    H168717   6.413   1.276  15.191  0.1244  0.3793 -0.0275
15742TIP3    H268718   6.336   1.168  15.265  0.7302  0.2280  0.3961
15743TIP3   OH268719   1.686   2.660   3.153  0.1565 -0.0462  0.2198
15743TIP3    H168720   1.628   2.585   3.140 -2.0610  1.6115 -0.0017
15743TIP3    H268721   1.748   2.655   3.081 -0.3147 -1.3170 -0.1317
15744TIP3   OH268722   4.136   5.777   2.471  0.0880 -0.1143 -0.3773
15744TIP3    H168723   4.074   5.746   2.405  0.4944 -0.0767 -0.7827
15744TIP3    H268724   4.185   5.846   2.426 -1.4013  1.7932  0.7671
15745TIP3   OH268725   1.258   6.124   5.939  0.1930  0.8363  0.1066
15745TIP3    H168726   1.339   6.140   5.988  0.2929 -0.4584  0.4048
15745TIP3    H268727   1.242   6.030   5.950  0.6294  0.3040 -2.9534
15746TIP3   OH268728   2.570   0.851  16.379 -0.1476  0.3491 -0.2345
15746TIP3    H168729   2.588   0.942  16.403 -0.6038  0.1594  0.8364
15746TIP3    H268730   2.630   0.799  16.433 -2.9557 -0.2309  2.6098
15747TIP3   OH268731   6.629   6.548   1.812  0.4261 -0.5616  0.2291
15747TIP3    H168732   6.725   6.548   1.820  0.5660  0.8571 -1.0015
15747TIP3    H268733   6.612   6.588   1.727 -1.3145  0.8498  1.1737
15748TIP3   OH268734   3.022   0.742   1.504 -0.1403  0.1580  0.3420
15748TIP3    H168735   3.117   0.740   1.493 -0.0776  0.1370  0.8564
15748TIP3    H268736   3.008   0.797   1.581 -0.5873  0.7110 -0.1232
15749TIP3   OH268737   5.795   4.376   0.767  0.3243  0.7610  0.1118
15749TIP3    H168738   5.872   4.431   0.780  2.1534 -1.6886  0.3172
15749TIP3    H268739   5.754   4.411   0.688  3.2926  0.4843 -1.7012
15750TIP3   OH268740   0.354   5.874  12.767 -0.3087 -0.4366  0.0854
15750TIP3    H168741   0.385   5.907  12.851 -0.9425  0.3766  0.0117
15750TIP3    H268742   0.408   5.797  12.750  1.9962  1.1727 -0.2791
15751TIP3   OH268743   1.411   4.215  11.017 -0.3678  0.1229  0.4586
15751TIP3    H168744   1.357   4.231  11.094 -1.4618 -0.4882 -0.1593
15751TIP3    H268745   1.495   4.184  11.052 -1.6858 -2.6790  1.4106
15752TIP3   OH268746   5.938   3.277   1.907 -0.3101  0.1556  0.5366
15752TIP3    H168747   5.914   3.192   1.872 -0.6873 -0.0786  1.3430
15752TIP3    H268748   5.975   3.324   1.832  0.4615 -0.9159  0.2213
15753TIP3   OH268749   6.249   0.441  13.673 -0.4328  0.3854 -0.0434
15753TIP3    H168750   6.292   0.513  13.718  0.2454  0.7646 -1.2339
15753TIP3    H268751   6.159   0.442  13.704 -0.9701  2.9948 -1.4588
15754TIP3   OH268752   6.815   3.269  11.192  0.1930  0.5802 -0.1489
15754TIP3    H168753   6.819   3.364  11.181  0.5837  0.4198 -1.6307
15754TIP3    H268754   6.774   3.237  11.111  1.1115 -0.5854 -0.1904
15755TIP3   OH268755   3.704   2.347   2.016  0.4086 -0.5483 -0.1018
15755TIP3    H168756   3.644   2.403   2.066 -0.3312 -0.5536 -0.9467
15755TIP3    H268757   3.743   2.406   1.951 -0.8835 -1.0876 -1.4411
15756TIP3   OH268758   1.139   6.585  10.659  0.1400 -0.6071  0.1505
15756TIP3    H168759   1.110   6.647  10.592  0.1170 -0.1127  0.6094
15756TIP3    H268760   1.128   6.633  10.741 -0.4462 -1.4369  0.5662
15757TIP3   OH268761   3.787   3.515   0.311 -0.1008  0.0800 -0.1077
15757TIP3    H168762   3.845   3.576   0.357  1.0347  0.1850 -1.5992
15757TIP3    H268763   3.726   3.571   0.264  0.1508  0.0361 -0.4875
15758TIP3   OH268764   0.451   1.177  11.886 -0.2379 -0.1267 -0.4369
15758TIP3    H168765   0.471   1.241  11.954  0.1109 -0.2397 -0.4331
15758TIP3    H268766   0.369   1.209  11.847  1.1478  1.6720 -2.0393
15759TIP3   OH268767   6.057   1.847   3.793 -0.2015 -0.0570  0.0444
15759TIP3    H168768   6.017   1.840   3.880 -0.0188  0.3640  0.1638
15759TIP3    H268769   6.125   1.914   3.803 -1.1341  1.0662 -0.7601
15760TIP3   OH268770   3.769   0.083  15.848 -0.4164 -0.0582 -0.0599
15760TIP3    H168771   3.722   0.161  15.876  0.2059  0.1006  0.5816
15760TIP3    H268772   3.766   0.024  15.924 -0.5813 -0.5107 -0.4165
15761TIP3   OH268773   5.556   2.922   1.410 -0.2101  0.0876  0.4753
15761TIP3    H168774   5.481   2.961   1.455 -1.8753 -0.3549 -1.7393
15761TIP3    H268775   5.544   2.828   1.420 -0.4146 -0.0088 -0.5028
15762TIP3   OH268776   0.387   0.662   0.973 -0.0572  0.3609  0.1126
15762TIP3    H168777   0.367   0.573   1.003 -0.2442 -0.0139 -1.0628
15762TIP3    H268778   0.462   0.651   0.914  0.1284  1.0323  0.2119
15763TIP3   OH268779   6.096   4.144   5.170 -0.3218 -0.1525  0.2464
15763TIP3    H168780   6.158   4.214   5.193  0.2097 -1.0734  1.7527
15763TIP3    H268781   6.033   4.187   5.112  0.2670  1.4681  0.7286
15764TIP3   OH268782   0.893   4.954  15.743 -0.0229  0.1870  0.4283
15764TIP3    H168783   0.804   4.944  15.776 -0.1010 -0.4888  0.0383
15764TIP3    H268784   0.884   5.003  15.662  0.0272  0.6425  0.6938
15765TIP3   OH268785   5.811   3.572   1.039  0.2510 -0.1519  0.7444
15765TIP3    H168786   5.720   3.597   1.052  0.6377  0.9891  1.3329
15765TIP3    H268787   5.806   3.492   0.986 -1.0654  0.2638  0.1991
15766TIP3   OH268788   4.269   3.435  13.930 -0.5498  0.2567  0.1432
15766TIP3    H168789   4.223   3.519  13.934 -0.2509  0.3958  0.7120
15766TIP3    H268790   4.199   3.370  13.917 -0.6988  0.6677 -1.2927
15767TIP3   OH268791   2.966   1.152  16.019 -0.2122  0.1997  0.4478
15767TIP3    H168792   2.922   1.169  15.936 -0.1880 -4.1823 -0.7238
15767TIP3    H268793   3.054   1.125  15.994  0.5301  0.8704  2.1466
15768TIP3   OH268794   0.800   4.151   3.477  0.6627 -0.3417  0.0873
15768TIP3    H168795   0.765   4.211   3.412 -0.9151 -1.5352 -0.2321
15768TIP3    H268796   0.825   4.073   3.427  0.6052 -0.7977  0.7545
15769TIP3   OH268797   5.008   0.000  16.485 -0.5641 -0.6637 -0.3031
15769TIP3    H168798   5.015   0.083  16.436  2.7746 -0.6641 -0.0358
15769TIP3    H268799   4.915  -0.006  16.507 -1.3448  1.8355 -2.3310
15770TIP3   OH268800   0.181   4.972  13.232 -0.3017 -0.0357  0.2197
15770TIP3    H168801   0.205   4.883  13.204 -1.1274  0.0208 -0.7153
15770TIP3    H268802   0.220   4.981  13.319  0.2880 -1.1023  0.0817
15771TIP3   OH268803   6.175   6.190  11.211 -0.0633  0.2727 -0.3520
15771TIP3    H168804   6.166   6.127  11.282 -0.4022  0.9749  0.2525
15771TIP3    H268805   6.163   6.275  11.253  1.7600  0.8507 -0.8816
15772TIP3   OH268806   0.114   5.981   1.157  0.4221  0.4791  0.3962
15772TIP3    H168807   0.051   5.959   1.090  0.4406 -0.2244  0.6029
15772TIP3    H268808   0.166   5.901   1.169  0.7191  0.7409  0.9122
15773TIP3   OH268809   1.001   5.393  15.503 -0.0197  0.1122 -0.3214
15773TIP3    H168810   1.007   5.322  15.567 -1.7505  0.6185  0.4514
15773TIP3    H268811   0.953   5.355  15.430  1.0662 -0.1629 -0.9111
15774TIP3   OH268812   1.303   2.364   0.081 -0.5601  0.6201  0.1806
15774TIP3    H168813   1.352   2.353  -0.001 -0.8861 -0.5565  0.1342
15774TIP3    H268814   1.218   2.326   0.063 -1.1166  1.6122  0.6398
15775TIP3   OH268815   5.447   4.213  16.990 -0.5253 -1.3786  0.4522
15775TIP3    H168816   5.491   4.222  17.075  0.2401 -0.2197 -0.0430
15775TIP3    H268817   5.363   4.258  17.003 -0.4221 -1.2257  0.6036
15776TIP3   OH268818   4.003   6.181   2.205 -0.4268 -0.0374  0.1968
15776TIP3    H168819   4.040   6.268   2.191  2.4734 -1.1576  0.2179
15776TIP3    H268820   4.015   6.136   2.121  0.9241 -1.3208  1.0263
15777TIP3   OH268821   5.670   1.567   3.983 -0.9623  0.5859  0.0038
15777TIP3    H168822   5.672   1.640   4.045  1.5641  1.2417 -0.7450
15777TIP3    H268823   5.669   1.608   3.897 -1.8980 -0.3127 -0.4434
15778TIP3   OH268824   2.627   5.719   0.367 -0.0793 -0.6453  0.2991
15778TIP3    H168825   2.675   5.800   0.353 -0.0761 -0.8519 -0.9444
15778TIP3    H268826   2.535   5.745   0.366 -0.1235 -0.7758 -1.1175
15779TIP3   OH268827   5.850   5.375   4.621  0.4915  0.1753  0.2664
15779TIP3    H168828   5.824   5.382   4.713  1.0380  2.1137  0.3130
15779TIP3    H268829   5.945   5.385   4.623  0.6663 -1.2003 -0.4033
15780TIP3   OH268830   3.344   2.312  15.869 -0.5759  0.0086  0.2072
15780TIP3    H168831   3.365   2.234  15.819  1.4773  1.0959 -0.7414
15780TIP3    H268832   3.328   2.380  15.804 -0.9658  0.7232  1.0166
15781TIP3   OH268833   4.691   5.296  13.832  0.3565  0.4345 -0.1741
15781TIP3    H168834   4.652   5.222  13.880 -0.2383  0.7356 -0.1928
15781TIP3    H268835   4.783   5.270  13.820 -0.3529 -1.4438 -2.3612
15782TIP3   OH268836   6.160   0.076  14.329 -0.0412 -0.7061  0.6334
15782TIP3    H168837   6.187   0.086  14.420 -0.5835 -0.2603  0.7462
15782TIP3    H268838   6.217   0.006  14.295  0.2849 -0.7505  1.2569
15783TIP3   OH268839   1.331   1.810  13.991 -0.5341  0.3066 -0.0512
15783TIP3    H168840   1.356   1.888  14.041 -0.7950  0.8635 -0.7617
15783TIP3    H268841   1.245   1.787  14.024 -1.6821  1.9711 -1.6680
15784TIP3   OH268842   6.109   5.431   1.224 -0.5388 -0.1175 -0.1069
15784TIP3    H168843   6.110   5.436   1.128 -1.0228 -1.0746 -0.1794
15784TIP3    H268844   6.105   5.337   1.243  2.2621 -0.1150  0.9136
15785TIP3   OH268845   1.544   0.195  12.618 -0.1517 -0.6925  0.3195
15785TIP3    H168846   1.459   0.178  12.657 -1.0455 -0.1684 -1.3223
15785TIP3    H268847   1.529   0.267  12.556  1.6307 -0.0880  0.5035
15786TIP3   OH268848   1.726   0.736  11.087  0.7731  0.2473  0.6188
15786TIP3    H168849   1.732   0.832  11.088 -1.1611  0.3954  0.2031
15786TIP3    H268850   1.743   0.712  10.996 -2.8455  0.5717 -0.2622
15787TIP3   OH268851   3.036   4.883  16.057 -0.1619  0.5789  0.3942
15787TIP3    H168852   3.066   4.972  16.073 -0.5362  1.5060 -3.2004
15787TIP3    H268853   2.941   4.886  16.073 -0.4789  1.3769 -1.4347
15788TIP3   OH268854   2.134   5.459  11.808 -0.6058  0.2775  0.1832
15788TIP3    H168855   2.185   5.532  11.842  0.6054  0.5096 -1.9879
15788TIP3    H268856   2.044   5.491  11.806 -0.2397  1.3346  0.2640
15789TIP3   OH268857   6.365   1.688   6.256 -0.7195  0.0765 -0.0193
15789TIP3    H168858   6.356   1.616   6.317  0.4560 -0.0378  0.0391
15789TIP3    H268859   6.388   1.763   6.310 -2.8354  0.7551  0.0379
15790TIP3   OH268860   5.590   1.408  15.878  0.1102  0.0922 -0.1812
15790TIP3    H168861   5.550   1.385  15.795  1.4633  1.7264 -1.3534
15790TIP3    H268862   5.668   1.353  15.883  0.2753  0.3252 -0.2102
15791TIP3   OH268863   5.333   4.169  13.450 -0.8627  0.0422  0.2287
15791TIP3    H168864   5.322   4.252  13.496  0.5261  1.0782 -1.2108
15791TIP3    H268865   5.427   4.151  13.453 -0.9362 -0.6364 -0.8455
15792TIP3   OH268866   3.530   6.346   0.343 -0.4678  0.0183  0.2363
15792TIP3    H168867   3.449   6.303   0.372 -0.2170 -1.7711 -1.5311
15792TIP3    H268868   3.587   6.274   0.315  0.6646  1.4011 -1.1929
15793TIP3   OH268869   6.792   5.007   5.215 -0.5548  0.0718 -0.2897
15793TIP3    H168870   6.706   4.983   5.180 -0.7041  0.4573 -0.1831
15793TIP3    H268871   6.777   5.021   5.308  0.3532 -3.7356  0.6179
15794TIP3   OH268872   5.108   5.067   5.990 -0.1020 -0.6688 -0.2560
15794TIP3    H168873   5.087   4.978   6.015 -1.5550 -0.3190 -0.1475
15794TIP3    H268874   5.099   5.118   6.071  2.9981 -0.7339  0.2379
15795TIP3   OH268875   3.497   0.858   1.600  0.3709 -0.3317  0.6458
15795TIP3    H168876   3.417   0.851   1.652  1.3315 -0.5284  2.1456
15795TIP3    H268877   3.483   0.797   1.527 -0.9137 -0.2149  0.7715
15796TIP3   OH268878   4.588   6.262  12.301 -0.4775 -0.1614  0.1306
15796TIP3    H168879   4.538   6.257  12.220 -0.0520 -2.2117 -0.0674
15796TIP3    H268880   4.523   6.279  12.369 -0.9659  0.5587 -0.5093
15797TIP3   OH268881   0.646   3.311  14.353 -0.2978  0.2599 -0.3318
15797TIP3    H168882   0.620   3.378  14.416 -2.3814 -0.0011 -0.8320
15797TIP3    H268883   0.684   3.360  14.280 -0.8261  0.8275 -0.2371
15798TIP3   OH268884   1.937   6.231   4.206 -0.4299  0.6930 -0.2263
15798TIP3    H168885   1.964   6.202   4.119 -3.0124  0.1736 -0.9532
15798TIP3    H268886   1.868   6.170   4.232  1.8643 -0.6996  3.3456
15799TIP3   OH268887   2.838   3.031  14.159  0.3326  0.4385  0.3634
15799TIP3    H168888   2.780   3.099  14.193 -0.2150 -0.7706  1.9408
15799TIP3    H268889   2.783   2.953  14.151  1.4190 -0.3751  0.5526
15800TIP3   OH268890   0.985   2.333   5.241  0.4583 -0.4903  0.0190
15800TIP3    H168891   0.929   2.309   5.167 -0.1062  0.1477  0.2286
15800TIP3    H268892   1.009   2.250   5.281 -1.1191 -0.7510  0.4854
15801TIP3   OH268893   2.956   4.305  11.005 -0.0160 -0.2449  0.0009
15801TIP3    H168894   3.012   4.372  10.966  0.4958 -0.8850 -0.3862
15801TIP3    H268895   2.906   4.269  10.931 -1.3456  0.6767  0.4125
15802TIP3   OH268896   6.345   0.002   6.234 -0.0617 -0.2510 -0.1537
15802TIP3    H168897   6.390  -0.048   6.302 -1.3860  0.1486  1.0904
15802TIP3    H268898   6.303   0.074   6.282 -1.3850 -0.1964 -1.3234
15803TIP3   OH268899   5.467   4.107   1.586 -0.7758 -0.0365  0.0986
15803TIP3    H168900   5.425   4.027   1.617  0.1818 -1.2890 -1.7008
15803TIP3    H268901   5.445   4.173   1.652 -0.7610 -1.9872  2.1341
15804TIP3   OH268902   4.684   4.468   0.980  0.1213  0.2159 -0.1101
15804TIP3    H168903   4.660   4.377   0.966 -0.2510  0.1861  0.6528
15804TIP3    H268904   4.774   4.465   1.013  0.7158  0.2410 -1.6508
15805TIP3   OH268905   2.982   6.620   2.000  0.0492 -0.1759 -0.3398
15805TIP3    H168906   3.038   6.664   1.935 -0.4868 -0.8382 -1.2612
15805TIP3    H268907   3.044   6.580   2.061  0.5652  0.2020 -0.6050
15806TIP3   OH268908   0.109   5.259   1.632  0.8153  0.3522  0.0305
15806TIP3    H168909   0.056   5.215   1.565  0.4323 -0.7259  1.0018
15806TIP3    H268910   0.092   5.209   1.712  1.2882  1.5819  0.9294
15807TIP3   OH268911   4.265   6.587   3.921  0.2288  0.1938 -0.1342
15807TIP3    H168912   4.360   6.578   3.914  0.3089  0.6674  0.2554
15807TIP3    H268913   4.232   6.497   3.917  0.7949 -0.0912  1.0939
15808TIP3   OH268914   2.504   1.534   1.577  0.0279  0.0169  0.4280
15808TIP3    H168915   2.449   1.537   1.499  0.2590  0.3384  0.2725
15808TIP3    H268916   2.493   1.446   1.612  0.8280 -0.5240 -0.6340
15809TIP3   OH268917   5.502   0.432  12.404 -0.2029  0.1076  0.4770
15809TIP3    H168918   5.505   0.453  12.311 -2.3356 -0.4870  0.2205
15809TIP3    H268919   5.408   0.432  12.426  0.1332 -1.4964  2.1981
15810TIP3   OH268920   0.622   0.670   3.417 -0.0296 -0.0619 -0.2929
15810TIP3    H168921   0.605   0.584   3.377  1.3706 -0.1733 -0.6829
15810TIP3    H268922   0.590   0.661   3.506 -1.4167 -0.4459 -0.8013
15811TIP3   OH268923   0.115   0.458   6.219 -0.9174  0.4749 -0.4102
15811TIP3    H168924   0.159   0.376   6.242 -0.7884  0.3563 -1.0582
15811TIP3    H268925   0.172   0.527   6.254  0.3797  0.3621 -2.1276
15812TIP3   OH268926   4.193   0.660  13.192 -0.0856 -0.2655  0.2802
15812TIP3    H168927   4.273   0.628  13.151  0.0467  0.5381 -0.0936
15812TIP3    H268928   4.125   0.599  13.161  0.3419 -0.8681  0.4937
15813TIP3   OH268929   5.508   0.164   2.855  0.6581  0.8478  0.0501
15813TIP3    H168930   5.484   0.257   2.858 -1.7183  0.2790  1.0739
15813TIP3    H268931   5.480   0.136   2.768  0.0424  0.8000  0.2557
15814TIP3   OH268932   3.167   2.083  16.046 -0.3895 -0.3967 -0.1119
15814TIP3    H168933   3.185   2.175  16.062 -1.8275  0.1409 -1.2834
15814TIP3    H268934   3.186   2.071  15.953 -1.3801 -0.9503 -0.2626
15815TIP3   OH268935   0.344   5.525  11.125  0.3548  0.6796  0.2894
15815TIP3    H168936   0.352   5.560  11.036 -1.9363  0.2773 -0.1419
15815TIP3    H268937   0.254   5.547  11.151  0.6584 -0.0846  2.1275
15816TIP3   OH268938   1.097   5.989   4.035  0.2285  0.1885  0.3604
15816TIP3    H168939   1.080   5.939   3.955  0.4922  0.0459  0.3936
15816TIP3    H268940   1.020   5.973   4.090 -0.3217  0.9119 -0.1745
15817TIP3   OH268941   4.323   2.920  15.914 -0.1042  0.0905  0.3234
15817TIP3    H168942   4.416   2.915  15.935 -0.0039  2.8758  0.8742
15817TIP3    H268943   4.286   2.978  15.981 -1.5944  1.6036 -1.6902
15818TIP3   OH268944   5.347   0.173   4.287  0.1795  0.3814  0.3105
15818TIP3    H168945   5.414   0.224   4.332  0.0012  1.0843 -0.2052
15818TIP3    H268946   5.273   0.234   4.277  1.0586  1.1057 -3.1216
15819TIP3   OH268947   3.402   3.409  12.290 -0.1442  0.1409  0.0625
15819TIP3    H168948   3.342   3.424  12.362  1.8249  1.3746  1.5654
15819TIP3    H268949   3.381   3.321  12.258 -0.6540 -0.7426  2.5982
15820TIP3   OH268950   5.064   3.130   0.190  0.8743 -0.5713 -0.2500
15820TIP3    H168951   5.133   3.076   0.152  0.2103 -0.7476 -1.2680
15820TIP3    H268952   5.079   3.126   0.284  2.0821 -0.8157 -0.4338
15821TIP3   OH268953   5.222   2.342   5.001 -0.4950  0.0236  0.2876
15821TIP3    H168954   5.217   2.432   4.968  0.3702  0.8652  2.2416
15821TIP3    H268955   5.272   2.350   5.082  1.2497 -2.5140 -0.4283
15822TIP3   OH268956   1.374   0.822   1.505  0.2035 -0.2640 -0.1427
15822TIP3    H168957   1.373   0.733   1.469  0.9276 -0.3922  0.1420
15822TIP3    H268958   1.424   0.872   1.441 -1.8998  0.4042 -1.3391
15823TIP3   OH268959   6.015   1.992   1.432 -0.2817  0.1346  0.8648
15823TIP3    H168960   6.022   1.897   1.419  0.8566  0.0297  1.9873
15823TIP3    H268961   5.979   2.001   1.520  0.5485  0.7129  1.1616
15824TIP3   OH268962   4.943   3.828  11.786 -0.3228 -0.6787  0.0504
15824TIP3    H168963   4.848   3.830  11.776 -0.4210  1.1028  0.9400
15824TIP3    H268964   4.957   3.784  11.870 -0.5467  1.4088  1.2351
15825TIP3   OH268965   4.965   3.633  12.335  0.4935  0.1423  0.0324
15825TIP3    H168966   5.014   3.675  12.405 -1.5033  1.5432  0.6784
15825TIP3    H268967   4.979   3.539  12.349  0.8677  0.4323  1.7631
15826TIP3   OH268968   1.652   3.836   2.140 -0.2439 -0.0751  0.4196
15826TIP3    H168969   1.561   3.836   2.110  0.6044  0.4120 -2.4158
15826TIP3    H268970   1.698   3.779   2.078  1.7392  1.3394  0.5011
15827TIP3   OH268971   0.166   2.949   2.806 -0.4418 -0.9321  0.0027
15827TIP3    H168972   0.144   2.883   2.872 -0.5740  0.5513  1.5165
15827TIP3    H268973   0.092   3.009   2.807  0.2846 -0.0092 -0.3477
15828TIP3   OH268974   6.402   2.170  13.892  0.0544 -0.0941 -0.0291
15828TIP3    H168975   6.491   2.184  13.861 -0.1087  0.3632 -0.2935
15828TIP3    H268976   6.349   2.162  13.813 -0.2621  0.4326  0.1270
15829TIP3   OH268977   6.210   3.513  15.785  0.1765 -0.0784  0.1209
15829TIP3    H168978   6.193   3.445  15.720  0.4052 -0.6718  0.6764
15829TIP3    H268979   6.128   3.520  15.834  0.4237 -0.5410  0.6012
15830TIP3   OH268980   3.494   3.006   5.504 -0.1987 -0.5754 -0.3931
15830TIP3    H168981   3.427   2.990   5.437  1.2210 -1.1917 -1.7166
15830TIP3    H268982   3.518   2.918   5.534 -0.0911 -0.3446  0.2138
15831TIP3   OH268983   5.356   0.626   4.373 -0.1127  0.6707  0.2096
15831TIP3    H168984   5.358   0.601   4.281 -1.7738  1.1181  0.0246
15831TIP3    H268985   5.392   0.551   4.420  1.7726  0.8563 -0.8550
15832TIP3   OH268986   1.887   5.488   3.347 -0.2370  0.3548 -0.5183
15832TIP3    H168987   1.858   5.440   3.424 -0.3311  0.6826 -0.3484
15832TIP3    H268988   1.894   5.421   3.278 -0.0928  0.0509 -0.2132
15833TIP3   OH268989   0.930   3.752  10.791  0.2951  0.1193 -0.1228
15833TIP3    H168990   0.917   3.746  10.885  1.4916 -1.5292 -0.0259
15833TIP3    H268991   0.924   3.846  10.772 -0.1642  0.4613  1.5436
15834TIP3   OH268992   1.986   4.235  16.653  0.6072 -0.3103  0.6822
15834TIP3    H168993   1.968   4.167  16.587  1.8296  0.6594 -0.7259
15834TIP3    H268994   1.900   4.269  16.676  0.2000  0.7508 -2.0239
15835TIP3   OH268995   5.332   6.015   0.904 -0.6664  0.0833 -0.4963
15835TIP3    H168996   5.331   6.061   0.988 -0.6133 -0.8097  0.0078
15835TIP3    H268997   5.248   5.968   0.901 -2.2252  2.6877 -2.4622
15836TIP3   OH268998   0.176   3.508   2.008 -0.7742  0.1917 -0.4944
15836TIP3    H168999   0.147   3.567   2.077  1.0086  0.5240  0.0351
15836TIP3    H269000   0.269   3.529   1.997 -0.2965 -1.9269 -0.8984
15837TIP3   OH269001   6.485   4.652  10.048  0.1196 -0.3241  0.0521
15837TIP3    H169002   6.433   4.728  10.076  1.3602  0.9552 -0.9387
15837TIP3    H269003   6.423   4.580  10.047 -0.9173  0.4513  1.9224
15838TIP3   OH269004   1.516   1.121   3.218  0.1813 -0.5070  0.9136
15838TIP3    H169005   1.448   1.187   3.202 -1.0143 -1.4613  1.8394
15838TIP3    H269006   1.501   1.094   3.308  0.5584 -2.1505  0.5020
15839TIP3   OH269007   0.377   3.036  13.391  0.5082 -0.5038  0.4842
15839TIP3    H169008   0.391   3.099  13.461  1.5432  3.0115 -2.5269
15839TIP3    H269009   0.465   3.004  13.370  0.1903 -1.6597  0.8701
15840TIP3   OH269010   0.765   0.744  14.311  0.1551  0.3633  0.2575
15840TIP3    H169011   0.830   0.715  14.246 -0.3670  0.6384 -0.3929
15840TIP3    H269012   0.760   0.671  14.373 -1.0408 -0.9438 -1.2800
15841TIP3   OH269013   5.487   1.890   1.266 -0.1491  0.0606 -0.2910
15841TIP3    H169014   5.499   1.947   1.342 -0.3716 -1.5800  1.0100
15841TIP3    H269015   5.574   1.882   1.228  0.0362  0.5633  0.0114
15842TIP3   OH269016   0.365   0.500   4.053  0.6390 -0.0551 -0.0667
15842TIP3    H169017   0.338   0.586   4.021 -1.1146 -0.7498 -0.5742
15842TIP3    H269018   0.301   0.479   4.121 -1.3535 -2.5308 -2.5136
15843TIP3   OH269019   3.526   6.691   2.170  0.2161  0.3467  0.3618
15843TIP3    H169020   3.556   6.661   2.085  0.2875 -0.8698  0.8023
15843TIP3    H269021   3.566   6.631   2.233 -0.2168  0.9300  1.2208
15844TIP3   OH269022   6.660   6.634  14.977  0.1771 -0.4477  0.1458
15844TIP3    H169023   6.677   6.724  15.004  1.6485  0.0131 -2.0479
15844TIP3    H269024   6.581   6.640  14.922  0.6545 -0.3681 -0.5407
15845TIP3   OH269025   3.743   3.322  16.045  0.7611 -0.0627  0.1889
15845TIP3    H169026   3.801   3.327  16.121  1.1476 -0.1236 -0.1034
15845TIP3    H269027   3.695   3.240  16.057 -0.7410  0.9345  1.4922
15846TIP3   OH269028   3.336   2.659  15.351 -0.3141  0.1871 -0.0264
15846TIP3    H169029   3.309   2.749  15.369  1.4008  0.6777  0.2576
15846TIP3    H269030   3.260   2.606  15.375 -0.9070  1.4549  1.0040
15847TIP3   OH269031   6.402   3.944   3.869 -0.4667  0.5662 -0.4003
15847TIP3    H169032   6.404   3.923   3.776  1.8150  0.9209 -0.4747
15847TIP3    H269033   6.493   3.939   3.897 -1.2401 -0.9819  2.1768
15848TIP3   OH269034   3.836   0.921   1.074 -0.2820 -1.1198  0.6314
15848TIP3    H169035   3.818   0.876   0.992  0.4674 -1.5613  0.7024
15848TIP3    H269036   3.750   0.949   1.105 -0.5738 -0.9515 -0.2938
15849TIP3   OH269037   1.508   1.515  15.154 -0.1695  0.4138  0.1023
15849TIP3    H169038   1.445   1.549  15.090 -1.3496 -1.7770  0.0048
15849TIP3    H269039   1.591   1.510  15.106 -0.5323  0.8630 -0.5868
15850TIP3   OH269040   1.643   6.733  15.610  0.0373 -0.2404 -0.0764
15850TIP3    H169041   1.596   6.763  15.532 -2.3685 -1.4783  0.8224
15850TIP3    H269042   1.638   6.807  15.671 -0.0552 -0.0892 -0.2652
15851TIP3   OH269043   5.750   5.861  11.293  0.4179 -0.1782  0.0414
15851TIP3    H169044   5.690   5.788  11.297 -1.6682  1.4431 -0.0833
15851TIP3    H269045   5.755   5.894  11.383  0.1996  0.3862 -0.1471
15852TIP3   OH269046   3.437   5.844   2.863 -0.2073 -0.3487 -0.6050
15852TIP3    H169047   3.360   5.856   2.919 -0.4676 -0.0686 -1.0122
15852TIP3    H269048   3.484   5.927   2.868 -1.1564  0.3341 -2.1570
15853TIP3   OH269049   2.101   5.949   2.349  0.4077 -0.0582  0.5556
15853TIP3    H169050   2.060   6.014   2.291 -0.3914  1.2813  2.5400
15853TIP3    H269051   2.195   5.964   2.338  0.3099 -0.3331 -0.9114
15854TIP3   OH269052   4.921   2.964   4.681  0.0416  0.2978  0.0682
15854TIP3    H169053   4.997   3.005   4.722  0.2700 -1.7946  1.9455
15854TIP3    H269054   4.956   2.919   4.604  0.1507  1.6865 -0.7329
15855TIP3   OH269055   5.634   4.164  12.299  0.2746  0.3606  0.8028
15855TIP3    H169056   5.570   4.205  12.240  0.1913 -0.0056  0.6353
15855TIP3    H269057   5.630   4.217  12.379  1.2203  1.5684  0.0844
15856TIP3   OH269058   1.925   6.422  15.248  0.5838  0.4667  0.0326
15856TIP3    H169059   1.844   6.439  15.295  0.4009 -0.9744  0.2809
15856TIP3    H269060   1.957   6.509  15.222 -0.6484  1.0934  0.5598
15857TIP3   OH269061   0.703   2.607   3.749  0.1942  0.3625 -0.7453
15857TIP3    H169062   0.650   2.684   3.728  1.1598  1.6681  1.3030
15857TIP3    H269063   0.784   2.642   3.784 -0.6213 -1.4068  3.5452
15858TIP3   OH269064   2.534   0.224  15.290  0.0756 -0.3050 -0.1328
15858TIP3    H169065   2.483   0.218  15.209 -2.8855  0.6680  1.5133
15858TIP3    H269066   2.566   0.134  15.304 -0.5179 -0.7902 -1.6356
15859TIP3   OH269067   1.681   0.532  11.724 -0.4182  0.0996  0.0779
15859TIP3    H169068   1.735   0.600  11.683 -0.8216 -0.2386 -1.0661
15859TIP3    H269069   1.739   0.457  11.733 -0.3846  0.1014 -0.1087
15860TIP3   OH269070   5.851   4.340   3.109  0.3840  0.3520  0.1198
15860TIP3    H169071   5.851   4.436   3.104 -2.7452  0.4063 -1.2959
15860TIP3    H269072   5.771   4.318   3.156  0.8491 -1.5761  0.0935
15861TIP3   OH269073   2.421   6.601   5.871  0.6644  0.9922 -0.3119
15861TIP3    H169074   2.352   6.647   5.919  0.2949  1.4660 -1.2634
15861TIP3    H269075   2.443   6.526   5.926 -0.4308  0.9763  0.1310
15862TIP3   OH269076   4.908   0.458  12.553  0.4584 -0.8923  0.0039
15862TIP3    H169077   4.902   0.420  12.641  0.6023  0.4825  0.6337
15862TIP3    H269078   4.945   0.388  12.499  1.4914 -1.3868  1.2940
15863TIP3   OH269079   5.029   2.370  12.860 -1.0555  0.5872  0.5151
15863TIP3    H169080   4.951   2.331  12.821 -1.5699  1.3494  0.7620
15863TIP3    H269081   5.027   2.462  12.831 -1.0904  0.9960  1.7803
15864TIP3   OH269082   1.590   3.559   4.988  0.5537  0.1211  0.2359
15864TIP3    H169083   1.500   3.554   5.021  0.6704  2.6961  1.1334
15864TIP3    H269084   1.615   3.467   4.974 -1.7731 -0.7301  1.0942
15865TIP3   OH269085   3.111   3.232  13.496 -0.0602 -0.1041 -0.3761
15865TIP3    H169086   3.015   3.235  13.490 -0.1079 -1.5881 -0.5326
15865TIP3    H269087   3.139   3.312  13.450 -1.1714 -0.4067 -1.6719
15866TIP3   OH269088   5.499   1.837   6.225 -0.1842 -0.7527  0.1768
15866TIP3    H169089   5.448   1.798   6.296  1.0725 -0.1384  1.4935
15866TIP3    H269090   5.538   1.763   6.180  0.3397 -1.1267  1.2078
15867TIP3   OH269091   5.634   0.925  16.073 -0.3361 -0.0885  0.2101
15867TIP3    H169092   5.575   0.853  16.094  1.4088 -1.6348  0.1030
15867TIP3    H269093   5.597   1.001  16.118 -2.0192 -1.1106  0.6501
15868TIP3   OH269094   0.764   3.380   1.127 -0.3935  0.6520 -0.3722
15868TIP3    H169095   0.687   3.436   1.118 -0.3865  0.4963 -1.6386
15868TIP3    H269096   0.774   3.340   1.040  0.6121  0.0184  0.0239
15869TIP3   OH269097   0.166   0.169  17.041 -0.5572 -0.2088 -0.2072
15869TIP3    H169098   0.095   0.137  17.096  0.9325  0.0102  2.0015
15869TIP3    H269099   0.235   0.103  17.050  0.7954  1.2347  0.5842
15870TIP3   OH269100   1.445   5.281   5.250 -0.2021 -0.1848 -0.5557
15870TIP3    H169101   1.535   5.248   5.259 -0.7254 -1.4520  0.1966
15870TIP3    H269102   1.392   5.220   5.300 -1.4445  0.8150 -0.6088
15871TIP3   OH269103   4.413   2.033   5.746 -0.0229 -0.2007  0.1139
15871TIP3    H169104   4.332   2.051   5.699  0.0024 -1.0950 -0.2884
15871TIP3    H269105   4.429   1.939   5.732  1.5324  0.1268 -0.5380
15872TIP3   OH269106   1.599   1.009   5.512 -0.2741  0.2649  0.4088
15872TIP3    H169107   1.618   0.977   5.424 -1.0067  0.2473  0.2517
15872TIP3    H269108   1.530   0.951   5.544 -1.4385  1.4847  0.2264
15873TIP3   OH269109   4.626   1.495   3.911 -0.7815  0.3314  0.5083
15873TIP3    H169110   4.619   1.400   3.909 -0.2999  0.2856 -2.3288
15873TIP3    H269111   4.707   1.514   3.863 -0.9681  2.1788  0.8587
15874TIP3   OH269112   2.719   0.611   4.298  0.1984  0.0456 -0.5103
15874TIP3    H169113   2.812   0.592   4.287 -0.0031 -1.0165 -0.4598
15874TIP3    H269114   2.705   0.691   4.247  1.2726  0.6258  0.0628
15875TIP3   OH269115   4.867   5.372  15.109 -0.2815 -0.0449 -1.0067
15875TIP3    H169116   4.803   5.426  15.155 -1.5632 -1.6233 -0.8600
15875TIP3    H269117   4.903   5.430  15.042 -0.0065  1.6133  0.4958
15876TIP3   OH269118   0.215   2.124  15.045 -0.9411 -0.5880  0.1463
15876TIP3    H169119   0.308   2.103  15.045 -0.9497 -0.6996  1.2910
15876TIP3    H269120   0.187   2.111  14.955  0.1585 -0.5129 -0.2139
15877TIP3   OH269121   1.938   5.681  11.575 -0.4379  0.0994 -0.3858
15877TIP3    H169122   1.867   5.739  11.605  0.8353  1.0682  0.9086
15877TIP3    H269123   1.941   5.613  11.642 -1.2391 -0.9141 -1.3528
15878TIP3   OH269124   3.645   3.095  15.322 -0.2204  0.1637  0.0862
15878TIP3    H169125   3.668   3.004  15.302  0.0328 -0.0673  1.3605
15878TIP3    H269126   3.691   3.146  15.256  0.2200 -0.5948 -0.2085
15879TIP3   OH269127   1.204   2.031  10.869 -0.6285  0.0913  0.5023
15879TIP3    H169128   1.197   2.107  10.813 -0.1902 -0.5158 -0.3998
15879TIP3    H269129   1.237   2.065  10.952  0.5737  0.7320 -0.2230
15880TIP3   OH269130   4.920   0.663  13.674 -0.0960  0.1151 -0.0337
15880TIP3    H169131   4.871   0.672  13.592 -1.4302 -0.6247  0.6492
15880TIP3    H269132   5.011   0.668  13.647 -0.5098  1.3749 -1.3787
15881TIP3   OH269133   6.063   1.436  15.797  0.3208 -0.2387  0.1700
15881TIP3    H169134   5.995   1.372  15.775  0.5501 -0.9666  1.4770
15881TIP3    H269135   6.114   1.446  15.717 -1.8866  1.1036 -1.2072
15882TIP3   OH269136   4.105   0.422  14.221  0.6926  0.3542 -0.0761
15882TIP3    H169137   4.033   0.365  14.247 -0.4331  0.5661 -2.4676
15882TIP3    H269138   4.166   0.419  14.294 -2.7964  2.1203  3.2426
15883TIP3   OH269139   4.963   0.479  10.829 -0.1864  0.4249 -0.1564
15883TIP3    H169140   5.038   0.536  10.810 -0.8356  1.5909  0.6230
15883TIP3    H269141   4.888   0.526  10.792 -0.2890 -2.0408 -3.4428
15884TIP3   OH269142   6.048   0.193  11.962  0.3147  0.3818 -0.2373
15884TIP3    H169143   6.071   0.114  12.011 -1.3273 -0.4247 -0.7174
15884TIP3    H269144   5.953   0.200  11.969  0.3651  2.0341 -0.6516
15885TIP3   OH269145   2.797   2.533   3.896  0.3452  0.2003 -1.0913
15885TIP3    H169146   2.718   2.572   3.858 -0.1652  0.9562  0.6549
15885TIP3    H269147   2.797   2.443   3.863 -1.4296  0.0922 -0.9037
15886TIP3   OH269148   5.819   2.502   2.243 -0.2634 -0.3301  0.2662
15886TIP3    H169149   5.730   2.470   2.261  0.0968 -0.6911  1.5039
15886TIP3    H269150   5.872   2.465   2.313  0.3863  2.1469  1.1791
15887TIP3   OH269151   1.373   5.014   3.203  0.6812 -0.5491  0.1616
15887TIP3    H169152   1.375   4.993   3.296  1.8206 -0.5076  0.1573
15887TIP3    H269153   1.449   5.070   3.189  0.1576 -0.0275 -0.6798
15888TIP3   OH269154   5.485   3.403   0.920  0.1063 -0.1128  0.0975
15888TIP3    H169155   5.467   3.331   0.859 -1.1497  0.8607 -0.7210
15888TIP3    H269156   5.567   3.441   0.890 -0.3108  0.1172 -0.7607
15889TIP3   OH269157   0.113   0.691  16.502  0.3002 -0.3536 -0.2542
15889TIP3    H169158   0.203   0.675  16.532  0.3607  0.3104 -0.0806
15889TIP3    H269159   0.110   0.784  16.484 -0.2195 -0.4622 -0.7332
15890TIP3   OH269160   0.032   4.769   5.044  0.0745  0.3985 -0.5670
15890TIP3    H169161   0.022   4.741   5.135 -0.6865 -1.3449 -1.1409
15890TIP3    H269162   0.031   4.865   5.048  2.8267  0.4596  1.5085
15891TIP3   OH269163   0.468   1.449   4.688  0.1067  0.2509  0.7846
15891TIP3    H169164   0.517   1.370   4.665  0.5596  0.8809 -0.4983
15891TIP3    H269165   0.460   1.497   4.606  0.2404  1.7664  1.6190
15892TIP3   OH269166   6.338   6.154   0.734  0.1649 -0.3816 -0.1854
15892TIP3    H169167   6.286   6.075   0.748  1.5198 -1.1138  0.9445
15892TIP3    H269168   6.322   6.177   0.642 -1.5205 -0.9985 -0.0936
15893TIP3   OH269169   4.631   3.276  14.004  0.0278 -0.5554 -0.1827
15893TIP3    H169170   4.589   3.346  14.053  3.6633  0.5809  1.6811
15893TIP3    H269171   4.624   3.199  14.060  1.5412 -0.0138  0.7971
15894TIP3   OH269172   1.790   6.542  15.762 -0.1912 -0.3563  0.1339
15894TIP3    H169173   1.837   6.465  15.727 -0.7782  0.0375 -1.6528
15894TIP3    H269174   1.748   6.580  15.685  0.2800  1.9090  0.9263
15895TIP3   OH269175   2.892   0.512  12.207  0.0060  0.1052  0.1262
15895TIP3    H169176   2.966   0.488  12.151  1.4334 -2.3599  2.8135
15895TIP3    H269177   2.932   0.540  12.289 -2.0307  0.6677  0.9925
15896TIP3   OH269178   4.738   6.273  14.535 -0.6064 -0.4465  0.0537
15896TIP3    H169179   4.686   6.311  14.464  0.1000 -0.0464 -0.2555
15896TIP3    H269180   4.674   6.255  14.604 -1.3533 -1.1541 -0.7986
15897TIP3   OH269181   0.662   1.221  13.209  0.7144 -0.2786 -0.4029
15897TIP3    H169182   0.739   1.211  13.264  0.2707  1.3076  0.5735
15897TIP3    H269183   0.691   1.277  13.137  0.4775  0.3850  0.0066
15898TIP3   OH269184   2.843   3.839   2.802 -0.2874  0.0036 -0.1765
15898TIP3    H169185   2.856   3.931   2.779  0.3508 -0.5977 -2.4970
15898TIP3    H269186   2.925   3.797   2.777 -1.0034 -1.3982 -0.2528
15899TIP3   OH269187   2.601   0.776  12.458 -0.5365  0.4232  0.0649
15899TIP3    H169188   2.636   0.769  12.547 -0.8110  2.2168  0.3672
15899TIP3    H269189   2.507   0.772  12.469 -0.5919  1.1733 -0.0622
15900TIP3   OH269190   0.458   6.317   1.331  0.7933  0.2939  0.6539
15900TIP3    H169191   0.533   6.285   1.282  1.4588  0.5670  1.4718
15900TIP3    H269192   0.416   6.238   1.365  1.7491  0.2048  1.6777
15901TIP3   OH269193   3.142   1.494   5.412  0.8036  0.0053  0.3981
15901TIP3    H169194   3.139   1.399   5.406  0.3668 -0.0273  0.9971
15901TIP3    H269195   3.089   1.515   5.489 -1.4115  0.8991 -1.2251
15902TIP3   OH269196   1.723   4.920   1.296  0.0011 -0.3228 -0.8148
15902TIP3    H169197   1.814   4.948   1.285  0.2224 -1.0274 -0.8645
15902TIP3    H269198   1.688   4.918   1.206 -0.3252  0.7782 -0.7172
15903TIP3   OH269199   0.562   4.468   5.115 -0.4491 -0.0482 -0.0574
15903TIP3    H169200   0.638   4.410   5.109  0.0948  0.2601  2.6181
15903TIP3    H269201   0.538   4.486   5.024  0.9408 -2.3883 -0.9657
15904TIP3   OH269202   1.812   0.606   5.140 -0.4024  0.2393  0.4041
15904TIP3    H169203   1.846   0.542   5.078 -2.1123 -0.4338  0.1205
15904TIP3    H269204   1.813   0.689   5.092 -0.1703  0.0353  0.0530
15905TIP3   OH269205   5.951   3.890  11.357 -0.0874  0.1583  0.3135
15905TIP3    H169206   5.974   3.820  11.417  1.4814  0.3521 -0.0254
15905TIP3    H269207   5.916   3.959  11.413  1.4730  0.3910  1.0588
15906TIP3   OH269208   1.236   2.832   2.807 -0.2360  0.0214  0.0235
15906TIP3    H169209   1.270   2.916   2.838  0.5582 -0.0031 -0.7366
15906TIP3    H269210   1.286   2.766   2.854 -1.0389 -0.0428  0.8139
15907TIP3   OH269211   2.511   5.175   1.452  0.3209 -0.1046  0.1553
15907TIP3    H169212   2.587   5.135   1.495  0.5330  1.3292  1.2007
15907TIP3    H269213   2.436   5.141   1.499  0.3078 -1.2536 -0.6530
15908TIP3   OH269214   1.395   6.754  14.005 -0.1225 -0.3174  0.3389
15908TIP3    H169215   1.454   6.688  13.969 -0.6425 -1.1985  1.0438
15908TIP3    H269216   1.401   6.742  14.100 -0.4876  0.4205  0.4613
15909TIP3   OH269217   1.717   4.252  11.035 -0.2639 -0.2541 -0.1611
15909TIP3    H169218   1.779   4.316  11.068  1.6032 -1.5178 -1.0467
15909TIP3    H269219   1.722   4.260  10.940 -1.7641 -0.1549 -0.2688
15910TIP3   OH269220   6.394   0.259   3.008  0.3565  0.0869  0.3949
15910TIP3    H169221   6.432   0.230   2.925  0.7087  0.4125  0.4412
15910TIP3    H269222   6.348   0.340   2.986  0.4850  0.1954  0.5257
15911TIP3   OH269223   3.817   3.962  16.225  0.3333  0.1896  0.8932
15911TIP3    H169224   3.850   3.919  16.147 -0.0772  0.7700  0.3937
15911TIP3    H269225   3.893   4.009  16.261  0.5413 -0.1488  0.8946
15912TIP3   OH269226   2.578   4.005  14.366 -0.5277  0.3138  0.1502
15912TIP3    H169227   2.549   3.932  14.311 -0.4289 -0.6867  1.3992
15912TIP3    H269228   2.653   4.041  14.319 -0.6279 -0.3293 -0.5205
15913TIP3   OH269229   3.906   4.160  13.660 -0.5238 -0.0910  0.1105
15913TIP3    H169230   3.956   4.157  13.579  0.3385  1.7724  0.5283
15913TIP3    H269231   3.868   4.072  13.668  1.3424 -1.0664 -1.0664
15914TIP3   OH269232   6.148   5.544   1.485 -0.0886  0.3853 -0.0038
15914TIP3    H169233   6.176   5.462   1.527 -0.5266 -0.1094 -0.6591
15914TIP3    H269234   6.139   5.521   1.393 -0.4628  1.1160 -0.1497
15915TIP3   OH269235   3.647   6.328  12.020  0.0638 -0.8053  0.2785
15915TIP3    H169236   3.681   6.407  11.977  1.4096 -0.9813  0.9569
15915TIP3    H269237   3.553   6.344  12.029 -0.5469 -1.1658 -3.5311
15916TIP3   OH269238   5.092   4.465   1.749  0.5012 -0.0175 -0.0611
15916TIP3    H169239   5.068   4.441   1.839 -0.7281 -1.4692 -0.7326
15916TIP3    H269240   5.011   4.456   1.699  1.2616  0.3516 -1.4004
15917TIP3   OH269241   6.450   3.926   2.626 -0.6089 -0.1887  0.4656
15917TIP3    H169242   6.492   3.842   2.643 -0.2861 -0.2703 -0.6814
15917TIP3    H269243   6.369   3.904   2.580 -0.8939  0.0992  0.8106
15918TIP3   OH269244   4.249   4.907   5.907  0.6529  0.2088 -0.4192
15918TIP3    H169245   4.164   4.868   5.886 -0.1104  1.4328  0.2435
15918TIP3    H269246   4.309   4.870   5.843 -0.4099 -0.5552 -1.0131
15919TIP3   OH269247   3.814   4.917  14.633  0.1522 -0.6873 -0.5974
15919TIP3    H169248   3.822   4.993  14.690  3.1535 -1.4334  0.1542
15919TIP3    H269249   3.762   4.855  14.684 -0.6825  0.1300 -0.4226
15920TIP3   OH269250   1.390   0.982   2.891  0.1664 -0.0798 -0.0934
15920TIP3    H169251   1.466   1.038   2.876 -0.3962  0.6761 -0.1540
15920TIP3    H269252   1.409   0.939   2.975 -0.6293  2.3380  1.4284
15921TIP3   OH269253   6.074   5.095  12.673  0.4866  0.3155  1.0665
15921TIP3    H169254   6.044   5.093  12.764  0.2189  0.6760  0.9892
15921TIP3    H269255   6.023   5.166  12.633  2.4663  1.9416  1.2859
15922TIP3   OH269256   0.831   3.152  16.407 -0.2889 -0.0708  0.0739
15922TIP3    H169257   0.877   3.182  16.328  1.2216  1.5611  1.4800
15922TIP3    H269258   0.761   3.216  16.420 -1.8026 -1.4215 -0.9316
15923TIP3   OH269259   4.475   6.547   5.817  0.6398 -0.1453  0.2450
15923TIP3    H169260   4.530   6.623   5.837 -1.2860  1.5442 -0.4455
15923TIP3    H269261   4.510   6.514   5.734  0.7378  0.8294 -0.1242
15924TIP3   OH269262   4.245   5.150   5.625  0.1755  0.0553 -0.8102
15924TIP3    H169263   4.254   5.077   5.686  2.6453 -0.0052 -1.1265
15924TIP3    H269264   4.312   5.132   5.558 -0.6569  1.4888 -2.0696
15925TIP3   OH269265   1.177   4.941   2.502  0.1162  0.4623  0.9136
15925TIP3    H169266   1.114   4.895   2.447  1.1301  0.6021 -0.4121
15925TIP3    H269267   1.148   4.924   2.592 -1.2632 -0.2237  0.3590
15926TIP3   OH269268   1.639   6.364  11.019  0.5797  0.0495 -0.0123
15926TIP3    H169269   1.619   6.441  10.966  0.4907 -0.9775 -1.5353
15926TIP3    H269270   1.635   6.291  10.957 -1.7077 -1.5191  1.7961
15927TIP3   OH269271   1.303   2.465  14.073 -0.0926 -0.1242  0.1317
15927TIP3    H169272   1.213   2.498  14.064 -0.3869 -1.1359 -0.9176
15927TIP3    H269273   1.336   2.461  13.983  0.1355 -2.0457  0.2603
15928TIP3   OH269274   6.010   0.315  12.553  0.1051 -0.5989  0.2084
15928TIP3    H169275   5.931   0.364  12.575 -1.4448 -3.4820  1.6235
15928TIP3    H269276   6.075   0.343  12.617  0.7368  2.5608 -1.5858
15929TIP3   OH269277   0.071   5.047  14.801 -0.1236  0.1051  0.1774
15929TIP3    H169278  -0.006   5.061  14.746 -0.2930  2.1124  0.8486
15929TIP3    H269279   0.146   5.059  14.742 -0.3132  1.5382  0.2019
15930TIP3   OH269280   6.602   0.655  16.191 -0.0922 -0.5304  0.5509
15930TIP3    H169281   6.544   0.579  16.203 -0.1804 -0.4088  0.9112
15930TIP3    H269282   6.640   0.670  16.278 -0.3679  0.0686  0.5704
15931TIP3   OH269283   4.788   5.454   5.135  0.4048 -0.4270 -0.9018
15931TIP3    H169284   4.853   5.462   5.206 -0.4177  2.0698 -0.2993
15931TIP3    H269285   4.814   5.377   5.086  2.2463 -1.0329  0.9066
15932TIP3   OH269286   3.137   0.125  12.058  0.4202 -0.1203 -0.3457
15932TIP3    H169287   3.198   0.070  12.008 -0.7582 -1.2632 -0.5716
15932TIP3    H269288   3.070   0.064  12.090  0.0314  0.9177  0.9030
15933TIP3   OH269289   0.376   3.325   0.817  0.2102  0.7403 -0.2805
15933TIP3    H169290   0.457   3.274   0.819  0.4245  1.1022  0.9213
15933TIP3    H269291   0.364   3.347   0.724  1.0826  0.0553 -0.5699
15934TIP3   OH269292   1.983   3.746  13.453  0.3791  0.3036 -0.3296
15934TIP3    H169293   1.930   3.712  13.381  1.6750 -0.7432 -0.8296
15934TIP3    H269294   1.930   3.730  13.531  0.2188 -1.3491 -0.7420
15935TIP3   OH269295   4.588   6.438  16.581  0.2054  0.5102 -0.3300
15935TIP3    H169296   4.563   6.519  16.537  1.9579  0.5421 -1.3751
15935TIP3    H269297   4.676   6.455  16.615  0.3680 -0.7611 -0.0447
15936TIP3   OH269298   4.963   1.288  11.538  0.3564  0.1222  0.4514
15936TIP3    H169299   4.939   1.215  11.595  0.1824 -0.1103  0.0908
15936TIP3    H269300   4.927   1.263  11.452 -1.4015  1.5258  0.7270
15937TIP3   OH269301   6.647   4.004   0.684  0.2226  0.3459  0.4458
15937TIP3    H169302   6.605   3.926   0.648  0.5749 -1.3254  3.2833
15937TIP3    H269303   6.577   4.046   0.735  0.6542  0.4591  0.9512
15938TIP3   OH269304   2.780   3.604  16.796 -0.3881  0.7661  0.3200
15938TIP3    H169305   2.827   3.585  16.715  1.0776 -0.3004  1.3627
15938TIP3    H269306   2.824   3.550  16.862 -2.5133  0.4612  1.5545
15939TIP3   OH269307   5.070   3.651   5.772  0.3186  0.0901 -0.7466
15939TIP3    H169308   5.020   3.729   5.794  0.0031 -0.4921  0.7372
15939TIP3    H269309   5.125   3.635   5.849 -1.0189 -2.2241 -0.1619
15940TIP3   OH269310   5.855   4.289  14.398 -0.7823  0.2778  0.4876
15940TIP3    H169311   5.845   4.241  14.480  0.3526  0.3386  0.6766
15940TIP3    H269312   5.805   4.370  14.411 -0.0895  0.5760  1.3596
15941TIP3   OH269313   5.511   3.361  16.729  0.5706  0.6852  0.1904
15941TIP3    H169314   5.546   3.307  16.658 -0.1113  1.4897 -0.7834
15941TIP3    H269315   5.424   3.323  16.746  0.3370  1.0888 -0.0856
15942TIP3   OH269316   4.848   1.073   3.250 -0.3759 -0.3452 -0.0637
15942TIP3    H169317   4.828   0.989   3.293  1.1669  0.1268  1.6795
15942TIP3    H269318   4.910   1.050   3.181 -0.8331 -0.7688 -0.3433
15943TIP3   OH269319   4.277   2.707   1.579 -0.3656  0.2792 -0.6444
15943TIP3    H169320   4.367   2.684   1.602  0.5287  2.7103 -1.3412
15943TIP3    H269321   4.262   2.665   1.495  0.9134  1.4716 -1.5175
15944TIP3   OH269322   2.400   6.136   4.691 -0.0249  0.0505 -0.0483
15944TIP3    H169323   2.376   6.044   4.687  1.7290 -0.4139 -0.8355
15944TIP3    H269324   2.349   6.171   4.764 -0.5956 -1.5705  0.3727
15945TIP3   OH269325   1.256   2.269  15.281 -0.6665 -0.2748 -0.3892
15945TIP3    H169326   1.273   2.334  15.349  1.1060 -2.2159  1.1994
15945TIP3    H269327   1.200   2.313  15.218 -0.3488  2.4281  1.0787
15946TIP3   OH269328   2.468   1.758   2.612  0.0438 -0.3829 -0.6582
15946TIP3    H169329   2.529   1.782   2.682  1.0320  2.4056 -2.2858
15946TIP3    H269330   2.505   1.678   2.573  1.4037 -0.0306 -0.1467
15947TIP3   OH269331   5.987   0.951  13.297 -0.1364 -0.2321  0.0462
15947TIP3    H169332   5.949   1.021  13.350 -1.0792 -2.2017  2.1527
15947TIP3    H269333   5.913   0.913  13.250  0.2823 -0.1361 -0.7075
15948TIP3   OH269334   0.917   5.801  14.715 -0.2064 -0.5798 -0.9058
15948TIP3    H169335   0.856   5.763  14.778 -0.5733  0.4794 -0.6062
15948TIP3    H269336   0.991   5.740  14.715  0.0996 -0.2851  1.0571
15949TIP3   OH269337   5.162   5.813  13.263 -0.3269  0.5082  0.6864
15949TIP3    H169338   5.230   5.749  13.245 -0.5877  0.7776 -1.6320
15949TIP3    H269339   5.207   5.898  13.258 -0.7274  0.6725 -0.5745
15950TIP3   OH269340   3.975   4.956   4.433  0.5871  0.3335  0.6975
15950TIP3    H169341   3.908   4.888   4.441 -1.7509  2.4936  0.8039
15950TIP3    H269342   4.021   4.935   4.352 -0.4936 -1.0177  0.3856
15951TIP3   OH269343   6.261   3.691  12.109 -0.7365  0.1865 -0.3847
15951TIP3    H169344   6.190   3.668  12.168 -2.0001 -1.3070 -2.3571
15951TIP3    H269345   6.271   3.615  12.051  1.6465  0.8407 -0.9786
15952TIP3   OH269346   1.439   4.504   4.411  0.3483 -0.2969  0.0787
15952TIP3    H169347   1.503   4.497   4.481 -1.2201 -0.5401  1.5565
15952TIP3    H269348   1.432   4.415   4.375 -0.2546 -0.6063  0.9433
15953TIP3   OH269349   6.722   6.199  15.854 -0.2761 -0.2117 -0.1899
15953TIP3    H169350   6.662   6.179  15.782 -0.4625  0.9035 -0.3670
15953TIP3    H269351   6.731   6.295  15.852 -0.4059 -0.1372  1.3676
15954TIP3   OH269352   1.725   2.650  14.106 -0.0580 -0.1122 -0.1294
15954TIP3    H169353   1.675   2.570  14.126  0.8054 -0.2922  1.5071
15954TIP3    H269354   1.787   2.658  14.179  0.4731  1.5773 -0.7224
15955TIP3   OH269355   1.452   1.147  13.364  0.2267 -0.3627 -0.7033
15955TIP3    H169356   1.464   1.186  13.451  0.3331  0.8725 -1.2568
15955TIP3    H269357   1.496   1.062  13.370 -0.6932 -0.7904  0.7734
15956TIP3   OH269358   5.607   6.076  16.254 -0.0110 -0.6195  0.1354
15956TIP3    H169359   5.604   6.152  16.312 -1.6160 -0.3662 -0.2242
15956TIP3    H269360   5.648   6.108  16.174  1.3937 -0.7403  0.7809
15957TIP3   OH269361   6.034   1.455  14.059 -0.1315  0.0672  0.3295
15957TIP3    H169362   5.959   1.454  14.120  0.1533  1.4912  0.7310
15957TIP3    H269363   6.061   1.363  14.054 -1.2573 -0.3266  0.9915
15958TIP3   OH269364   6.421   5.258   0.394 -0.2783  0.2486  0.4228
15958TIP3    H169365   6.489   5.325   0.398 -0.0343  0.1843 -1.5768
15958TIP3    H269366   6.340   5.306   0.379 -0.2950  0.1808  0.2918
15959TIP3   OH269367   0.509   0.104   5.140 -0.1311 -0.3908  0.3330
15959TIP3    H169368   0.584   0.061   5.100 -2.1468 -2.1958 -1.8010
15959TIP3    H269369   0.517   0.195   5.114  2.2022 -0.1405  1.6739
15960TIP3   OH269370   6.310   4.586  12.831 -0.6055 -0.1298 -0.1518
15960TIP3    H169371   6.363   4.618  12.904  0.7974 -0.2777 -1.0681
15960TIP3    H269372   6.369   4.589  12.756 -2.1268  0.3983 -1.3687
15961TIP3   OH269373   2.979   5.382  15.446 -0.0778  0.1085 -0.3857
15961TIP3    H169374   2.965   5.476  15.451 -0.6077  0.0050  0.1787
15961TIP3    H269375   2.935   5.355  15.366 -0.6525  0.2253 -0.1187
15962TIP3   OH269376   0.259   6.287  11.701  0.1483  0.0488 -0.3320
15962TIP3    H169377   0.255   6.342  11.778 -1.1780 -0.0872 -0.2779
15962TIP3    H269378   0.348   6.251  11.701  1.5212  3.1111 -1.0627
15963TIP3   OH269379   0.378   3.748   4.128  0.4406  0.0255 -0.2699
15963TIP3    H169380   0.409   3.836   4.105  0.9886  0.5611  2.2252
15963TIP3    H269381   0.285   3.759   4.144  0.6447  0.3413  0.7628
15964TIP3   OH269382   4.451   0.093   0.098  0.3350  0.4472  0.1165
15964TIP3    H169383   4.534   0.137   0.085  0.1071  0.6270 -0.7610
15964TIP3    H269384   4.389   0.163   0.117  0.0942  0.4625 -0.6868
15965TIP3   OH269385   3.906   0.165  14.450  0.1820 -0.1168  0.5989
15965TIP3    H169386   3.958   0.132  14.524  0.7208 -1.2793 -0.2716
15965TIP3    H269387   3.825   0.114  14.454  1.3575 -2.3160 -1.2569
15966TIP3   OH269388   0.419   6.802  15.552  0.2527  0.5583 -0.2746
15966TIP3    H169389   0.457   6.715  15.556  0.5975  0.7252  0.1900
15966TIP3    H269390   0.494   6.861  15.559 -0.1347  0.8976  1.4280
15967TIP3   OH269391   3.890   5.973  16.006  0.3022 -0.0293 -0.1683
15967TIP3    H169392   3.840   5.905  16.050  0.6764 -0.7646 -0.8551
15967TIP3    H269393   3.981   5.958  16.033  0.2611  0.8347  0.4840
15968TIP3   OH269394   2.125   3.911  14.696  0.5527  0.2566 -0.2012
15968TIP3    H169395   2.110   4.003  14.720  1.2072  0.5414 -0.8555
15968TIP3    H269396   2.180   3.915  14.618 -0.4741 -0.6685 -0.9997
15969TIP3   OH269397   3.376   5.706   0.015  0.7055  0.3360  0.0973
15969TIP3    H169398   3.397   5.753  -0.066  1.0905 -1.3454 -0.8200
15969TIP3    H269399   3.403   5.616  -0.002  1.2885  0.0481  2.3014
15970TIP3   OH269400   0.892   2.367   1.294 -0.6049 -0.6630 -0.3597
15970TIP3    H169401   0.878   2.459   1.271  2.3214  0.3547  1.3654
15970TIP3    H269402   0.852   2.359   1.381 -0.3873 -0.8806 -0.2803
15971TIP3   OH269403   2.081   3.961   5.154  0.4677 -0.8227  0.2799
15971TIP3    H169404   2.139   4.010   5.212 -0.1940 -0.3174  0.5302
15971TIP3    H269405   2.125   3.877   5.142  0.4558 -1.0835  1.8139
15972TIP3   OH269406   3.865   3.440  14.399 -0.4308  0.0279  0.2996
15972TIP3    H169407   3.784   3.399  14.368 -0.9991  1.6075 -0.3860
15972TIP3    H269408   3.855   3.444  14.494 -0.3400 -1.4042  0.4042
15973TIP3   OH269409   2.184   5.771   5.403 -0.4338  0.1176  0.3206
15973TIP3    H169410   2.251   5.774   5.334 -0.5644 -0.6600  0.1543
15973TIP3    H269411   2.106   5.809   5.363 -0.6733 -0.8531 -0.1550
15974TIP3   OH269412   4.168   2.367  12.076  0.2098 -0.1312  0.3348
15974TIP3    H169413   4.223   2.295  12.109  1.9083  1.3782  0.9756
15974TIP3    H269414   4.228   2.419  12.023 -1.3512  0.0679 -1.2900
15975TIP3   OH269415   4.859   4.838  11.264 -0.1660  0.5130 -0.2970
15975TIP3    H169416   4.925   4.807  11.326 -1.0121 -1.1611 -0.1708
15975TIP3    H269417   4.867   4.933  11.266 -0.7103  0.6048  3.0643
15976TIP3   OH269418   3.656   5.326  16.964 -0.0561  0.1581 -0.5744
15976TIP3    H169419   3.646   5.421  16.959  0.9240  0.2191 -2.1561
15976TIP3    H269420   3.685   5.309  17.054 -1.2818  1.2245  0.0546
15977TIP3   OH269421   0.593   0.506   2.111  0.3152  0.7372 -0.0090
15977TIP3    H169422   0.515   0.558   2.127 -0.8108 -0.8458 -0.0856
15977TIP3    H269423   0.614   0.522   2.019 -0.5776  0.3670 -0.2904
15978TIP3   OH269424   2.546   3.461  15.363 -0.1485  0.7588 -0.5237
15978TIP3    H169425   2.581   3.413  15.438 -0.0512  0.8074 -0.5376
15978TIP3    H269426   2.471   3.509  15.398 -1.9785 -1.5379 -1.0825
15979TIP3   OH269427   4.726   0.923   2.056  0.3214 -0.2776 -0.4074
15979TIP3    H169428   4.722   1.018   2.058 -1.0751 -0.2853 -1.3760
15979TIP3    H269429   4.817   0.904   2.030  0.9752  0.7154  0.9940
15980TIP3   OH269430   2.982   3.849  14.809 -0.1204  0.1563  0.2535
15980TIP3    H169431   2.934   3.797  14.743  0.5890  0.0468 -0.1892
15980TIP3    H269432   2.941   3.825  14.892  0.5556 -1.5669  0.1335
15981TIP3   OH269433   6.061   1.031  12.978  0.3398  0.0075 -0.5693
15981TIP3    H169434   6.041   1.017  13.071  0.7449 -1.3288 -0.6719
15981TIP3    H269435   5.995   0.980  12.931  0.2468  0.5355 -1.0166
15982TIP3   OH269436   3.627   4.761   6.024 -0.2118 -0.5256 -0.2654
15982TIP3    H169437   3.716   4.780   6.053 -0.0527  0.3799 -1.3032
15982TIP3    H269438   3.574   4.771   6.102  0.5360 -0.6791  0.2782
15983TIP3   OH269439   5.628   5.705   6.280  0.0728 -0.3662 -0.2290
15983TIP3    H169440   5.598   5.758   6.354  1.1462  1.0066 -0.7254
15983TIP3    H269441   5.556   5.646   6.261 -0.9070  0.4642  0.7893
15984TIP3   OH269442   2.225   0.735  12.290  0.6232 -0.4889  0.3356
15984TIP3    H169443   2.190   0.701  12.208  0.3860 -0.2738  0.3454
15984TIP3    H269444   2.251   0.657  12.340 -2.1888 -0.8755  1.3989
15985TIP3   OH269445   6.187   6.194  13.874 -0.4694 -0.3884  0.1079
15985TIP3    H169446   6.244   6.197  13.950 -0.4002  1.2505  0.0324
15985TIP3    H269447   6.113   6.249  13.897  0.0864  1.0647 -1.3890
15986TIP3   OH269448   5.186   3.035  10.467  0.3239  0.1312 -0.4280
15986TIP3    H169449   5.115   3.070  10.522  1.6618  0.7088  1.0206
15986TIP3    H269450   5.144   3.016  10.383 -1.7043 -0.2780  0.6012
15987TIP3   OH269451   5.376   5.556  17.131 -0.5754  0.5314  0.0487
15987TIP3    H169452   5.420   5.482  17.173 -0.3208  0.2229 -0.7415
15987TIP3    H269453   5.380   5.536  17.038 -1.1145  1.2122 -0.1259
15988TIP3   OH269454   5.312   6.125   1.190  0.0188 -0.2522 -0.6692
15988TIP3    H169455   5.218   6.110   1.198 -0.5100  1.9463 -1.8897
15988TIP3    H269456   5.337   6.162   1.275 -0.7026  1.0939 -1.0022
15989TIP3   OH269457   5.469   4.402   1.307 -0.4217 -0.3315  0.1498
15989TIP3    H169458   5.391   4.383   1.360  0.2434  0.2036  1.3558
15989TIP3    H269459   5.483   4.322   1.256 -1.6793 -0.4810  0.0010
15990TIP3   OH269460   3.061   4.406  13.522  0.1116 -0.0422 -0.5037
15990TIP3    H169461   3.048   4.311  13.533 -0.3035 -0.0745 -1.1953
15990TIP3    H269462   3.030   4.444  13.604  0.2370 -0.4984 -0.2372
15991TIP3   OH269463   4.759   2.638  11.466  0.0868  0.2389  0.2331
15991TIP3    H169464   4.691   2.578  11.435  2.0230 -1.7259 -0.4267
15991TIP3    H269465   4.748   2.639  11.561 -0.3573 -0.6545  0.1982
15992TIP3   OH269466   0.867   5.671   1.040 -0.2206  0.1759 -0.3397
15992TIP3    H169467   0.920   5.747   1.016 -0.2452  0.0534 -0.7894
15992TIP3    H269468   0.918   5.596   1.009 -0.0852 -0.0041  0.3089
15993TIP3   OH269469   4.326   5.314   2.314 -0.0737  0.4908 -0.0390
15993TIP3    H169470   4.304   5.261   2.238 -0.8723  1.4778 -0.5219
15993TIP3    H269471   4.290   5.401   2.294 -3.0531  0.0851  2.7381
15994TIP3   OH269472   2.455   0.601  12.947  0.0316 -0.4193  0.2878
15994TIP3    H169473   2.363   0.623  12.966  0.4869  1.0605  0.9723
15994TIP3    H269474   2.486   0.559  13.027  0.3865  0.6135  0.7124
15995TIP3   OH269475   2.641   2.021  10.981 -0.1356 -0.0129  0.5197
15995TIP3    H169476   2.625   1.945  10.924  2.0161  0.3036 -0.6249
15995TIP3    H269477   2.646   1.984  11.069 -2.8698 -0.6130  0.5036
15996TIP3   OH269478   3.329   5.719  16.325  0.4539  0.0939 -0.2451
15996TIP3    H169479   3.255   5.724  16.265 -1.1056  0.2893  1.6195
15996TIP3    H269480   3.359   5.809  16.334  0.1992  0.1702 -0.1552
15997TIP3   OH269481   3.621   5.885  17.095  0.0081 -0.3986  0.4058
15997TIP3    H169482   3.571   5.965  17.083  0.5329 -0.1483 -0.1708
15997TIP3    H269483   3.644   5.857  17.006  4.1768  1.5869  0.6161
15998TIP3   OH269484   6.076   2.567  13.893 -0.0098 -0.2916 -0.6143
15998TIP3    H169485   5.986   2.596  13.908  0.3244  1.8037 -2.3499
15998TIP3    H269486   6.129   2.646  13.900  1.4773 -1.1634 -1.4997
15999TIP3   OH269487   5.646   5.978   4.202  0.5350  0.5343  0.1658
15999TIP3    H169488   5.634   5.904   4.261  1.2889  1.1174  1.0944
15999TIP3    H269489   5.716   6.030   4.243  1.6873  0.5330 -1.6819
16000TIP3   OH269490   6.511   5.967   0.436  0.3505  0.3177  0.0851
16000TIP3    H169491   6.576   5.932   0.375 -0.0879 -0.1824 -0.0977
16000TIP3    H269492   6.550   6.049   0.467  0.8673  0.2522 -0.3660
16001TIP3   OH269493   4.189   6.511  10.303 -0.0604  0.1862  0.0663
16001TIP3    H169494   4.128   6.574  10.267  1.3965  1.2618 -0.6432
16001TIP3    H269495   4.260   6.565  10.340  1.1502 -1.0040 -0.4162
16002TIP3   OH269496   3.389   3.304   2.534 -0.3725 -0.0949  0.1706
16002TIP3    H169497   3.475   3.262   2.540 -0.3237 -0.0643 -0.3120
16002TIP3    H269498   3.397   3.365   2.461 -0.7921 -0.0689  0.1453
16003TIP3   OH269499   1.956   1.415  14.872  0.5799 -0.0057 -0.2850
16003TIP3    H169500   1.910   1.333  14.884  1.5103 -0.4412  0.3557
16003TIP3    H269501   2.029   1.394  14.814  0.3029  0.5659 -0.8601
16004TIP3   OH269502   0.680   2.192   5.664  0.2070  0.1292  0.2652
16004TIP3    H169503   0.774   2.208   5.659  0.3288  0.1281  2.0400
16004TIP3    H269504   0.639   2.278   5.654  0.4627  0.3256  0.9046
16005TIP3   OH269505   0.916   3.895  12.855  0.1876  0.0641 -0.0887
16005TIP3    H169506   0.863   3.959  12.809 -1.8246 -1.9279 -0.6933
16005TIP3    H269507   0.915   3.924  12.946 -0.5451  0.9609 -0.3674
16006TIP3   OH269508   0.726   4.467  12.032 -0.3014 -0.3366  0.2442
16006TIP3    H169509   0.666   4.538  12.054  0.2656 -0.6608  3.2083
16006TIP3    H269510   0.735   4.417  12.113  1.3829 -2.2575 -1.0318
16007TIP3   OH269511   1.768   0.585   5.703 -0.1339 -0.4006  0.5522
16007TIP3    H169512   1.703   0.590   5.773 -0.1610  1.5584  0.4455
16007TIP3    H269513   1.716   0.574   5.623 -0.1104 -2.4549  0.7590
16008TIP3   OH269514   3.100   4.743  15.089 -0.3199  0.5682 -0.5354
16008TIP3    H169515   3.057   4.770  15.170 -0.1244 -0.3458 -0.1163
16008TIP3    H269516   3.065   4.656  15.071  1.4272 -0.2712 -0.1019
16009TIP3   OH269517   4.485   4.878   4.052 -0.3987 -0.4299  0.3200
16009TIP3    H169518   4.493   4.783   4.058 -3.6685 -0.9893 -1.6206
16009TIP3    H269519   4.547   4.903   3.984 -1.3419 -1.6503 -1.0664
16010TIP3   OH269520   3.945   4.735   1.773  0.2601  0.0173 -0.1167
16010TIP3    H169521   3.993   4.712   1.694 -0.4542 -0.6399 -0.3783
16010TIP3    H269522   3.859   4.693   1.762  0.1143 -0.0045  0.9571
16011TIP3   OH269523   0.360   3.556  13.480  0.2030 -0.1814 -0.3385
16011TIP3    H169524   0.390   3.608  13.556  0.7571  1.8372 -1.8369
16011TIP3    H269525   0.283   3.602  13.449 -1.3964 -2.2982  0.2635
16012TIP3   OH269526   3.970   4.717   0.076  0.2561 -0.1978 -0.2306
16012TIP3    H169527   3.924   4.688  -0.002 -0.7160 -0.8699  0.5691
16012TIP3    H269528   4.059   4.682   0.066 -0.0595 -0.8805 -0.6941
16013TIP3   OH269529   5.971   4.352   5.817  0.2094  0.8422 -0.0980
16013TIP3    H169530   5.911   4.277   5.824 -2.0650  2.3032 -2.1861
16013TIP3    H269531   6.058   4.314   5.817 -0.7269 -1.5366  1.6934
16014TIP3   OH269532   4.889   2.155   5.715  0.1434 -0.0808 -0.0611
16014TIP3    H169533   4.812   2.209   5.734 -0.0019  0.4726 -1.9383
16014TIP3    H269534   4.853   2.067   5.700 -0.0216 -0.0136 -0.0664
16015TIP3   OH269535   4.744   1.803   1.077 -0.0557 -0.0273 -0.0536
16015TIP3    H169536   4.693   1.736   1.123 -0.4920 -0.6877 -1.4519
16015TIP3    H269537   4.829   1.762   1.063  0.3971  0.5247  0.9572
16016TIP3   OH269538   6.560   1.816   5.745 -0.3754 -0.1299  0.2911
16016TIP3    H169539   6.619   1.886   5.772 -1.4997 -0.1888  3.2783
16016TIP3    H269540   6.498   1.858   5.686  0.2281  0.8509  0.3306
16017TIP3   OH269541   0.532   5.001   3.675 -0.1118 -0.3326  0.0128
16017TIP3    H169542   0.586   5.035   3.603 -0.5099 -0.3445 -0.2949
16017TIP3    H269543   0.535   5.070   3.741 -1.1103  0.4470 -0.7059
16018TIP3   OH269544   3.035   5.636  14.818 -0.1226 -0.2256 -0.0793
16018TIP3    H169545   3.099   5.702  14.791  0.0193  0.3331  1.5101
16018TIP3    H269546   3.028   5.577  14.743  0.7525  0.8406 -1.0296
16019TIP3   OH269547   4.354   4.606  13.352  0.0917 -0.3873  0.4787
16019TIP3    H169548   4.439   4.647  13.338 -0.3705  0.5826  0.4412
16019TIP3    H269549   4.341   4.607  13.446 -1.0547  1.9884  0.3611
16020TIP3   OH269550   0.683   4.610  16.552  0.4012 -0.2409 -0.0036
16020TIP3    H169551   0.639   4.690  16.524 -1.0056 -0.7392  0.6810
16020TIP3    H269552   0.612   4.549  16.572  1.2951 -0.4794  2.9739
16021TIP3   OH269553   2.495   5.335  10.986  0.5158 -0.3057  0.0078
16021TIP3    H169554   2.528   5.423  11.002  0.7678 -0.3189 -0.4038
16021TIP3    H269555   2.529   5.313  10.899 -1.1443 -0.0586 -0.7459
16022TIP3   OH269556   0.452   1.037   1.788  0.4040  0.0245  0.0607
16022TIP3    H169557   0.421   1.122   1.755 -0.3895 -0.3509 -0.1986
16022TIP3    H269558   0.518   1.009   1.725  0.9246  0.6147  0.3437
16023TIP3   OH269559   6.013   4.656  11.050 -0.4329 -0.2485 -0.3346
16023TIP3    H169560   5.988   4.619  11.135 -2.6410  1.2564 -0.2553
16023TIP3    H269561   6.057   4.738  11.071 -0.6554 -0.0481 -0.6434
16024TIP3   OH269562   5.813   0.188  14.666  0.1079  0.1687 -0.4409
16024TIP3    H169563   5.793   0.166  14.757  1.2161 -0.9152 -0.4195
16024TIP3    H269564   5.909   0.180  14.660  0.0858  0.5410 -1.6163
16025TIP3   OH269565   2.209   5.022   4.557  0.3407 -0.6004 -0.4467
16025TIP3    H169566   2.282   4.969   4.528  0.4254 -0.5165 -0.3887
16025TIP3    H269567   2.153   5.031   4.480  0.1242 -1.1023 -0.3501
16026TIP3   OH269568   0.298   6.797  16.223  0.5938  0.0719  0.3677
16026TIP3    H169569   0.213   6.784  16.181  0.6758  0.2550  0.1458
16026TIP3    H269570   0.333   6.709  16.234  2.0462  0.1082 -2.9572
16027TIP3   OH269571   5.915   1.204   4.525 -0.6458 -0.0974 -0.5361
16027TIP3    H169572   5.864   1.126   4.504 -1.6142  0.0612  1.0697
16027TIP3    H269573   5.899   1.264   4.452 -2.1894 -0.3397 -0.4321
16028TIP3   OH269574   4.303   5.716  15.643  0.0077 -0.2583  0.3598
16028TIP3    H169575   4.267   5.764  15.718  1.7486  0.6818  0.6295
16028TIP3    H269576   4.270   5.627  15.655 -1.1022  0.2480  1.3216
16029TIP3   OH269577   4.579   2.353  15.133  0.8692  0.5747  0.2915
16029TIP3    H169578   4.667   2.319  15.116 -0.3570 -2.3844 -0.6408
16029TIP3    H269579   4.575   2.362  15.229  2.1116  0.6140  0.3575
16030TIP3   OH269580   1.566   5.725  15.416  0.5245  0.3726 -0.7847
16030TIP3    H169581   1.601   5.778  15.487  1.5168  0.9889 -1.6906
16030TIP3    H269582   1.480   5.696  15.446  0.6514  1.1727  0.3759
16031TIP3   OH269583   1.801   3.098  15.158  1.0687 -0.2745 -0.0419
16031TIP3    H169584   1.746   3.098  15.236 -0.2949 -0.1150 -0.9736
16031TIP3    H269585   1.841   3.185  15.158 -0.9893  0.7520 -0.8750
16032TIP3   OH269586   2.457   6.813  12.540 -0.2107 -0.0259 -0.0220
16032TIP3    H169587   2.456   6.730  12.588  0.6429 -0.1263 -0.1678
16032TIP3    H269588   2.513   6.871  12.593 -0.1361  0.1980 -0.3429
16033TIP3   OH269589   0.961   3.308   3.824 -0.0191  0.2617 -0.2851
16033TIP3    H169590   1.011   3.387   3.803  1.8094 -0.7555  0.0460
16033TIP3    H269591   0.932   3.274   3.739  1.9251 -0.4023 -0.7252
16034TIP3   OH269592   1.784   3.228  12.978 -0.0386 -0.6871 -0.0474
16034TIP3    H169593   1.699   3.232  13.021 -1.5074 -0.4233 -2.7852
16034TIP3    H269594   1.846   3.258  13.045 -1.9384 -1.6617  2.2839
16035TIP3   OH269595   1.697   2.730  15.560 -0.1389 -0.1013 -0.0549
16035TIP3    H169596   1.741   2.772  15.486  1.2871 -0.7596  0.3950
16035TIP3    H269597   1.633   2.795  15.590  1.3812  1.3893  0.0625
16036TIP3   OH269598   0.049   4.352   0.109  0.2786  0.3725  0.8988
16036TIP3    H169599   0.034   4.443   0.083 -1.3592 -0.6951 -2.4775
16036TIP3    H269600   0.144   4.341   0.103  0.3412  1.4132 -0.4554
16037TIP3   OH269601   6.482   5.038  13.757 -0.5082  0.2406  0.5911
16037TIP3    H169602   6.466   5.076  13.843 -1.0511 -2.2446  1.6781
16037TIP3    H269603   6.443   4.951  13.761  3.3046 -1.7895 -0.5775
16038TIP3   OH269604   5.123   0.234   6.398 -0.1925  0.0658  0.0530
16038TIP3    H169605   5.034   0.247   6.365  0.1137  0.0588 -0.8056
16038TIP3    H269606   5.177   0.291   6.343  0.2275  0.8086  1.1934
16039TIP3   OH269607   4.376   0.401   4.122 -0.1010 -0.0477 -0.5507
16039TIP3    H169608   4.300   0.437   4.077 -0.6080  2.4441  1.9921
16039TIP3    H269609   4.340   0.338   4.184 -0.0459  0.5206  0.0738
16040TIP3   OH269610   2.105   1.881  11.306  0.0397  0.4913  0.2169
16040TIP3    H169611   2.165   1.809  11.324 -2.0979 -1.5139 -0.2153
16040TIP3    H269612   2.070   1.863  11.219 -0.4222  2.1902 -0.0007
16041TIP3   OH269613   0.860   2.556  15.310 -0.1486  0.2233 -0.2496
16041TIP3    H169614   0.809   2.543  15.230 -0.7659  1.7485 -0.1487
16041TIP3    H269615   0.815   2.628  15.355  0.4295 -0.3259  1.2687
16042TIP3   OH269616   4.498   1.132  12.032 -0.7634  0.6057 -0.2762
16042TIP3    H169617   4.449   1.156  12.111  0.3554 -1.1354  1.0253
16042TIP3    H269618   4.492   1.210  11.976 -0.3201  2.5484  2.1578
16043TIP3   OH269619   1.641   4.097   2.142  0.3404  0.0207  0.1591
16043TIP3    H169620   1.720   4.126   2.097  0.6099 -0.3548  0.3910
16043TIP3    H269621   1.643   4.002   2.135 -0.2793  0.0232 -0.1531
16044TIP3   OH269622   4.865   0.028   1.849  0.0577  0.2173 -0.0661
16044TIP3    H169623   4.870  -0.025   1.769  1.4651 -0.3266  0.3582
16044TIP3    H269624   4.874  -0.035   1.920  1.5813  0.9884  0.4586
16045TIP3   OH269625   1.552   6.339   3.605  0.1284  0.2103 -0.0356
16045TIP3    H169626   1.583   6.407   3.545 -0.3454  0.2577 -0.2348
16045TIP3    H269627   1.567   6.257   3.559  2.5331 -0.0128  0.9877
16046TIP3   OH269628   0.324   6.128   0.083  0.5575  0.5611  0.2964
16046TIP3    H169629   0.319   6.033   0.073 -0.3633  0.5365  0.9097
16046TIP3    H269630   0.414   6.144   0.111  0.4988 -0.2094  0.9606
16047TIP3   OH269631   6.508   3.857  12.669  0.0504 -0.5108  0.1370
16047TIP3    H169632   6.542   3.768  12.674  1.6784  0.0046 -1.0126
16047TIP3    H269633   6.539   3.899  12.749  0.0785 -0.7193  0.2362
16048TIP3   OH269634   4.522   0.693  16.254 -0.1714 -0.4143  0.0706
16048TIP3    H169635   4.435   0.661  16.277 -0.5987  0.3688 -0.3637
16048TIP3    H269636   4.505   0.758  16.185  0.8683 -1.2255 -0.9916
16049TIP3   OH269637   3.606   1.137  14.630  1.0504  0.9342 -0.1820
16049TIP3    H169638   3.679   1.197  14.644  0.3100  1.4919  1.6485
16049TIP3    H269639   3.556   1.176  14.558  2.2884  0.7653 -1.1704
16050TIP3   OH269640   2.199   6.763  12.134 -0.3427 -0.0155  0.2357
16050TIP3    H169641   2.273   6.716  12.095  1.1376  0.9571  1.7155
16050TIP3    H269642   2.131   6.760  12.067  1.8721  1.1693 -2.3049
16051TIP3   OH269643   3.920   3.923   0.128 -0.0044 -0.0180  0.2975
16051TIP3    H169644   3.833   3.930   0.088  0.9109  2.1052 -1.5308
16051TIP3    H269645   3.916   3.981   0.204 -0.1349  0.2552  0.0857
16052TIP3   OH269646   0.993   2.396  15.890 -0.4199 -0.0404 -0.4161
16052TIP3    H169647   0.927   2.372  15.825  0.5637  1.7035 -2.1630
16052TIP3    H269648   0.949   2.459  15.947 -0.6402  0.1418 -0.7855
16053TIP3   OH269649   4.043   6.081   3.918  0.4174 -0.1482  0.1746
16053TIP3    H169650   3.979   6.076   3.846  0.9812  2.8986 -0.6999
16053TIP3    H269651   4.111   6.019   3.894  0.9828  1.3310 -2.4474
16054TIP3   OH269652   3.079   3.210   3.114  0.7471 -0.3304  0.1889
16054TIP3    H169653   3.135   3.183   3.041 -2.2149 -0.2712 -2.2821
16054TIP3    H269654   3.007   3.258   3.073 -1.2028 -0.4665  3.1352
16055TIP3   OH269655   3.780   3.804   3.160 -0.6164  0.1709  0.0878
16055TIP3    H169656   3.819   3.719   3.144 -1.8393 -0.9433  2.5378
16055TIP3    H269657   3.785   3.849   3.076 -0.8465 -2.6784 -1.5523
16056TIP3   OH269658   2.318   0.591   2.837 -0.0289 -0.0749 -0.1436
16056TIP3    H169659   2.346   0.522   2.776 -0.3804 -0.2738 -0.0827
16056TIP3    H269660   2.259   0.646   2.786  1.0562  0.7981 -0.5000
16057TIP3   OH269661   3.289   4.781   4.458  0.7207 -0.0467  0.1002
16057TIP3    H169662   3.383   4.772   4.468  0.8592 -0.7428 -1.5159
16057TIP3    H269663   3.252   4.707   4.506  1.0313 -0.0675  0.3065
16058TIP3   OH269664   1.097   2.102  16.908  0.7421  0.4515  0.1176
16058TIP3    H169665   1.027   2.145  16.858  1.4317  0.0405 -1.2507
16058TIP3    H269666   1.102   2.151  16.989 -1.2342  0.4060  0.3175
16059TIP3   OH269667   0.102   4.568   3.538 -0.0958  0.2795  0.0500
16059TIP3    H169668   0.064   4.583   3.452 -0.6531 -1.0280  0.0480
16059TIP3    H269669   0.194   4.594   3.528 -0.4868  1.5475 -0.5040
16060TIP3   OH269670   6.715   2.931  17.161 -0.3771  0.2834 -0.4812
16060TIP3    H169671   6.671   2.993  17.220 -0.0018 -0.3862  0.5251
16060TIP3    H269672   6.799   2.914  17.203 -1.5405 -3.0921  0.8394
16061TIP3   OH269673   3.747   3.752   3.748  0.2162  0.1457 -0.2643
16061TIP3    H169674   3.831   3.797   3.734 -0.4390  1.5489  0.1873
16061TIP3    H269675   3.688   3.820   3.778 -0.6899 -1.1310  0.9714
16062TIP3   OH269676   3.581   3.261   5.571  0.4448 -0.3781  0.0451
16062TIP3    H169677   3.675   3.254   5.555  0.9078 -0.8914  2.6746
16062TIP3    H269678   3.550   3.171   5.571  0.1666 -0.2815  0.3801
16063TIP3   OH269679   6.088   1.102  15.118 -0.0208 -0.0636 -0.4583
16063TIP3    H169680   6.170   1.153  15.121  0.8272 -1.4213  1.6438
16063TIP3    H269681   6.113   1.020  15.077  0.0683 -1.0511  1.4726
16064TIP3   OH269682   5.038   3.413   5.586  0.4550 -0.0421 -0.3556
16064TIP3    H169683   5.007   3.488   5.636 -0.3458  0.1169 -1.0661
16064TIP3    H269684   5.087   3.451   5.513 -1.0383 -0.1187 -1.4518
16065TIP3   OH269685   2.063   1.485  14.357  0.5299 -0.1044  0.3195
16065TIP3    H169686   2.080   1.396  14.324 -1.6705 -1.1238  1.7028
16065TIP3    H269687   2.024   1.531  14.283  0.2907 -0.7808  0.0183
16066TIP3   OH269688   1.263   4.434  11.331 -0.1262  0.3934 -0.0468
16066TIP3    H169689   1.339   4.422  11.388 -0.4710  0.6166  0.4602
16066TIP3    H269690   1.209   4.499  11.376 -0.6447  0.1980 -0.3811
16067TIP3   OH269691   2.496   0.088   2.691  0.0689 -0.3955 -0.0880
16067TIP3    H169692   2.410   0.111   2.654 -0.1193  0.2342  0.7127
16067TIP3    H269693   2.527   0.017   2.635 -1.4466 -1.3734  0.2324
16068TIP3   OH269694   3.193   3.118  13.033 -0.3976  0.2320 -0.2145
16068TIP3    H169695   3.228   3.205  13.014 -0.5115  0.4119  0.3988
16068TIP3    H269696   3.216   3.102  13.124 -1.1716 -0.0051 -0.0603
16069TIP3   OH269697   2.885   4.865   3.440  0.5778  0.0597 -0.2837
16069TIP3    H169698   2.957   4.888   3.498 -0.1127 -0.3056  0.7379
16069TIP3    H269699   2.807   4.871   3.494 -0.1145 -0.0566 -1.2374
16070TIP3   OH269700   1.737   0.748   0.923 -0.6999  0.0619 -0.2753
16070TIP3    H169701   1.722   0.754   1.018  1.3213  0.4627  0.0665
16070TIP3    H269702   1.757   0.656   0.908 -1.2988 -0.0557 -0.3679
16071TIP3   OH269703   1.867   2.426   4.365  0.4459 -0.0087  0.1336
16071TIP3    H169704   1.896   2.484   4.436 -0.0645 -0.7302  0.9567
16071TIP3    H269705   1.917   2.454   4.289  0.7129  1.0569  0.6832
16072TIP3   OH269706   5.506   0.999  13.403 -1.1540  0.4837 -0.5538
16072TIP3    H169707   5.440   1.002  13.472  0.0908 -1.5363  0.8376
16072TIP3    H269708   5.590   1.005  13.449 -0.2392 -2.0141 -1.7008
16073TIP3   OH269709   3.536   5.569  11.971  0.6459  0.5547 -0.4347
16073TIP3    H169710   3.615   5.604  11.929  0.7080  0.9552  0.0097
16073TIP3    H269711   3.504   5.641  12.026 -0.5843  0.7302 -1.3571
16074TIP3   OH269712   1.249   6.537  16.473  0.2241 -0.4178 -0.2708
16074TIP3    H169713   1.226   6.606  16.410  0.9408  1.4789  1.4294
16074TIP3    H269714   1.181   6.470  16.461  0.6998 -0.4798 -3.4684
16075TIP3   OH269715   4.534   0.615   5.812 -0.1724  0.4221  0.4770
16075TIP3    H169716   4.523   0.643   5.721  0.7157  1.3830  0.6408
16075TIP3    H269717   4.567   0.525   5.806 -2.2639 -0.3462 -0.0824
16076TIP3   OH269718   5.420   1.959   1.513 -0.6155 -0.0756 -0.0018
16076TIP3    H169719   5.344   1.984   1.566 -0.2922 -2.0343  1.5112
16076TIP3    H269720   5.391   1.881   1.465  0.4007 -0.8303  0.5784
16077TIP3   OH269721   6.151   4.914  15.845  0.7115 -0.1858 -0.5163
16077TIP3    H169722   6.172   4.896  15.754  2.8517  0.5653 -0.2346
16077TIP3    H269723   6.150   5.010  15.851 -0.6738 -0.2183 -0.0048
16078TIP3   OH269724   3.955   2.989   4.874 -0.1541  0.2153  0.1911
16078TIP3    H169725   3.881   3.026   4.922  0.5211  2.1331 -0.1638
16078TIP3    H269726   4.031   3.035   4.909  0.7007 -0.6156 -0.5392
16079TIP3   OH269727   3.812   6.447   1.969  0.1906  0.5016 -0.1023
16079TIP3    H169728   3.787   6.356   1.987 -0.4664  0.3693 -1.5199
16079TIP3    H269729   3.908   6.445   1.967  0.1867 -0.1279  0.0854
16080TIP3   OH269730   4.428   2.086  17.026  0.0330  0.5293 -0.3644
16080TIP3    H169731   4.424   2.099  16.931  1.8238  3.4563 -0.1788
16080TIP3    H269732   4.499   2.023  17.039 -0.2799  0.0517 -0.9566
16081TIP3   OH269733   5.935   5.111  13.205 -0.0812  0.1211 -0.1246
16081TIP3    H169734   5.970   5.069  13.283 -1.5701  0.0999  0.5587
16081TIP3    H269735   5.869   5.172  13.238 -1.5755 -0.7201 -1.4002
16082TIP3   OH269736   4.463   0.643  17.007  0.0631  0.0485  0.7056
16082TIP3    H169737   4.463   0.579  16.936  0.1283  1.2977 -0.4578
16082TIP3    H269738   4.470   0.590  17.087 -0.6228 -1.4289 -0.1662
16083TIP3   OH269739   6.561   0.207   2.160  0.1368 -0.4710  0.0323
16083TIP3    H169740   6.535   0.169   2.244 -0.8161  0.7555  0.3269
16083TIP3    H269741   6.656   0.214   2.166  0.0070  0.6325  1.5119
16084TIP3   OH269742   6.310   2.661   5.436 -0.5840  0.4598  0.0113
16084TIP3    H169743   6.377   2.715   5.395  0.1856 -0.7754 -0.4074
16084TIP3    H269744   6.348   2.573   5.439 -2.7895 -0.6501 -1.7521
16085TIP3   OH269745   1.567   2.913   3.175 -0.5609  0.2402  0.3025
16085TIP3    H169746   1.600   2.926   3.264  1.2314  2.4559 -0.5695
16085TIP3    H269747   1.614   2.835   3.144  0.6774  0.8515  0.5433
16086TIP3   OH269748   6.501   1.663  15.425  0.8844 -0.3934  0.5446
16086TIP3    H169749   6.572   1.668  15.362  0.0393  0.1974 -0.3906
16086TIP3    H269750   6.444   1.737  15.404 -0.7212 -1.6038  0.3728
16087TIP3   OH269751   2.561   0.886  14.493 -0.2383 -0.0695  0.5836
16087TIP3    H169752   2.596   0.855  14.577  0.1465  1.1167  0.8786
16087TIP3    H269753   2.523   0.972  14.513 -0.4452  0.0752 -0.3908
16088TIP3   OH269754   4.925   0.750  16.657 -0.3552  0.0450 -0.0098
16088TIP3    H169755   4.957   0.660  16.667  0.2055  0.3422  1.0926
16088TIP3    H269756   4.840   0.750  16.700 -0.2726  0.0852  0.1535
16089TIP3   OH269757   3.572   3.513  10.932  0.9810 -0.8130 -0.0576
16089TIP3    H169758   3.639   3.502  10.863  1.3384 -1.7724  0.4340
16089TIP3    H269759   3.622   3.516  11.013  0.6050  0.8723  0.1555
16090TIP3   OH269760   2.031   1.364  12.661  0.1375 -0.3447  0.0512
16090TIP3    H169761   2.054   1.277  12.695 -0.4378  0.6547  3.2674
16090TIP3    H269762   1.936   1.364  12.656  0.1025  0.2863  0.6367
16091TIP3   OH269763   2.993   4.367   5.354  0.0591 -0.2469 -0.1683
16091TIP3    H169764   2.993   4.279   5.392 -0.6679 -0.3886 -0.4644
16091TIP3    H269765   2.999   4.425   5.430  1.5751 -0.5489 -0.0318
16092TIP3   OH269766   6.009   1.946  15.222 -0.0507  0.2347  0.3669
16092TIP3    H169767   6.012   1.949  15.318  0.5141 -0.1755  0.3631
16092TIP3    H269768   5.989   2.036  15.196 -0.8274  0.2254  0.8861
16093TIP3   OH269769   5.371   5.473  12.637 -0.3998 -0.1623 -0.1508
16093TIP3    H169770   5.453   5.516  12.660 -0.3329 -1.5280  2.7144
16093TIP3    H269771   5.382   5.445  12.546  0.5833  3.3049 -1.2276
16094TIP3   OH269772   5.002   1.238  13.941  0.1828  0.7299  0.3624
16094TIP3    H169773   4.950   1.185  14.001  1.9916 -1.6905 -0.0393
16094TIP3    H269774   5.056   1.293  13.999  2.5308 -2.1755  1.2261
16095TIP3   OH269775   4.518   3.107  10.902 -0.1191 -0.1477 -0.5684
16095TIP3    H169776   4.466   3.090  10.823  0.4679  0.0094 -0.9996
16095TIP3    H269777   4.609   3.102  10.872  0.1201 -0.5188  0.1939
16096TIP3   OH269778   2.324   2.219  15.815 -0.4019  0.5223 -0.3057
16096TIP3    H169779   2.393   2.278  15.845  1.1163 -0.4952 -1.6927
16096TIP3    H269780   2.356   2.131  15.836 -1.3205  0.0353 -0.8666
16097TIP3   OH269781   5.412   5.873  12.625 -0.3144 -0.4208  0.3137
16097TIP3    H169782   5.452   5.851  12.541 -1.8482 -1.6749 -0.1239
16097TIP3    H269783   5.319   5.859  12.612 -0.8509  1.4897  1.5995
16098TIP3   OH269784   3.299   1.211  12.319  0.2564 -0.2068  0.1058
16098TIP3    H169785   3.258   1.228  12.404 -0.6049 -4.0465  0.6412
16098TIP3    H269786   3.392   1.201  12.339  0.2718  0.3345  0.3227
16099TIP3   OH269787   1.862   2.430  13.409  0.1086  0.0011 -0.3864
16099TIP3    H169788   1.951   2.440  13.441 -0.5898  0.9726  1.3860
16099TIP3    H269789   1.869   2.443  13.315  1.7230  0.8228 -0.1866
16100TIP3   OH269790   5.397   2.314  11.279  0.5819  0.3636  0.3382
16100TIP3    H169791   5.482   2.357  11.267  0.2083  0.6033 -1.8228
16100TIP3    H269792   5.419   2.221  11.291  1.1411  0.2695 -1.2004
16101TIP3   OH269793   0.804   1.464  11.516 -0.2320  0.3905 -0.2652
16101TIP3    H169794   0.839   1.551  11.534  0.3802  0.0113  0.4155
16101TIP3    H269795   0.873   1.404  11.543 -1.4351 -0.3915  1.1885
16102TIP3   OH269796   1.775   0.451   1.626 -0.5122  0.1184  0.1652
16102TIP3    H169797   1.824   0.494   1.696 -0.1870  0.7518 -0.4407
16102TIP3    H269798   1.835   0.385   1.591  0.6797  2.0980 -1.7937
16103TIP3   OH269799   4.405   1.302   6.327 -0.6529  0.8857  0.1819
16103TIP3    H169800   4.413   1.396   6.316 -3.2443  1.1684 -0.0548
16103TIP3    H269801   4.364   1.291   6.413  0.8577 -0.1418  0.8113
16104TIP3   OH269802   4.655   2.020  12.611 -0.5644 -0.5005 -0.1809
16104TIP3    H169803   4.712   1.956  12.654  1.2709 -0.2980 -2.1557
16104TIP3    H269804   4.611   2.065  12.683  0.8847 -1.4856  1.3926
16105TIP3   OH269805   5.270   0.984  13.232 -0.3407 -0.0704  0.4588
16105TIP3    H169806   5.187   0.983  13.280 -0.1090 -2.3698  0.9448
16105TIP3    H269807   5.336   1.003  13.299 -0.4745  2.3834 -0.0389
16106TIP3   OH269808   1.439   3.234   2.114  0.0343 -0.2553 -0.0659
16106TIP3    H169809   1.485   3.316   2.131  0.2230 -0.0296 -1.5277
16106TIP3    H269810   1.488   3.193   2.043 -1.7285 -0.2134 -1.3715
16107TIP3   OH269811   5.251   5.772   4.889 -0.1482  0.5955  0.4243
16107TIP3    H169812   5.191   5.844   4.871 -1.6482  0.1442  3.0401
16107TIP3    H269813   5.337   5.814   4.895 -0.2867  1.4295 -2.2848
16108TIP3   OH269814   2.328   4.067   3.408  0.3693 -0.0121 -0.6752
16108TIP3    H169815   2.400   4.114   3.451 -1.1383  1.4383  0.3651
16108TIP3    H269816   2.295   4.008   3.476 -2.2665  2.5538  0.4641
16109TIP3   OH269817   6.535   0.560  12.825  0.1593 -0.1813 -0.4810
16109TIP3    H169818   6.596   0.628  12.799 -0.3236  0.5355  0.2220
16109TIP3    H269819   6.588   0.495  12.872  0.0729  1.6269  2.3521
16110TIP3   OH269820   3.087   1.545  11.539  0.8722  0.0951  0.3162
16110TIP3    H169821   3.071   1.638  11.525 -4.7266 -0.6418 -0.5438
16110TIP3    H269822   3.073   1.505  11.453 -0.9567 -1.7527  1.3616
16111TIP3   OH269823   0.238   4.088   3.757  0.4430  0.1151 -0.3317
16111TIP3    H169824   0.177   4.037   3.811  1.7169 -0.2516  0.8243
16111TIP3    H269825   0.188   4.109   3.678 -0.4568 -2.0713 -0.4321
16112TIP3   OH269826   1.305   1.930  15.524 -0.4356  0.1513  0.6025
16112TIP3    H169827   1.329   1.862  15.461 -1.9007 -0.5082  0.7123
16112TIP3    H269828   1.324   1.892  15.610  1.0421  0.8399  0.6025
16113TIP3   OH269829   1.546   3.279  14.033  0.5832  0.1292 -0.7760
16113TIP3    H169830   1.507   3.323  13.958  1.0965  1.7526 -0.1357
16113TIP3    H269831   1.491   3.305  14.107  0.8042 -0.4394 -0.4032
16114TIP3   OH269832   3.884   2.464   2.808  0.0349  0.2912 -0.1833
16114TIP3    H169833   3.976   2.487   2.795 -0.3249  1.9905  0.0377
16114TIP3    H269834   3.838   2.548   2.802 -1.4989 -0.5390 -0.2923
16115TIP3   OH269835   3.908   5.990   5.048  0.5676  0.3604  0.5868
16115TIP3    H169836   3.951   5.911   5.012  0.1548  0.9022 -1.2307
16115TIP3    H269837   3.816   5.980   5.022  0.3108  0.9533  1.2606
16116TIP3   OH269838   6.585   0.235   2.783 -0.3002  0.4335  0.1942
16116TIP3    H169839   6.536   0.296   2.728 -0.2133 -0.5618 -1.0376
16116TIP3    H269840   6.607   0.162   2.725  0.2017 -0.4539  1.4375
16117TIP3   OH269841   3.797   5.205   1.364 -0.0579  0.2377 -0.3575
16117TIP3    H169842   3.859   5.139   1.396  3.2411  2.8206 -0.8246
16117TIP3    H269843   3.784   5.263   1.439 -0.3432  0.7959 -0.8339
16118TIP3   OH269844   3.269   5.033  16.799  0.4376  0.0450  0.2323
16118TIP3    H169845   3.239   5.021  16.889 -0.6927  0.7119 -0.0346
16118TIP3    H269846   3.348   5.086  16.806 -0.2005  0.9496  0.7849
16119TIP3   OH269847   2.618   3.895  15.569 -0.1590  0.0275 -0.5331
16119TIP3    H169848   2.577   3.969  15.615  0.4087  0.5645 -0.8708
16119TIP3    H269849   2.571   3.889  15.486 -1.6339 -1.3679  0.3484
16120TIP3   OH269850   2.466   1.716   1.780 -0.6887  0.1539 -0.0267
16120TIP3    H169851   2.526   1.717   1.855 -1.4616  1.2057  0.6092
16120TIP3    H269852   2.500   1.647   1.723 -0.3525 -0.9982  1.5082
16121TIP3   OH269853   3.060   2.897  15.518 -0.3147 -0.3762  0.0538
16121TIP3    H169854   3.148   2.923  15.491 -1.0223  0.4674 -1.5194
16121TIP3    H269855   3.019   2.864  15.438 -1.3579 -0.9855  0.8180
16122TIP3   OH269856   2.953   2.615  16.351 -0.4521 -0.3017  0.0338
16122TIP3    H169857   2.933   2.692  16.297 -0.6201 -0.3695  0.0020
16122TIP3    H269858   2.990   2.551  16.289 -1.7584 -0.8325 -0.2230
16123TIP3   OH269859   2.717   2.564   2.186 -0.7157  0.1475  0.0019
16123TIP3    H169860   2.643   2.582   2.128  1.3201  2.2335 -2.2108
16123TIP3    H269861   2.729   2.469   2.181 -1.2860  0.1206 -2.2229
16124TIP3   OH269862   2.520   4.054  14.052 -0.1592  0.2470 -0.1336
16124TIP3    H169863   2.574   4.053  13.973  2.1864 -0.9678  1.3654
16124TIP3    H269864   2.583   4.052  14.124 -2.1542  2.5043  1.8455
16125TIP3   OH269865   0.522   0.421  12.185 -0.1151  0.0563 -0.1686
16125TIP3    H169866   0.447   0.480  12.176  0.6607  1.2892  1.0885
16125TIP3    H269867   0.597   0.473  12.158  0.5985 -0.2914  1.0555
16126TIP3   OH269868   3.489   1.609   4.302  0.2374  0.2333  0.3862
16126TIP3    H169869   3.529   1.695   4.313  0.2634  0.4206 -0.9887
16126TIP3    H269870   3.544   1.550   4.353  0.1960  1.0222  1.3758
16127TIP3   OH269871   6.038   3.250   4.532  0.1530  0.5233  0.4437
16127TIP3    H169872   6.011   3.323   4.477  0.6098  0.5211  0.2143
16127TIP3    H269873   6.094   3.196   4.476  0.6762  0.5548  0.9190
16128TIP3   OH269874   4.908   4.283  11.680 -0.0360 -0.1953 -0.6536
16128TIP3    H169875   4.920   4.291  11.585 -1.3260 -0.4901 -0.8587
16128TIP3    H269876   4.813   4.281  11.692  0.0942  0.6634  0.7217
16129TIP3   OH269877   3.934   3.010  11.711 -0.0117 -0.5702 -0.1821
16129TIP3    H169878   3.894   3.055  11.636  0.9751  1.0781  0.2497
16129TIP3    H269879   4.028   3.023  11.700  0.1805 -0.8321  1.0217
16130TIP3   OH269880   6.033   3.833  10.891  0.2826  0.5857 -1.0710
16130TIP3    H169881   5.977   3.775  10.943  0.1504  0.4587 -1.3586
16130TIP3    H269882   5.976   3.906  10.866  0.0707  0.1393 -1.9080
16131TIP3   OH269883   6.207   1.212   2.038  0.7234 -0.4106 -0.0251
16131TIP3    H169884   6.128   1.237   1.991 -0.0134  0.7238  1.7215
16131TIP3    H269885   6.236   1.131   1.995 -2.0810 -1.5849  0.0726
16132TIP3   OH269886   3.114   2.178   0.659  0.1304 -0.4249  0.2017
16132TIP3    H169887   3.206   2.205   0.653  0.2211 -0.7375  0.1798
16132TIP3    H269888   3.091   2.152   0.570  0.2457 -1.0737  0.3594
16133TIP3   OH269889   0.391   5.871   0.023 -0.0767 -0.1319  0.1323
16133TIP3    H169890   0.321   5.808   0.043  0.6208 -0.7515  0.6837
16133TIP3    H269891   0.422   5.846  -0.064 -0.2214 -0.1631  0.0905
16134TIP3   OH269892   2.765   3.001  16.366  0.0392 -0.1754  0.0004
16134TIP3    H169893   2.716   2.920  16.374 -0.1929  0.0940  1.4756
16134TIP3    H269894   2.728   3.044  16.288 -1.4194 -0.4137  0.5323
16135TIP3   OH269895   1.391   6.620  13.053  0.2794  0.3195  0.9151
16135TIP3    H169896   1.354   6.609  12.965  2.7655 -0.1897 -0.1637
16135TIP3    H269897   1.425   6.709  13.054  1.1757 -0.0079  0.9373
16136TIP3   OH269898   0.034   3.236  13.468 -0.3970  0.2301  0.3425
16136TIP3    H169899   0.099   3.176  13.504 -1.3055 -0.2838  1.1713
16136TIP3    H269900  -0.024   3.181  13.416 -1.4943  0.2904  1.4617
16137TIP3   OH269901   5.125   6.657  12.334  1.0791 -0.2188  0.2680
16137TIP3    H169902   5.058   6.697  12.390  1.3154 -0.0049  0.3960
16137TIP3    H269903   5.184   6.728  12.312  2.2821 -0.7469  1.6061
16138TIP3   OH269904   5.102   4.199   2.496 -0.2170  0.0477  0.4452
16138TIP3    H169905   5.066   4.274   2.543  2.5321  1.5833  0.3222
16138TIP3    H269906   5.054   4.198   2.413 -0.2041  1.7904  0.3823
16139TIP3   OH269907   5.552   3.093  14.785  0.2630  0.4967  0.8627
16139TIP3    H169908   5.486   3.061  14.724  1.9515 -0.2459 -0.6765
16139TIP3    H269909   5.607   3.016  14.803  0.5059  0.9985  2.4069
16140TIP3   OH269910   6.617   2.559  13.277  0.1102 -0.3822  0.8569
16140TIP3    H169911   6.666   2.637  13.303 -0.7257  1.1528 -1.7577
16140TIP3    H269912   6.681   2.488  13.280  1.5891  0.8977  0.8598
16141TIP3   OH269913   3.627   3.514   2.128 -0.1547  0.3130  0.0389
16141TIP3    H169914   3.660   3.491   2.041 -3.5974 -0.4758 -1.1986
16141TIP3    H269915   3.646   3.438   2.182  1.0374  0.3800 -0.2354
16142TIP3   OH269916   2.645   2.588   4.488 -0.2698 -0.0733 -0.2963
16142TIP3    H169917   2.693   2.666   4.459 -0.4892  0.3511  0.4508
16142TIP3    H269918   2.707   2.542   4.546 -0.6793  0.3843  0.5281
16143TIP3   OH269919   5.612   1.171  13.707 -0.5989 -0.0673 -0.4800
16143TIP3    H169920   5.526   1.172  13.750 -1.2073  1.3274 -1.6078
16143TIP3    H269921   5.669   1.220  13.766 -1.2553  1.2578 -0.9110
16144TIP3   OH269922   6.171   6.214   0.999  0.2171 -0.1619  0.3678
16144TIP3    H169923   6.216   6.266   0.933 -1.5056 -0.0889 -0.7935
16144TIP3    H269924   6.241   6.170   1.047  1.5124 -0.0607 -1.3678
16145TIP3   OH269925   0.707   0.436   6.266 -0.3243 -0.0930 -0.5552
16145TIP3    H169926   0.739   0.486   6.341 -0.5680 -1.1556  0.2880
16145TIP3    H269927   0.613   0.432   6.278 -0.2856 -0.9602 -0.4635
16146TIP3   OH269928   0.725   0.589  13.877  0.2751 -0.2117  0.2097
16146TIP3    H169929   0.742   0.683  13.876  0.2941 -0.2074  1.0169
16146TIP3    H269930   0.644   0.580  13.826  0.7940  0.1272 -0.6970
16147TIP3   OH269931   0.515   1.687  13.248  0.7966  0.0018 -0.0036
16147TIP3    H169932   0.567   1.766  13.233 -1.0654  1.2255 -0.3886
16147TIP3    H269933   0.466   1.706  13.328 -0.3093 -0.4094 -0.5759
16148TIP3   OH269934   3.920   0.660   5.453  0.5697  0.1147 -0.6032
16148TIP3    H169935   3.847   0.674   5.393 -0.8090 -0.2315  0.9290
16148TIP3    H269936   3.940   0.747   5.487  2.4457  0.5846 -2.6911
16149TIP3   OH269937   2.023   5.084   5.283  0.4554 -0.4918 -0.2122
16149TIP3    H169938   2.085   5.157   5.280  0.3156 -0.3866 -0.5416
16149TIP3    H269939   1.991   5.075   5.193  0.9949 -1.4168 -0.3171
16150TIP3   OH269940   2.172   3.891   1.068 -0.0427 -0.4453 -0.3362
16150TIP3    H169941   2.085   3.893   1.108  0.8467  3.0612  1.9308
16150TIP3    H269942   2.227   3.843   1.130 -0.0518 -1.3740 -1.0331
16151TIP3   OH269943   5.999   1.715   2.627 -0.1406 -0.1277 -0.0990
16151TIP3    H169944   6.035   1.746   2.543 -0.7146 -0.6166 -0.5336
16151TIP3    H269945   5.904   1.717   2.615 -0.2160 -2.0497 -0.1677
16152TIP3   OH269946   3.942   6.372   0.667  0.8033 -0.2512 -0.6159
16152TIP3    H169947   3.849   6.367   0.689  0.8457  1.6735  0.1117
16152TIP3    H269948   3.987   6.353   0.749  1.1764 -3.1093 -1.3428
16153TIP3   OH269949   6.212   0.898  14.985 -0.1943  0.0617 -0.0333
16153TIP3    H169950   6.188   0.818  14.940 -0.2169  0.5638 -0.9329
16153TIP3    H269951   6.267   0.869  15.058  0.4724 -0.7084 -0.8278
16154TIP3   OH269952   5.683   1.851   5.865 -0.4517  0.5569 -0.5210
16154TIP3    H169953   5.624   1.777   5.878  0.2046  0.1415  0.1502
16154TIP3    H269954   5.753   1.818   5.809  0.3412  0.3758  0.5390
16155TIP3   OH269955   6.211   1.497  12.401 -0.3542 -0.2835 -1.0222
16155TIP3    H169956   6.176   1.417  12.439  0.6974 -0.0856  0.4301
16155TIP3    H269957   6.166   1.505  12.317 -2.1315 -1.1916 -0.2117
16156TIP3   OH269958   6.474   5.784   4.399  0.1065 -0.2482  0.2427
16156TIP3    H169959   6.404   5.775   4.464 -1.5250 -0.0503 -1.3880
16156TIP3    H269960   6.493   5.694   4.372  2.0487 -0.4897  2.1717
16157TIP3   OH269961   5.489   5.151  12.673 -0.2319 -0.2437  0.6035
16157TIP3    H169962   5.457   5.210  12.605 -2.3559 -1.5152  0.4048
16157TIP3    H269963   5.556   5.201  12.720 -1.2068  1.9096 -0.1968
16158TIP3   OH269964   2.797   4.404   4.715  0.3578  0.0204 -0.2161
16158TIP3    H169965   2.850   4.452   4.779 -0.5599  1.8190 -0.7357
16158TIP3    H269966   2.708   4.409   4.749  0.3138 -2.0248  0.0910
16159TIP3   OH269967   3.392   5.909   0.207 -0.0644  0.3465  0.5311
16159TIP3    H169968   3.298   5.899   0.219  0.0623 -0.9506  0.5845
16159TIP3    H269969   3.419   5.832   0.157  1.1035  0.2391  1.2647
16160TIP3   OH269970   2.354   1.886   5.771 -0.0624 -0.3365  0.4465
16160TIP3    H169971   2.341   1.848   5.858  2.7394  1.3043  1.7202
16160TIP3    H269972   2.437   1.849   5.742  0.0402  0.7069 -0.6213
16161TIP3   OH269973   0.421   1.777  10.824 -0.1452 -0.3895 -0.2721
16161TIP3    H169974   0.432   1.709  10.758  2.1873  1.9274 -2.5046
16161TIP3    H269975   0.491   1.759  10.887 -0.0645 -0.5141 -0.3950
16162TIP3   OH269976   2.521   6.386   5.204  0.4454 -0.0936 -0.1633
16162TIP3    H169977   2.594   6.361   5.147  0.7419 -0.7687  0.5000
16162TIP3    H269978   2.551   6.464   5.250 -0.1703  1.0753 -1.6318
16163TIP3   OH269979   4.373   1.217  16.325 -0.3346  0.4206  0.2171
16163TIP3    H169980   4.436   1.185  16.260  1.2123  1.1567  1.3041
16163TIP3    H269981   4.296   1.243  16.273 -0.4547 -2.0350 -0.9939
16164TIP3   OH269982   4.798   2.832  15.249 -0.8331 -0.1162 -0.1461
16164TIP3    H169983   4.790   2.774  15.173 -1.2096  0.3135 -0.4399
16164TIP3    H269984   4.724   2.893  15.241 -0.1807  0.7023 -0.0978
16165TIP3   OH269985   3.092   2.725  10.933 -0.1777  0.2099 -0.0744
16165TIP3    H169986   3.065   2.808  10.973 -2.1838 -0.7453  0.6790
16165TIP3    H269987   3.085   2.661  11.004  0.8979 -0.7233 -0.7669
16166TIP3   OH269988   1.895   0.836   4.070  0.1301 -0.5546  0.2121
16166TIP3    H169989   1.878   0.757   4.121  1.7161 -0.4883  0.8750
16166TIP3    H269990   1.977   0.819   4.025 -0.2336  0.1787 -0.7712
16167TIP3   OH269991   3.223   5.354   6.080 -0.1252 -0.3189  0.2350
16167TIP3    H169992   3.175   5.292   6.025 -0.0690  0.9396 -1.3003
16167TIP3    H269993   3.315   5.330   6.069 -0.0855  0.1442 -0.5493
16168TIP3   OH269994   6.280   0.746   6.153 -0.2000 -0.0500 -0.0232
16168TIP3    H169995   6.220   0.722   6.223 -0.9804 -0.1737 -0.7260
16168TIP3    H269996   6.289   0.667   6.100 -0.0158  0.1904 -0.3555
16169TIP3   OH269997   3.164   2.324   5.584  0.5793  0.6415 -0.4101
16169TIP3    H169998   3.227   2.258   5.612  0.2638 -0.7459 -2.6786
16169TIP3    H269999   3.082   2.276   5.571  0.4261  1.3264 -2.4550
16170TIP3   OH270000   1.697   2.851  14.994  0.6552  0.5125 -0.3855
16170TIP3    H170001   1.669   2.772  15.040 -1.8745  2.3410  1.4346
16170TIP3    H270002   1.791   2.856  15.011  0.4425 -0.8490  1.4804
16171TIP3   OH270003   5.892   5.097  12.941  0.0773 -0.2830  0.0660
16171TIP3    H170004   5.798   5.106  12.928  0.0456 -1.7456 -0.9189
16171TIP3    H270005   5.905   5.112  13.035 -1.1014  0.0830  0.1821
16172TIP3   OH270006   2.236   5.874   3.238 -0.1855 -0.8104 -0.7598
16172TIP3    H170007   2.321   5.881   3.282 -1.6694 -2.8764  2.9592
16172TIP3    H270008   2.239   5.790   3.192 -0.4098 -1.3141  0.1050
16173TIP3   OH270009   1.477   0.175  13.627 -0.0517 -0.2701  0.1679
16173TIP3    H170010   1.550   0.209  13.576  0.4897  0.0549  1.1408
16173TIP3    H270011   1.438   0.108  13.571  0.8627 -0.2999 -0.4511
16174TIP3   OH270012   2.916   5.312   3.377 -0.7343  0.0663 -0.2522
16174TIP3    H170013   2.939   5.305   3.285 -0.6034  1.0530 -0.3040
16174TIP3    H270014   2.945   5.400   3.403 -0.1020 -0.4600  0.9078
16175TIP3   OH270015   1.016   0.521  15.769  0.1805 -0.9660  0.1628
16175TIP3    H170016   1.016   0.478  15.854  1.4545 -1.5483 -0.0983
16175TIP3    H270017   1.104   0.560  15.763 -0.4668  0.4911 -0.1917
16176TIP3   OH270018   5.259   3.966  15.135  0.3074 -0.0877  0.0227
16176TIP3    H170019   5.260   3.891  15.076  0.3683 -0.2969  0.2888
16176TIP3    H270020   5.349   4.000  15.132  0.1908  0.1863 -0.3664
16177TIP3   OH270021   3.164   2.515   1.737 -0.1695 -0.1787  0.4301
16177TIP3    H170022   3.079   2.558   1.723 -0.2528 -0.4702  0.0289
16177TIP3    H270023   3.175   2.515   1.833 -0.9915 -0.8475  0.5384
16178TIP3   OH270024   3.721   5.901  12.758 -0.3278 -0.1467 -0.4612
16178TIP3    H170025   3.760   5.875  12.674  1.0437 -2.3236  0.7744
16178TIP3    H270026   3.762   5.986  12.777  0.1119 -0.0995 -1.5205
16179TIP3   OH270027   0.533   1.829   2.196 -0.8949 -0.2648 -0.4989
16179TIP3    H170028   0.577   1.881   2.264 -0.4024  2.1700 -2.5619
16179TIP3    H270029   0.557   1.738   2.217  0.4931  0.5189  1.6737
16180TIP3   OH270030   2.887   4.751   2.249  0.6038 -0.5501  0.0379
16180TIP3    H170031   2.819   4.818   2.252 -0.5194 -1.5300 -1.8120
16180TIP3    H270032   2.874   4.707   2.165  0.0943 -4.3005  1.8643
16181TIP3   OH270033   5.431   5.429  11.834 -0.6330 -0.2257 -0.3557
16181TIP3    H170034   5.399   5.381  11.910  0.4613  0.5184  0.6222
16181TIP3    H270035   5.373   5.505  11.827 -1.7196 -1.1219 -1.2629
16182TIP3   OH270036   1.569   5.051  16.654 -0.7431 -0.0932  0.5405
16182TIP3    H170037   1.600   5.038  16.564 -0.9238  1.7139  0.1843
16182TIP3    H270038   1.637   5.011  16.708  0.5519  0.8172 -0.3372
16183TIP3   OH270039   5.632   2.447   1.264 -0.1014  0.0002 -0.1922
16183TIP3    H170040   5.624   2.357   1.298 -0.7130 -0.3301 -1.1863
16183TIP3    H270041   5.704   2.443   1.202 -1.5766 -0.3836 -1.9783
16184TIP3   OH270042   4.351   4.215  16.285 -0.1001 -0.0832 -0.6169
16184TIP3    H170043   4.393   4.277  16.226  0.9090 -0.2179 -0.0669
16184TIP3    H270044   4.372   4.129  16.249 -0.9550 -0.1234 -1.0235
16185TIP3   OH270045   6.323   3.540   4.716 -0.5054 -0.4448 -0.1228
16185TIP3    H170046   6.340   3.518   4.808  0.5675  4.3314  1.0775
16185TIP3    H270047   6.240   3.589   4.718 -0.0577  0.4230 -1.5498
16186TIP3   OH270048   2.926   2.741   4.679  0.3448 -0.3862  0.2850
16186TIP3    H170049   2.888   2.796   4.611 -0.4674 -0.7297  0.4552
16186TIP3    H270050   2.973   2.803   4.735 -0.3885  0.1214  0.3619
16187TIP3   OH270051   5.549   3.110  11.412 -0.3139  0.9434  0.2496
16187TIP3    H170052   5.518   3.103  11.322  0.6232 -0.2594 -0.0070
16187TIP3    H270053   5.497   3.046  11.461 -0.1571  0.9091  0.3736
16188TIP3   OH270054   1.477   3.181  15.068 -0.8585  0.2928 -0.7952
16188TIP3    H170055   1.525   3.153  15.146 -0.1968  0.3714 -1.1713
16188TIP3    H270056   1.387   3.191  15.098 -1.0045 -1.5948 -0.4756
16189TIP3   OH270057   6.101   4.492  15.123 -0.1063 -0.4687  0.1489
16189TIP3    H170058   6.013   4.523  15.101  0.4496 -0.6211 -2.7009
16189TIP3    H270059   6.102   4.401  15.093  1.2077 -0.2731 -0.4484
16190TIP3   OH270060   4.031   2.968  13.744 -0.1593  0.1854  0.0988
16190TIP3    H170061   4.072   2.960  13.658 -0.2765 -0.1634  0.0742
16190TIP3    H270062   3.946   3.007  13.726  0.8097  2.6123  0.3200
16191TIP3   OH270063   6.267   2.004   5.845 -0.0036 -0.0143  0.4670
16191TIP3    H170064   6.225   2.055   5.914  1.0221  0.1522  0.9884
16191TIP3    H270065   6.313   2.069   5.792  0.7800 -0.3256  0.7558
16192TIP3   OH270066   1.330   2.520  13.807  0.0357  0.2475 -0.2658
16192TIP3    H170067   1.295   2.606  13.830  0.0714  0.1248  0.2591
16192TIP3    H270068   1.299   2.504  13.718  0.6438  1.1290 -0.6538
16193TIP3   OH270069   3.650   4.315  13.383  0.0357 -0.2974 -0.6318
16193TIP3    H170070   3.691   4.335  13.467  0.9013 -1.8149 -0.6452
16193TIP3    H270071   3.654   4.397  13.333  0.0966  0.4432  0.5670
16194TIP3   OH270072   4.215   0.796  13.678  0.6542 -0.1955 -0.5477
16194TIP3    H170073   4.207   0.842  13.594 -1.1780  1.2280  0.3191
16194TIP3    H270074   4.194   0.862  13.743  2.3153 -1.2024  1.0892
16195TIP3   OH270075   4.642   0.323   2.861 -0.5764 -0.0574 -0.1294
16195TIP3    H170076   4.704   0.394   2.880 -1.1962  1.3623 -2.9590
16195TIP3    H270077   4.698   0.245   2.853  0.6563  0.8733 -0.9895
16196TIP3   OH270078   3.870   4.733   2.876 -0.0480  0.1598  0.0643
16196TIP3    H170079   3.844   4.641   2.883  1.2122 -0.3029 -0.8584
16196TIP3    H270080   3.823   4.777   2.947 -0.3306 -1.2765  0.8137
16197TIP3   OH270081   5.552   5.664  11.194 -0.1390  0.3148  0.1425
16197TIP3    H170082   5.481   5.719  11.229  1.1200  3.1632 -1.4525
16197TIP3    H270083   5.545   5.672  11.099  0.4390 -1.9452 -0.1407
16198TIP3   OH270084   3.678   6.207  12.253 -0.0730  0.9605  0.6799
16198TIP3    H170085   3.699   6.282  12.309  1.1368 -0.0828  1.6988
16198TIP3    H270086   3.689   6.240  12.164 -1.2351  2.4367  1.0351
16199TIP3   OH270087   0.212   6.488   4.933  0.2647  0.7260 -0.0620
16199TIP3    H170088   0.232   6.419   4.997  2.0908  2.5486  1.4676
16199TIP3    H270089   0.290   6.492   4.878 -0.2502  0.9132 -0.7821
16200TIP3   OH270090   6.465   4.118  14.678 -0.0603 -0.0416  0.5935
16200TIP3    H170091   6.552   4.080  14.661 -0.5492 -1.8629  1.7937
16200TIP3    H270092   6.465   4.135  14.772 -1.0618 -0.2247  0.6323
16201TIP3   OH270093   0.315   0.969  13.489  0.4945  0.3205  0.0987
16201TIP3    H170094   0.273   1.042  13.534  0.6580  1.5729 -1.6432
16201TIP3    H270095   0.259   0.952  13.413  0.7920 -0.9787  0.1362
16202TIP3   OH270096   5.665   2.032   2.323 -0.3836  0.3667 -0.0775
16202TIP3    H170097   5.601   2.017   2.392  1.5547 -0.1441  1.7039
16202TIP3    H270098   5.650   1.961   2.261 -0.4240 -0.7857  1.2092
16203TIP3   OH270099   5.721   2.736  11.294  0.1817 -0.6112  0.6854
16203TIP3    H170100   5.637   2.780  11.307 -0.5649 -1.3376 -1.3093
16203TIP3    H270101   5.739   2.748  11.201  2.1545 -0.7579  1.0080
16204TIP3   OH270102   4.033   2.711  11.816  0.9411 -0.1657 -0.3021
16204TIP3    H170103   4.126   2.692  11.802  1.3359 -0.2224  1.9127
16204TIP3    H270104   4.025   2.805  11.800  1.9270  0.3140  1.6300
16205TIP3   OH270105   6.100   5.254   4.977  0.4314  0.7284 -0.3414
16205TIP3    H170106   6.034   5.242   5.046  1.0412 -1.2761 -0.0539
16205TIP3    H270107   6.089   5.178   4.920  1.9150  0.8172 -0.7800
16206TIP3   OH270108   0.908   5.261  12.019  0.5958  0.1015 -0.2176
16206TIP3    H170109   0.918   5.234  12.111 -0.0936  1.0014  0.1368
16206TIP3    H270110   0.850   5.337  12.023  0.8650  0.3802 -1.3739
16207TIP3   OH270111   3.112   5.460  17.036  0.4563  0.1316 -0.1739
16207TIP3    H170112   3.076   5.545  17.010 -1.0405 -0.3901  0.1262
16207TIP3    H270113   3.121   5.412  16.954 -1.8388 -0.5827 -0.0802
16208TIP3   OH270114   6.639   3.460   4.077 -0.2409  0.0797  0.7119
16208TIP3    H170115   6.650   3.543   4.125 -0.1466 -0.1631  1.1183
16208TIP3    H270116   6.570   3.479   4.014 -1.2441  0.0768  1.7621
16209TIP3   OH270117   4.271   4.533   1.343  0.2093 -0.3444  0.4642
16209TIP3    H170118   4.358   4.501   1.320 -0.0141  0.2742 -1.4730
16209TIP3    H270119   4.219   4.455   1.358  0.9047 -0.7350  0.8990
16210TIP3   OH270120   0.991   0.151   0.642  0.4401 -0.3055  0.0460
16210TIP3    H170121   1.063   0.215   0.644  0.3355 -0.1324 -0.9468
16210TIP3    H270122   1.033   0.069   0.614  0.3496 -0.3395  0.0093
16211TIP3   OH270123   0.588   2.177  15.384 -0.0717 -0.0965  0.3079
16211TIP3    H170124   0.516   2.228  15.347  0.8494 -0.1631 -1.6720
16211TIP3    H270125   0.560   2.086  15.376  0.7527 -0.2228 -1.8127
16212TIP3   OH270126   0.859   4.572  12.475 -0.0986  0.3313  0.1340
16212TIP3    H170127   0.910   4.649  12.500 -0.6359  0.3172  1.3070
16212TIP3    H270128   0.771   4.590  12.508 -0.1207 -0.9892  0.8433
16213TIP3   OH270129   4.653   6.559   1.006  0.9128  0.1028 -0.1033
16213TIP3    H170130   4.559   6.563   1.024  0.9821 -0.3400  0.3573
16213TIP3    H270131   4.660   6.507   0.926  0.7018  0.9769 -0.7141
16214TIP3   OH270132   3.325   0.671  11.073 -0.5132  0.3107 -0.0954
16214TIP3    H170133   3.408   0.699  11.110 -0.3145  0.6946 -0.8101
16214TIP3    H270134   3.314   0.725  10.995 -1.4403  0.2756 -0.0030
16215TIP3   OH270135   0.610   1.673  16.447  0.4263  0.4312  0.5310
16215TIP3    H170136   0.614   1.585  16.408  1.3729  0.5556  0.3180
16215TIP3    H270137   0.589   1.657  16.539  0.0365  0.0176  0.3758
16216TIP3   OH270138   3.255   0.196   4.594 -0.2220 -0.1419  0.4547
16216TIP3    H170139   3.218   0.118   4.636  1.2178 -1.2889 -0.3198
16216TIP3    H270140   3.223   0.269   4.647 -1.2186 -1.2871  1.4947
16217TIP3   OH270141   5.379   5.793  15.824  0.3403 -0.1752  0.3077
16217TIP3    H170142   5.461   5.820  15.783  0.1481 -0.1285 -0.0501
16217TIP3    H270143   5.358   5.863  15.885 -0.2565  0.6021 -0.7535
16218TIP3   OH270144   0.932   4.460  15.248 -0.3327 -0.0368  0.2408
16218TIP3    H170145   0.924   4.555  15.241  1.8672  0.1687 -0.3576
16218TIP3    H270146   0.885   4.437  15.328 -0.7621  1.5721  0.4802
16219TIP3   OH270147   0.193   3.028   4.692  0.5722 -0.4386 -0.8568
16219TIP3    H170148   0.213   2.940   4.659  0.4403 -0.8378  0.0988
16219TIP3    H270149   0.161   3.075   4.616  1.3161 -1.0036 -1.5432
16220TIP3   OH270150   5.919   5.206   5.182  0.5175 -0.3360  0.0854
16220TIP3    H170151   5.876   5.121   5.173 -0.7368  0.3401 -0.5903
16220TIP3    H270152   5.848   5.269   5.174  1.5633  0.8120 -0.4524
16221TIP3   OH270153   0.517   6.399   0.652  0.2727 -0.1189  0.0151
16221TIP3    H170154   0.488   6.382   0.563  1.3325 -2.4909  0.0634
16221TIP3    H270155   0.441   6.380   0.707  0.0636 -0.1159 -0.2720
16222TIP3   OH270156   5.007   0.636  11.197  0.3191  0.3449 -0.2669
16222TIP3    H170157   5.005   0.717  11.147  1.4718  0.7135  0.2482
16222TIP3    H270158   4.915   0.616  11.215 -0.0515  0.7589 -1.6097
16223TIP3   OH270159   3.915   2.262  16.137  0.4948 -0.1549 -0.2033
16223TIP3    H170160   3.841   2.201  16.131 -0.0683  0.6164 -2.0206
16223TIP3    H270161   3.946   2.254  16.227 -0.3404 -2.1880 -0.0491
16224TIP3   OH270162   3.038   3.333   4.922  0.5122 -0.0100  0.3009
16224TIP3    H170163   3.010   3.313   5.011 -0.7819 -1.0157 -0.3023
16224TIP3    H270164   3.061   3.426   4.924 -0.0359  0.1150  1.5423
16225TIP3   OH270165   1.489   3.306   3.057  0.0793  0.1705  0.1415
16225TIP3    H170166   1.569   3.314   3.109  0.2567  1.9847 -0.3238
16225TIP3    H270167   1.506   3.360   2.980 -1.1841 -0.3233 -0.5051
16226TIP3   OH270168   4.023   2.701  17.244  0.1598 -0.4751 -0.0815
16226TIP3    H170169   4.083   2.681  17.316  1.3655  2.0941 -0.2406
16226TIP3    H270170   4.042   2.634  17.178 -0.1693 -2.1938  1.4797
16227TIP3   OH270171   0.811   5.592  14.042  0.0783 -0.1025  0.5461
16227TIP3    H170172   0.798   5.542  14.123 -0.1991 -0.5231  0.2519
16227TIP3    H270173   0.725   5.630  14.023  0.6365  1.7777  1.5805
16228TIP3   OH270174   4.913   1.504   2.059 -0.0508  0.1448  0.4603
16228TIP3    H170175   4.874   1.592   2.057  0.6635  0.4767 -1.6537
16228TIP3    H270176   4.951   1.493   1.972 -0.3279 -2.3818  0.5836
16229TIP3   OH270177   5.258   1.655  14.509  0.2081  0.4962 -0.0588
16229TIP3    H170178   5.171   1.695  14.501  0.2456  0.3772 -1.1652
16229TIP3    H270179   5.317   1.729  14.525  0.3258  0.9887 -2.4035
16230TIP3   OH270180   4.174   2.002   1.040 -0.2902  0.5373  0.0839
16230TIP3    H170181   4.266   1.979   1.025 -0.4879  0.4550 -1.0537
16230TIP3    H270182   4.143   2.036   0.956 -1.7089 -0.8095  0.0160
16231TIP3   OH270183   4.857   4.607  14.438  0.8608  0.6146  0.2236
16231TIP3    H170184   4.881   4.516  14.455 -1.9973 -1.1496 -3.5429
16231TIP3    H270185   4.909   4.631  14.361  0.6791  1.7302  0.4344
16232TIP3   OH270186   3.652   6.035   4.189  0.0147  0.0364 -0.6515
16232TIP3    H170187   3.745   6.033   4.169  0.1299 -0.4366 -0.0980
16232TIP3    H270188   3.642   6.105   4.254 -0.0266  0.1084 -0.7343
16233TIP3   OH270189   4.206   4.812   2.519  0.0435 -0.1633 -0.1653
16233TIP3    H170190   4.193   4.748   2.589  2.3666 -0.6547 -0.0816
16233TIP3    H270191   4.150   4.782   2.448 -1.8429 -0.0467  1.1971
16234TIP3   OH270192   0.114   6.272   0.172 -0.0587 -0.0247  0.0213
16234TIP3    H170193   0.031   6.226   0.178 -0.6270  0.5675 -2.4456
16234TIP3    H270194   0.178   6.204   0.151 -0.9209  0.1460 -3.7717
16235TIP3   OH270195   5.309   1.352  15.476 -0.0955 -0.3216  0.0974
16235TIP3    H170196   5.282   1.363  15.385  0.5828  0.7627  0.0124
16235TIP3    H270197   5.227   1.340  15.524 -0.4731 -0.6649 -0.6145
16236TIP3   OH270198   1.585   4.456   4.687 -0.4670 -0.3120  0.1701
16236TIP3    H170199   1.594   4.395   4.760 -1.1343 -0.2624  0.3015
16236TIP3    H270200   1.659   4.436   4.629 -0.1980 -0.6610  0.6294
16237TIP3   OH270201   2.811   6.823  15.020 -0.4930 -0.0042 -0.1421
16237TIP3    H170202   2.865   6.745  15.007 -0.5281  0.3517 -3.2068
16237TIP3    H270203   2.874   6.894  15.032 -0.4189 -0.1806  0.5684
16238TIP3   OH270204   2.660   5.054  14.853  0.0372 -0.3178  0.1597
16238TIP3    H170205   2.700   5.119  14.794 -0.0336  0.9472  1.4514
16238TIP3    H270206   2.697   5.074  14.939  0.1919 -2.1699  0.5645
16239TIP3   OH270207   2.643   0.461   0.318 -0.0339 -0.1621 -0.0189
16239TIP3    H170208   2.588   0.402   0.268 -0.5649  0.4192 -0.1265
16239TIP3    H270209   2.629   0.547   0.279 -0.8430  0.3925  1.4209
16240TIP3   OH270210   4.294   1.480   3.107  0.2434  0.3758  0.2916
16240TIP3    H170211   4.281   1.475   3.201  0.1668  2.2103  0.4136
16240TIP3    H270212   4.359   1.549   3.095  1.0770 -0.5616 -0.9601
16241TIP3   OH270213   3.817   4.669  14.996 -0.5541  0.1577  0.1178
16241TIP3    H170214   3.901   4.703  15.026  1.3408 -2.1841 -2.0051
16241TIP3    H270215   3.791   4.727  14.924 -1.1291  1.2539  1.1836
16242TIP3   OH270216   2.720   2.444  16.971 -0.2974 -0.0198 -0.6465
16242TIP3    H170217   2.696   2.524  17.017  1.9677 -1.8288  4.4229
16242TIP3    H270218   2.802   2.464  16.926  0.3195  0.5196  0.6922
16243TIP3   OH270219   4.003   2.910  16.470 -0.1937 -0.1368 -0.4110
16243TIP3    H170220   3.945   2.906  16.394 -0.9115 -0.3585  0.1363
16243TIP3    H270221   3.964   2.976  16.527 -0.6607 -1.1987  0.5484
16244TIP3   OH270222   3.979   1.402   0.330  0.0041 -0.1020  0.0341
16244TIP3    H170223   4.064   1.385   0.370 -0.5845 -0.8831  0.9638
16244TIP3    H270224   3.925   1.326   0.352 -1.0779  0.5818 -0.1638
16245TIP3   OH270225   4.933   1.655  13.143 -0.2600 -0.2276 -0.1772
16245TIP3    H170226   4.897   1.567  13.141 -0.4435 -0.3178  2.7240
16245TIP3    H270227   4.856   1.713  13.144 -0.2329 -0.1889  0.6192
16246TIP3   OH270228   3.108   2.219   1.870  0.3732 -0.1113 -0.8999
16246TIP3    H170229   3.072   2.209   1.782  0.7306 -1.7860 -0.8976
16246TIP3    H270230   3.049   2.280   1.914 -0.8573 -0.6558 -1.7408
16247TIP3   OH270231   2.383   0.321  15.716 -0.1612  0.1611 -0.0197
16247TIP3    H170232   2.410   0.345  15.628  1.5515  0.9462  0.6851
16247TIP3    H270233   2.417   0.391  15.772  0.8969 -1.5285  1.5516
16248TIP3   OH270234   1.935   0.040   4.926  0.3219  0.2652  0.3015
16248TIP3    H170235   1.997   0.070   4.992 -0.8030  2.5759  0.3940
16248TIP3    H270236   1.970   0.074   4.843  1.2455 -1.8527 -0.2428
16249TIP3   OH270237   2.281   0.535   0.567 -0.3289 -0.2910 -0.2445
16249TIP3    H170238   2.245   0.561   0.483 -0.8868 -0.4366 -0.0563
16249TIP3    H270239   2.360   0.487   0.545  0.7602  1.5819 -0.5962
16250TIP3   OH270240   2.938   0.287   3.229  0.2427  0.0508 -0.1276
16250TIP3    H170241   2.930   0.226   3.156 -2.1517 -0.7446  0.7018
16250TIP3    H270242   2.966   0.369   3.188  1.3533 -0.9879 -1.5649
16251TIP3   OH270243   3.890   5.554  11.634  0.4056  0.6509  0.4505
16251TIP3    H170244   3.968   5.539  11.580  0.3988  0.1692  0.5775
16251TIP3    H270245   3.820   5.507  11.588  0.2198  0.9430  0.4280
16252TIP3   OH270246   1.671   4.662  11.245 -0.4257  0.0166 -0.4063
16252TIP3    H170247   1.608   4.647  11.316 -0.6168 -1.0928 -0.7826
16252TIP3    H270248   1.620   4.704  11.177 -0.0681  1.7876  0.3725
16253TIP3   OH270249   2.228   6.145  15.401 -0.3003  0.2230 -0.3083
16253TIP3    H170250   2.204   6.191  15.321 -1.7798 -0.1938 -0.1521
16253TIP3    H270251   2.270   6.065  15.371 -0.3087  0.3474 -0.6584
16254TIP3   OH270252   5.297   4.277  15.955 -0.2814 -0.2991 -0.3310
16254TIP3    H170253   5.388   4.252  15.973 -0.2038 -0.2472 -0.6378
16254TIP3    H270254   5.293   4.370  15.978 -0.4230 -0.4505  0.2783
16255TIP3   OH270255   2.613   4.256  11.909  0.5753  0.1879 -0.2756
16255TIP3    H170256   2.599   4.174  11.862  1.9047  0.1276 -0.6133
16255TIP3    H270257   2.705   4.253  11.936  0.4828  1.2968  0.2368
16256TIP3   OH270258   5.099   1.041   2.348 -0.1186 -0.2437 -0.1979
16256TIP3    H170259   5.027   1.036   2.285 -0.0499  3.0009 -0.7371
16256TIP3    H270260   5.104   1.134   2.372  3.3171 -0.4401  0.4946
16257TIP3   OH270261   0.966   1.054   4.942 -0.3886  0.4218 -0.1247
16257TIP3    H170262   1.057   1.084   4.948 -0.2477 -0.0457  0.1722
16257TIP3    H270263   0.916   1.123   4.986  0.3176 -1.4625  4.0815
16258TIP3   OH270264   6.536   1.453  16.028  0.0688 -0.0375 -0.0620
16258TIP3    H170265   6.547   1.364  16.060  2.0172  0.1939 -0.0057
16258TIP3    H270266   6.441   1.468  16.032 -0.3218 -2.1471 -0.2458
16259TIP3   OH270267   3.866   1.633  14.998  0.4898 -0.6059  0.8242
16259TIP3    H170268   3.815   1.624  15.078  0.8187  0.9561  1.2522
16259TIP3    H270269   3.950   1.668  15.027  1.3564 -1.9092 -0.0076
16260TIP3   OH270270   1.699   1.105  16.576  0.0182 -0.5744  0.0341
16260TIP3    H170271   1.701   1.160  16.497 -0.2484  1.4984  1.3779
16260TIP3    H270272   1.608   1.078  16.584 -0.3122  0.5854  0.4659
16261TIP3   OH270273   1.770   5.168  14.689  0.1243 -0.1186 -0.1423
16261TIP3    H170274   1.734   5.197  14.605  1.1409 -1.3456 -1.0579
16261TIP3    H270275   1.848   5.222  14.701 -0.7634  1.0204  0.7453
16262TIP3   OH270276   1.016   2.566   4.093 -0.3544 -0.0590  0.1674
16262TIP3    H170277   0.936   2.606   4.059  0.6579  0.6562 -1.5108
16262TIP3    H270278   1.067   2.640   4.126 -0.3740 -0.5169  1.2693
16263TIP3   OH270279   6.278   1.694   1.032  0.2190 -0.7916 -0.3095
16263TIP3    H170280   6.337   1.743   1.089  0.4889 -3.6296  2.0938
16263TIP3    H270281   6.223   1.761   0.992  1.7978  1.5829  1.1934
16264TIP3   OH270282   1.229   1.166  11.681 -0.2989 -0.7393 -0.6430
16264TIP3    H170283   1.215   1.214  11.762 -2.3207  1.2393 -2.0347
16264TIP3    H270284   1.324   1.163  11.671  0.1405 -2.9163  2.7360
16265TIP3   OH270285   3.064   1.281  15.535 -0.7999  0.0335 -0.0642
16265TIP3    H170286   3.061   1.252  15.444 -2.8863 -1.0795  0.3014
16265TIP3    H270287   3.156   1.271  15.560 -0.6570 -2.2522 -1.2623
16266TIP3   OH270288   6.619   3.868  16.361 -0.0260 -0.6892 -0.0710
16266TIP3    H170289   6.545   3.808  16.356 -0.9896  0.4936 -0.2207
16266TIP3    H270290   6.589   3.939  16.418  1.1130 -0.3544  0.1398
16267TIP3   OH270291   0.218   3.332  15.310  0.0163 -0.0186 -0.1673
16267TIP3    H170292   0.131   3.330  15.352  0.2108  1.1618  0.3433
16267TIP3    H270293   0.213   3.265  15.243 -0.9003 -0.7927  0.6300
16268TIP3   OH270294   0.731   1.894  13.227  0.3502 -0.3751  0.6058
16268TIP3    H170295   0.780   1.813  13.241 -1.7487 -1.9995 -0.8432
16268TIP3    H270296   0.728   1.905  13.132 -0.6235  0.6064  0.7307
16269TIP3   OH270297   5.498   1.242   0.976 -0.0090  0.6536  0.3399
16269TIP3    H170298   5.430   1.175   0.979 -0.1059  0.5731 -1.7496
16269TIP3    H270299   5.577   1.198   1.007 -0.7282  0.5746  2.1823
16270TIP3   OH270300   4.755   1.721   2.243  0.3059 -0.2735 -0.5092
16270TIP3    H170301   4.819   1.739   2.175  1.2128  1.3963  0.7253
16270TIP3    H270302   4.768   1.790   2.308 -1.7637 -0.7331  0.4893
16271TIP3   OH270303   1.238   4.706  11.157  0.3118 -0.1595 -0.2529
16271TIP3    H170304   1.234   4.619  11.198 -0.8781 -0.0629 -0.1290
16271TIP3    H270305   1.209   4.766  11.226 -0.8883  0.0981 -0.9671
16272TIP3   OH270306   4.552   2.528  15.896 -0.4871  0.3202  0.3871
16272TIP3    H170307   4.465   2.562  15.876 -0.2159  1.6677  1.3952
16272TIP3    H270308   4.600   2.533  15.813 -1.5343 -1.1146 -0.3654
16273TIP3   OH270309   6.254   5.452  16.543  0.1396  0.3215 -0.0332
16273TIP3    H170310   6.181   5.495  16.497  0.7363  1.3911 -0.0055
16273TIP3    H270311   6.250   5.361  16.513 -0.4278  0.6497 -1.0269
16274TIP3   OH270312   6.256   4.132  12.899 -0.4078  0.2823  0.1738
16274TIP3    H170313   6.308   4.161  12.974 -0.0979 -1.1382  0.5360
16274TIP3    H270314   6.186   4.080  12.937  0.1914 -1.1020 -0.5457
16275TIP3   OH270315   0.344   0.413   1.067 -0.0942 -0.1485 -0.2605
16275TIP3    H170316   0.400   0.379   1.137 -0.4170 -0.8708 -0.3438
16275TIP3    H270317   0.273   0.349   1.061 -0.4824  0.3253 -0.7190
16276TIP3   OH270318   5.744   3.734   1.351 -0.0512  0.4449 -0.8725
16276TIP3    H170319   5.724   3.641   1.347  1.7379  0.0498 -1.8693
16276TIP3    H270320   5.803   3.749   1.277  0.9291  2.0385  0.1651
16277TIP3   OH270321   4.444   3.559  15.318 -0.4328 -0.1542  0.4443
16277TIP3    H170322   4.390   3.623  15.365  1.9774  1.3613  1.3282
16277TIP3    H270323   4.504   3.612  15.267 -0.4211 -1.8000 -1.3300
16278TIP3   OH270324   4.361   3.304   5.406 -0.3242  0.1138 -0.1057
16278TIP3    H170325   4.329   3.380   5.453  1.2876  0.2783  0.8008
16278TIP3    H270326   4.291   3.239   5.414 -1.5577  1.3429 -0.5851
16279TIP3   OH270327   5.989   2.786  10.472  0.1804 -0.3725 -0.1138
16279TIP3    H170328   5.975   2.862  10.528  2.5159  0.7867 -0.9890
16279TIP3    H270329   6.075   2.753  10.496  0.5100 -0.8752 -1.8197
16280TIP3   OH270330   3.517   5.497  11.133  0.2132  0.5239  0.1786
16280TIP3    H170331   3.509   5.517  11.226 -1.1590 -0.3988  0.2921
16280TIP3    H270332   3.555   5.576  11.094  0.4211  1.0684  1.4465
16281TIP3   OH270333   3.214   2.684   3.083 -0.0914  0.4721  0.1275
16281TIP3    H170334   3.252   2.771   3.099  0.3665  0.2045  0.5149
16281TIP3    H270335   3.290   2.627   3.071 -0.4012  0.2376 -0.7522
16282TIP3   OH270336   2.284   4.096   2.133  0.2324  0.0736  0.1367
16282TIP3    H170337   2.350   4.058   2.191 -0.7362  0.3809  1.4954
16282TIP3    H270338   2.256   4.176   2.178 -1.5099 -0.3693 -0.0575
16283TIP3   OH270339   2.441   2.215   4.076 -0.0207 -0.5436  0.3690
16283TIP3    H170340   2.476   2.294   4.117  0.1362 -1.3068  1.7699
16283TIP3    H270341   2.373   2.185   4.136 -1.2756 -0.5352 -1.0056
16284TIP3   OH270342   3.226   1.224   0.645 -0.0528  0.1122  0.3224
16284TIP3    H170343   3.152   1.278   0.620  0.1143  1.3029  2.2008
16284TIP3    H270344   3.187   1.144   0.679 -0.3492 -0.4078 -1.1664
16285TIP3   OH270345   1.659   1.716   5.993 -0.2334  0.1293 -0.3051
16285TIP3    H170346   1.647   1.807   6.020 -0.6466  0.8233 -2.5565
16285TIP3    H270347   1.580   1.671   6.023 -0.0620  0.5206  0.7622
16286TIP3   OH270348   6.529   1.796   3.057  0.3429  0.0421 -0.0377
16286TIP3    H170349   6.434   1.806   3.064  0.5108  0.8172  1.8275
16286TIP3    H270350   6.557   1.868   3.000 -0.1878 -0.2060 -0.6141
16287TIP3   OH270351   0.418   0.650  13.600  0.2374 -0.1282  0.2038
16287TIP3    H170352   0.360   0.650  13.524 -0.6147 -1.9000  0.7892
16287TIP3    H270353   0.360   0.634  13.674  1.1565  0.7683  1.1479
16288TIP3   OH270354   5.823   5.712   4.942 -0.0534 -0.2142 -0.0782
16288TIP3    H170355   5.806   5.685   5.032 -0.1530  1.2630  0.3805
16288TIP3    H270356   5.918   5.719   4.936  0.0701 -1.8106 -0.5878
16289TIP3   OH270357   4.823   0.843  12.166  0.0208  0.0808  0.0036
16289TIP3    H170358   4.897   0.823  12.224 -0.8041  0.4486  1.2212
16289TIP3    H270359   4.797   0.932  12.189  0.1636  0.5358 -1.5044
16290TIP3   OH270360   3.660   2.467  11.056 -0.0633  0.7245  0.2027
16290TIP3    H170361   3.700   2.537  11.005 -1.8195  1.0769 -0.7690
16290TIP3    H270362   3.571   2.460  11.022 -0.2657 -1.2747  1.0052
16291TIP3   OH270363   2.053   0.766  13.920 -0.2116 -0.0536 -0.4215
16291TIP3    H170364   2.004   0.817  13.984  1.1640 -0.5248  1.0870
16291TIP3    H270365   2.038   0.675  13.946  0.5678 -0.2407 -0.6055
16292TIP3   OH270366   4.762   2.854   4.901  0.2689  0.5204  0.3788
16292TIP3    H170367   4.823   2.848   4.827 -0.5743  0.8130 -0.3474
16292TIP3    H270368   4.787   2.935   4.945  1.6723 -0.3351  1.2561
16293TIP3   OH270369   0.790   1.210   1.898 -0.2831 -0.7900 -0.4593
16293TIP3    H170370   0.755   1.295   1.872 -0.4507 -0.2931  1.2623
16293TIP3    H270371   0.818   1.169   1.816 -1.8464  0.1676 -1.5330
16294TIP3   OH270372   4.902   3.081  16.203 -0.0990 -0.4995  0.1963
16294TIP3    H170373   4.974   3.120  16.253 -0.3126  1.3158 -0.8056
16294TIP3    H270374   4.903   3.129  16.120 -2.9722  0.1991  0.4678
16295TIP3   OH270375   2.635   1.275   2.243 -0.1349 -0.0689  0.1182
16295TIP3    H170376   2.576   1.285   2.317 -1.4124 -2.0225 -0.5755
16295TIP3    H270377   2.717   1.244   2.282 -0.5268 -0.2770  0.7880
16296TIP3   OH270378   1.179   6.760  13.826  0.3325 -0.4711 -0.0261
16296TIP3    H170379   1.248   6.755  13.893 -2.2492  1.0730  3.0413
16296TIP3    H270380   1.171   6.854  13.807  1.2896 -0.8974 -2.9937
16297TIP3   OH270381   2.691   5.624  14.212 -0.5200 -0.5859 -0.0278
16297TIP3    H170382   2.767   5.571  14.187  0.1662  0.4898 -0.3185
16297TIP3    H270383   2.624   5.561  14.237  0.5617 -1.5660  0.4887
16298TIP3   OH270384   3.782   6.171  17.020  0.2206 -0.5661  0.0593
16298TIP3    H170385   3.774   6.083  16.984  1.2444 -0.4520 -0.5057
16298TIP3    H270386   3.820   6.223  16.948 -1.2100  0.5578  0.0636
16299TIP3   OH270387   4.544   3.902   5.710 -0.1112 -0.9016  0.3856
16299TIP3    H170388   4.635   3.871   5.716 -0.5243 -2.0012  1.3217
16299TIP3    H270389   4.525   3.939   5.796 -0.2485  0.2670 -0.1267
16300TIP3   OH270390   3.717   3.692  10.637 -0.4925 -0.0846 -0.4093
16300TIP3    H170391   3.743   3.704  10.728 -2.9160  0.3713  0.3077
16300TIP3    H270392   3.770   3.754  10.588 -0.0225  0.5575  0.8705
16301TIP3   OH270393   1.150   6.516   5.477  0.5814 -0.0942  0.1927
16301TIP3    H170394   1.110   6.529   5.392  1.0799  0.2154 -0.0025
16301TIP3    H270395   1.239   6.550   5.467 -0.0210  2.0492  1.4599
16302TIP3   OH270396   4.340   5.234  12.444  0.1327  0.3172  0.2717
16302TIP3    H170397   4.362   5.284  12.522 -1.0583 -1.2760  1.6911
16302TIP3    H270398   4.398   5.158  12.448 -1.6721 -1.0799  1.0512
16303TIP3   OH270399   6.822   0.566   3.631 -0.2577 -0.3697  0.0560
16303TIP3    H170400   6.911   0.591   3.656 -0.2232  0.0922 -0.5247
16303TIP3    H270401   6.817   0.584   3.537 -1.5822  1.4672  0.4446
16304TIP3   OH270402   0.086   3.311   4.567  0.5530 -0.1826 -0.1253
16304TIP3    H170403   0.104   3.261   4.487 -1.7436 -1.7027  0.2136
16304TIP3    H270404   0.007   3.361   4.548  0.5360  0.2060  0.8787
16305TIP3   OH270405   6.260   2.558  16.850  0.1510  0.0249  0.1662
16305TIP3    H170406   6.336   2.561  16.908  0.3941  1.2841 -0.1820
16305TIP3    H270407   6.204   2.490  16.887  0.5303  0.4494  1.5730
16306TIP3   OH270408   3.618   5.346   3.104 -0.2453 -0.3908  0.3137
16306TIP3    H170409   3.666   5.316   3.181 -0.8292  0.3241  0.9757
16306TIP3    H270410   3.624   5.442   3.108 -1.1822 -0.3125  0.0609
16307TIP3   OH270411   3.833   6.316   2.395  0.2775 -0.4035 -0.3690
16307TIP3    H170412   3.890   6.295   2.321  0.4476  0.5324 -0.5086
16307TIP3    H270413   3.892   6.326   2.469  0.1018 -1.4077 -0.0717
16308TIP3   OH270414   3.331   4.303  11.392 -0.0515 -0.2988 -0.3902
16308TIP3    H170415   3.387   4.316  11.468 -0.6568  1.0097 -0.1417
16308TIP3    H270416   3.360   4.369  11.329 -1.2550  0.3863 -0.2670
16309TIP3   OH270417   6.034   3.149   5.455 -0.7446 -0.3550  0.6357
16309TIP3    H170418   6.120   3.111   5.476 -0.4051  0.0740  0.0328
16309TIP3    H270419   6.041   3.174   5.363 -1.8270 -1.1416  0.3226
16310TIP3   OH270420   0.845   6.322   1.692  0.1739  0.5407  0.9479
16310TIP3    H170421   0.814   6.235   1.666  2.9050 -0.3456  0.2368
16310TIP3    H270422   0.814   6.381   1.624  0.1478 -0.2878  0.2268
16311TIP3   OH270423   5.983   0.402  16.598  0.2066 -0.1584  0.0624
16311TIP3    H170424   5.931   0.372  16.672 -0.7194  0.4758 -0.3196
16311TIP3    H270425   5.925   0.394  16.523  0.7555  0.2793 -0.4148
16312TIP3   OH270426   2.911   5.859  11.642  0.0336 -0.2290 -0.2763
16312TIP3    H170427   2.847   5.888  11.577  0.0944  0.3577 -0.0881
16312TIP3    H270428   2.995   5.891  11.608  0.1560 -0.5340 -0.2596
16313TIP3   OH270429   5.508   5.426   1.528  0.0262 -0.1399  0.0217
16313TIP3    H170430   5.457   5.506   1.537  0.6503  0.1329  1.4681
16313TIP3    H270431   5.553   5.435   1.444 -4.1887 -1.5778 -2.7050
16314TIP3   OH270432   2.447   4.436  13.839  0.3052  0.0354  0.1945
16314TIP3    H170433   2.467   4.466  13.750  1.3550  1.6654  0.9330
16314TIP3    H270434   2.521   4.381  13.862  1.4285  1.8071  1.0048
16315TIP3   OH270435   4.949   6.724  14.745  0.4203  0.0956 -0.1230
16315TIP3    H170436   4.950   6.818  14.760  2.2772 -0.1136  1.4544
16315TIP3    H270437   4.887   6.711  14.674 -1.1261  2.3238  0.7383
16316TIP3   OH270438   1.887   6.285  15.674  0.2671 -0.3583 -0.4555
16316TIP3    H170439   1.883   6.260  15.581  1.5109 -1.1491 -0.3270
16316TIP3    H270440   1.820   6.231  15.716  1.5649 -2.0967 -0.5027
16317TIP3   OH270441   4.008   0.977  12.362  0.1729  0.8724  0.0536
16317TIP3    H170442   4.076   0.911  12.345  0.1683  1.0366 -0.6233
16317TIP3    H270443   3.962   0.944  12.439 -0.7357 -0.6626 -1.0906
16318TIP3   OH270444   1.421   0.140   4.915  0.1607 -0.4231  0.2238
16318TIP3    H170445   1.413   0.188   4.833  0.0308 -0.9956 -0.1068
16318TIP3    H270446   1.509   0.102   4.912  0.6877  0.7095  0.9948
16319TIP3   OH270447   4.947   4.500  13.663 -0.0260 -0.4767  0.1697
16319TIP3    H170448   5.030   4.539  13.689 -0.9544  0.1242  2.4089
16319TIP3    H270449   4.882   4.538  13.722 -1.7607 -1.6441 -0.8839
16320TIP3   OH270450   3.072   6.228  16.818 -0.6355 -0.1742  0.3699
16320TIP3    H170451   3.143   6.289  16.800 -1.7589  2.2256  3.1977
16320TIP3    H270452   3.012   6.238  16.745  0.8429 -0.6507 -0.9814
16321TIP3   OH270453   4.436   2.464   3.506  0.3162 -0.5295 -0.6528
16321TIP3    H170454   4.451   2.370   3.493  0.3944 -0.5203 -0.6287
16321TIP3    H270455   4.484   2.485   3.587 -0.9605 -0.7904  0.2008
16322TIP3   OH270456   5.795   2.740  12.285  0.1431  0.1129 -0.4913
16322TIP3    H170457   5.738   2.791  12.227  0.7589  0.9864 -0.3407
16322TIP3    H270458   5.877   2.732  12.237  0.1291 -0.5621 -0.4163
16323TIP3   OH270459   5.260   6.470  14.566  0.4791  0.3622 -0.1595
16323TIP3    H170460   5.296   6.444  14.482  1.0936  0.6999 -0.0103
16323TIP3    H270461   5.230   6.560  14.553  1.2128  0.6608  0.1636
16324TIP3   OH270462   1.820   5.495  15.697  0.0095 -0.0005 -0.2696
16324TIP3    H170463   1.805   5.588  15.713 -0.7797 -0.4330  1.9654
16324TIP3    H270464   1.748   5.451  15.742  0.7787 -1.7364 -0.6221
16325TIP3   OH270465   3.080   6.198   4.530 -0.2672 -0.6613 -0.4639
16325TIP3    H170466   3.008   6.201   4.593 -0.5805  1.8149 -0.8444
16325TIP3    H270467   3.104   6.106   4.526 -1.2260 -1.1159  2.1338
16326TIP3   OH270468   6.224   4.080  15.735  0.3116  0.2737  0.0337
16326TIP3    H170469   6.205   4.171  15.711 -2.3228 -0.5696 -1.4935
16326TIP3    H270470   6.154   4.056  15.795  1.7253 -0.4202  1.4646
16327TIP3   OH270471   4.182   1.002  15.027  0.3213  0.4031  0.6199
16327TIP3    H170472   4.124   1.043  14.962 -1.0606 -0.5494  1.2012
16327TIP3    H270473   4.169   0.908  15.014  3.2013  0.0694 -0.5009
16328TIP3   OH270474   3.016   4.328   3.981  0.2066  0.1491 -0.0745
16328TIP3    H170475   2.998   4.281   4.062  1.3886 -0.5356 -0.1884
16328TIP3    H270476   3.103   4.364   3.993 -0.6243  2.2834 -0.0326
16329TIP3   OH270477   4.954   3.716  11.016 -0.3000 -0.3126 -0.2143
16329TIP3    H170478   4.991   3.666  10.944 -1.9461 -1.0253 -0.6203
16329TIP3    H270479   5.024   3.774  11.045  0.6042 -0.5129 -1.9257
16330TIP3   OH270480   5.072   4.504  15.075 -0.1674 -0.7371  0.3089
16330TIP3    H170481   5.098   4.468  15.159 -2.1579 -2.5438  0.2464
16330TIP3    H270482   5.095   4.437  15.011 -2.7080 -1.4449  0.0124
16331TIP3   OH270483   2.400   0.886  12.780  0.1058 -0.2426  0.4033
16331TIP3    H170484   2.318   0.840  12.767  0.2995 -0.3476 -0.5010
16331TIP3    H270485   2.404   0.949  12.708  0.6808 -0.0457  0.6012
16332TIP3   OH270486   0.102   1.509   1.143  0.3846  0.0223  0.3463
16332TIP3    H170487   0.161   1.561   1.089 -1.5169  2.5838  0.5807
16332TIP3    H270488   0.018   1.513   1.098 -0.4141 -0.7053  1.7082
16333TIP3   OH270489   6.152   0.694   0.883 -0.0584  0.0779  0.0862
16333TIP3    H170490   6.151   0.683   0.788  0.6108 -0.3038  0.1161
16333TIP3    H270491   6.110   0.779   0.897 -0.5736 -0.0647 -0.5127
16334TIP3   OH270492   2.281   3.914   3.159 -0.2342  0.4027 -1.3181
16334TIP3    H170493   2.208   3.854   3.176 -2.0977  2.0322 -2.9298
16334TIP3    H270494   2.326   3.922   3.243 -0.0995 -2.8643 -0.9335
16335TIP3   OH270495   5.185   1.779   0.627  0.3149 -0.0230 -0.3604
16335TIP3    H170496   5.196   1.694   0.669  1.2742 -0.4590 -1.4218
16335TIP3    H270497   5.119   1.824   0.679  1.9542 -0.2327  2.0305
16336TIP3   OH270498   0.754   2.177  11.754  0.2128  0.3575 -0.3976
16336TIP3    H170499   0.698   2.142  11.823  0.6178 -1.4192 -0.9211
16336TIP3    H270500   0.721   2.265  11.738  0.4854  1.0647  2.4570
16337TIP3   OH270501   5.609   2.544   5.456  0.4058  0.4993 -0.2774
16337TIP3    H170502   5.661   2.483   5.507 -1.7169  0.0076  1.4712
16337TIP3    H270503   5.567   2.490   5.389 -1.2944 -0.0366  1.1293
16338TIP3   OH270504   6.359   6.142   2.039 -0.5878 -0.4068 -0.2907
16338TIP3    H170505   6.440   6.193   2.050 -0.6117 -0.2686 -0.7510
16338TIP3    H270506   6.357   6.120   1.946 -0.1165 -2.0278  0.0571
16339TIP3   OH270507   6.283   0.435  16.923  0.4841 -0.0053 -0.4706
16339TIP3    H170508   6.290   0.508  16.985  1.0051 -2.2307  2.2963
16339TIP3    H270509   6.360   0.445  16.867  0.9515  1.1728  0.3262
16340TIP3   OH270510   4.587   0.308   1.035 -0.2279 -0.1319  0.1471
16340TIP3    H170511   4.675   0.301   1.072 -0.8710 -0.2553  1.7224
16340TIP3    H270512   4.544   0.376   1.087 -1.0719 -0.0644 -0.6006
16341TIP3   OH270513   1.096   3.221  14.501  0.3009 -0.1588  0.5453
16341TIP3    H170514   1.109   3.175  14.417  1.4848 -0.5402  0.9068
16341TIP3    H270515   1.168   3.189  14.556  0.3268  1.1033  1.2666
16342TIP3   OH270516   5.920   5.524  11.278 -0.4408  0.1337  0.7354
16342TIP3    H170517   5.964   5.609  11.274 -1.4941  0.6733  0.1268
16342TIP3    H270518   5.845   5.533  11.220 -0.3969 -1.3312  0.4122
16343TIP3   OH270519   1.711   6.809   1.018  0.3029 -0.3971  0.2044
16343TIP3    H170520   1.791   6.759   1.000  0.0072 -0.6222 -0.5229
16343TIP3    H270521   1.698   6.800   1.113  0.5907 -1.1933  0.1773
16344TIP3   OH270522   0.791   5.673  11.160  0.4575  0.4029 -0.0211
16344TIP3    H170523   0.853   5.709  11.097  1.3852  0.1610  0.7260
16344TIP3    H270524   0.745   5.604  11.112  0.5660  0.7628 -0.6573
16345TIP3   OH270525   2.380   2.298   4.968 -0.2379 -0.1627  0.0252
16345TIP3    H170526   2.323   2.294   5.045 -0.4598 -0.6017 -0.1566
16345TIP3    H270527   2.338   2.241   4.904 -1.1674  1.7736 -1.1866
16346TIP3   OH270528   1.798   2.310  12.077  0.2126 -0.6352  0.2415
16346TIP3    H170529   1.717   2.304  12.026  1.4377  0.4894 -1.9592
16346TIP3    H270530   1.790   2.392  12.126 -0.3194 -0.9797  0.7614
16347TIP3   OH270531   2.685   6.486  11.267 -0.1570  0.0152  0.0301
16347TIP3    H170532   2.771   6.517  11.237 -0.5199 -0.5734 -1.7030
16347TIP3    H270533   2.637   6.467  11.187 -1.7370 -0.1801  0.9882
16348TIP3   OH270534   0.333   2.635  11.201  0.0769  0.3014  0.6793
16348TIP3    H170535   0.364   2.547  11.179 -0.2364  0.0377  1.2697
16348TIP3    H270536   0.238   2.628  11.198  0.0554  0.8045  0.0491
16349TIP3   OH270537   1.576   5.123  16.054 -0.2506 -0.1931 -0.1141
16349TIP3    H170538   1.544   5.033  16.054 -0.5524 -0.1185  1.5942
16349TIP3    H270539   1.667   5.117  16.083 -0.7972  0.1474  1.8771
16350TIP3   OH270540   2.844   5.827  13.751  0.1710 -0.3992 -0.1413
16350TIP3    H170541   2.788   5.753  13.729 -2.9317  2.5530 -3.4690
16350TIP3    H270542   2.810   5.860  13.834 -0.5448 -0.8407 -0.2570
16351TIP3   OH270543   5.729   6.261  15.684  0.1708 -0.5522  0.2054
16351TIP3    H170544   5.773   6.340  15.717  1.2633 -0.4360 -1.3773
16351TIP3    H270545   5.752   6.193  15.746 -0.4491  0.2878  1.3835
16352TIP3   OH270546   6.491   6.227   3.980 -0.1001 -0.2712  0.4079
16352TIP3    H170547   6.538   6.258   3.902 -0.3783  1.3148  0.8490
16352TIP3    H270548   6.436   6.155   3.947 -0.3937  0.5201 -0.9156
16353TIP3   OH270549   4.316   1.233  11.500  0.3854  0.2966  0.2701
16353TIP3    H170550   4.316   1.149  11.545  0.1659  0.7518  1.1507
16353TIP3    H270551   4.378   1.287  11.550 -1.8310  1.6677  1.7407
16354TIP3   OH270552   1.071   1.641   5.792  0.2710 -0.4010 -0.1728
16354TIP3    H170553   1.068   1.585   5.870  0.2969 -0.8040 -0.4566
16354TIP3    H270554   0.992   1.618   5.744  0.4869 -0.4834 -0.4899
16355TIP3   OH270555   0.290   0.295  10.662  0.2358  0.4267  0.2196
16355TIP3    H170556   0.232   0.371  10.666 -0.5303 -0.0377 -1.0442
16355TIP3    H270557   0.378   0.330  10.671 -0.0009  1.6700 -1.7307
16356TIP3   OH270558   4.635   5.822   0.680  0.3655 -0.7418 -0.0361
16356TIP3    H170559   4.648   5.851   0.771  0.5621 -0.6346 -0.0998
16356TIP3    H270560   4.681   5.887   0.627 -0.7398 -0.1217 -0.2819
16357TIP3   OH270561   5.948   0.736  12.349  0.5781 -0.2083  0.3212
16357TIP3    H170562   6.005   0.792  12.400 -0.7220  2.9575 -1.4349
16357TIP3    H270563   5.861   0.773  12.360 -0.1122 -0.9175 -2.1417
16358TIP3   OH270564   1.673   0.912  16.810 -0.1306  0.4332 -0.2264
16358TIP3    H170565   1.723   0.849  16.862  1.7921  3.6036  2.0943
16358TIP3    H270566   1.728   0.929  16.734 -0.4961 -0.3078 -0.6801
16359TIP3   OH270567   5.437   3.990   5.206 -0.3154 -0.0660  0.2382
16359TIP3    H170568   5.467   4.080   5.218 -1.7295  0.3743  0.7247
16359TIP3    H270569   5.388   3.971   5.286 -1.9740 -0.4365 -0.8198
16360TIP3   OH270570   3.319   3.434  10.784 -0.0748  0.4139  0.0007
16360TIP3    H170571   3.340   3.468  10.697  1.3687  0.3477  0.3075
16360TIP3    H270572   3.400   3.442  10.834 -0.1925 -1.7099  0.6443
16361TIP3   OH270573   2.640   4.445  14.136 -0.4599 -0.1677 -0.4170
16361TIP3    H170574   2.576   4.388  14.177 -0.5834  0.4904  0.3258
16361TIP3    H270575   2.689   4.388  14.077  0.9771 -1.5687  2.0022
16362TIP3   OH270576   4.640   5.099  14.361  0.1713 -0.3704  0.7439
16362TIP3    H170577   4.600   5.047  14.291  0.2830 -0.1892  0.5412
16362TIP3    H270578   4.628   5.190  14.332 -0.9882 -0.2200  1.6094
16363TIP3   OH270579   3.354   6.694   3.538  0.4581 -0.2503  0.6621
16363TIP3    H170580   3.305   6.767   3.502  1.5317 -0.3880 -1.2300
16363TIP3    H270581   3.344   6.702   3.633 -0.2140  1.7839  0.4616
16364TIP3   OH270582   1.791   1.433   4.308  0.3255 -0.4705 -0.2216
16364TIP3    H170583   1.748   1.361   4.263 -2.9233 -0.7672  2.8789
16364TIP3    H270584   1.848   1.391   4.373  1.5815 -0.0930 -1.0276
16365TIP3   OH270585   1.842   5.390  14.055  0.5262  0.1834 -0.3585
16365TIP3    H170586   1.865   5.378  13.963 -2.5334 -1.1251 -1.0841
16365TIP3    H270587   1.851   5.303  14.094  0.9216  0.5476  0.3973
16366TIP3   OH270588   6.337   0.977   5.040  0.4436  0.1071 -0.4953
16366TIP3    H170589   6.411   0.971   5.100 -0.2902 -0.5479  0.3671
16366TIP3    H270590   6.261   0.991   5.096 -0.1439  0.3727 -1.3357
16367TIP3   OH270591   0.970   5.728  12.141 -0.3892  0.2050 -0.3070
16367TIP3    H170592   1.001   5.793  12.204 -0.1000 -0.1788 -0.0528
16367TIP3    H270593   0.913   5.778  12.081 -0.0015  0.7316 -0.2427
16368TIP3   OH270594   2.659   6.553  15.860 -0.4195 -0.5424 -0.1622
16368TIP3    H170595   2.721   6.501  15.911 -1.6707  0.1709  2.2253
16368TIP3    H270596   2.697   6.640  15.858 -0.7532 -0.3815  0.2847
16369TIP3   OH270597   5.866   2.250   1.500  0.1236  0.4423 -0.0151
16369TIP3    H170598   5.816   2.172   1.476  1.4131 -0.3721 -0.1875
16369TIP3    H270599   5.847   2.264   1.592 -0.7077  0.3825 -0.1721
16370TIP3   OH270600   1.676   4.789   3.986 -0.1748 -0.5081  0.0837
16370TIP3    H170601   1.734   4.841   4.042  1.6542 -2.9230  0.6424
16370TIP3    H270602   1.655   4.712   4.039 -0.9280 -1.4181 -1.4739
16371TIP3   OH270603   1.323   2.269  14.235 -0.7993  0.3651  0.3006
16371TIP3    H170604   1.299   2.329  14.163 -0.1163  0.3388  0.0464
16371TIP3    H270605   1.291   2.313  14.314 -1.0735  0.6516  0.0357
16372TIP3   OH270606   2.201   5.147   2.472  1.0193  0.1552 -0.6549
16372TIP3    H170607   2.183   5.227   2.423  1.0484  0.4956 -0.1222
16372TIP3    H270608   2.146   5.080   2.430 -1.8159  1.2003  1.0615
16373TIP3   OH270609   0.026   1.042   4.640 -0.2408  0.4773 -0.1954
16373TIP3    H170610   0.024   1.055   4.734 -0.3444 -0.2470 -0.0917
16373TIP3    H270611   0.113   1.006   4.623 -0.9373 -1.3796 -0.0865
16374TIP3   OH270612   4.415   0.657   0.072 -0.3054  0.6861 -0.0633
16374TIP3    H170613   4.492   0.683   0.020 -0.1935  1.2997  0.3912
16374TIP3    H270614   4.448   0.653   0.162 -0.0347 -2.2083 -0.2072
16375TIP3   OH270615   5.903   4.083   2.242  0.1576 -0.1294 -0.0852
16375TIP3    H170616   5.848   4.072   2.319 -0.2379 -0.3768 -0.3980
16375TIP3    H270617   5.937   3.996   2.224  0.8764  0.0712  0.2643
16376TIP3   OH270618   4.525   4.630   0.297  0.0687  0.1467 -0.1357
16376TIP3    H170619   4.511   4.633   0.392 -1.2646 -1.1959 -0.2465
16376TIP3    H270620   4.488   4.712   0.265  0.7498  0.7190  0.5144
16377TIP3   OH270621   0.477   1.560   6.167  0.8335  0.3620 -0.4954
16377TIP3    H170622   0.536   1.621   6.212  0.7388 -0.5320  0.9087
16377TIP3    H270623   0.434   1.511   6.238  0.4089 -0.8565 -1.5517
16378TIP3   OH270624   1.050   1.854  12.124 -0.5206 -0.0853 -0.5444
16378TIP3    H170625   1.125   1.897  12.084 -0.7852 -0.4385 -1.4267
16378TIP3    H270626   0.976   1.910  12.101 -0.6519 -0.2077 -0.4159
16379TIP3   OH270627   0.978   2.473  16.498 -0.1339  0.5656  0.4907
16379TIP3    H170628   0.905   2.505  16.445 -0.3729 -0.6505  0.0544
16379TIP3    H270629   1.047   2.539  16.487 -0.3160  0.5385 -1.0251
16380TIP3   OH270630   4.144   1.848  14.661  0.2215  0.5967  0.1375
16380TIP3    H170631   4.233   1.866  14.630  0.3138  2.0023  1.1415
16380TIP3    H270632   4.090   1.913  14.618 -0.0347  0.9264  0.9439
16381TIP3   OH270633   3.016   1.537  17.052 -0.2264 -0.1008  0.5795
16381TIP3    H170634   3.044   1.550  16.961  2.0842  0.3007  1.2953
16381TIP3    H270635   2.973   1.451  17.051  0.2885 -0.3753 -0.7654
16382TIP3   OH270636   1.793   3.650  14.315 -0.5735  0.0627  0.2052
16382TIP3    H170637   1.828   3.709  14.382 -0.5459  0.0352  0.2151
16382TIP3    H270638   1.868   3.629  14.260 -0.3740 -0.6991  0.7442
16383TIP3   OH270639   0.691   0.845  13.812 -0.2020  0.0648 -0.3641
16383TIP3    H170640   0.600   0.867  13.789 -0.6860 -0.6394  0.7715
16383TIP3    H270641   0.719   0.917  13.869  0.0732  0.4473 -0.9749
16384TIP3   OH270642   5.315   0.642   4.095 -0.0548 -0.5559 -0.7227
16384TIP3    H170643   5.280   0.694   4.023  1.3882 -0.7545 -1.6274
16384TIP3    H270644   5.396   0.605   4.060  0.8924 -0.3641  1.1420
16385TIP3   OH270645   2.599   4.081   0.641 -0.2242 -0.0584  0.0166
16385TIP3    H170646   2.553   4.050   0.562 -0.0913 -2.0172  0.6522
16385TIP3    H270647   2.690   4.091   0.613 -0.2177 -0.5430 -0.1567
16386TIP3   OH270648   4.512   5.812   0.411  0.3927  0.3567  0.3267
16386TIP3    H170649   4.501   5.814   0.506 -0.4309 -1.5046  0.2992
16386TIP3    H270650   4.493   5.902   0.383 -3.6945  0.0604  1.5056
16387TIP3   OH270651   0.682   3.685  12.454 -0.0899  0.0509 -0.2089
16387TIP3    H170652   0.709   3.770  12.419 -0.1512  0.5504  0.9467
16387TIP3    H270653   0.753   3.659  12.512 -0.5887 -0.1626  0.3150
16388TIP3   OH270654   5.058   0.996  11.693  0.1333 -0.4318 -0.2038
16388TIP3    H170655   5.058   0.910  11.652  0.4421  0.0222 -1.2063
16388TIP3    H270656   4.970   1.030  11.679  0.1283 -0.4284 -0.1649
16389TIP3   OH270657   0.457   4.668   1.131 -0.0545 -0.2402 -0.3857
16389TIP3    H170658   0.519   4.742   1.127 -1.5237  1.1466  1.0077
16389TIP3    H270659   0.412   4.671   1.047 -0.9615  1.3034  0.1104
16390TIP3   OH270660   1.324   2.660  10.823 -0.1545 -0.5752 -0.0486
16390TIP3    H170661   1.372   2.583  10.792  0.5759 -0.4489  0.7434
16390TIP3    H270662   1.342   2.664  10.916 -0.8810  0.0785  0.0772
16391TIP3   OH270663   2.365   2.797   2.500  0.5110 -0.3864  0.4072
16391TIP3    H170664   2.379   2.828   2.590  0.9153 -1.8888  0.8964
16391TIP3    H270665   2.453   2.792   2.463  0.3160  0.5954 -0.2250
16392TIP3   OH270666   2.470   3.629   4.787 -0.1819 -0.0166  0.1980
16392TIP3    H170667   2.533   3.642   4.717  0.5925 -1.7578  0.5261
16392TIP3    H270668   2.493   3.695   4.852 -1.3103  2.0526 -1.3779
16393TIP3   OH270669   4.541   6.234  15.903  0.3402  0.0597 -0.5230
16393TIP3    H170670   4.594   6.313  15.903  0.4887 -0.0131  0.7265
16393TIP3    H270671   4.596   6.168  15.946 -0.8189  0.0398  1.0051
16394TIP3   OH270672   5.351   4.722  15.650  0.5535  0.0344  0.2263
16394TIP3    H170673   5.266   4.734  15.691  0.5988  1.1681  0.0115
16394TIP3    H270674   5.331   4.694  15.560  0.4297 -0.5787  0.4406
16395TIP3   OH270675   4.450   6.182  13.864 -0.0201  1.1085 -0.0193
16395TIP3    H170676   4.403   6.163  13.782  1.1003  1.0446 -0.6713
16395TIP3    H270677   4.471   6.275  13.859 -0.3885  1.2146  0.4313
16396TIP3   OH270678   2.636   5.554  11.530 -0.1498  0.2813 -0.1119
16396TIP3    H170679   2.696   5.481  11.548 -0.8103  0.1822  1.9558
16396TIP3    H270680   2.672   5.595  11.451  0.9261 -1.5387 -0.6579
16397TIP3   OH270681   6.598   0.927  14.688  0.9116 -0.0419  0.2974
16397TIP3    H170682   6.654   1.002  14.707  0.7434 -0.0288  0.7557
16397TIP3    H270683   6.519   0.943  14.740  0.3100  0.1457 -0.6356
16398TIP3   OH270684   4.114   1.086   2.428 -0.1853  0.1949 -0.2114
16398TIP3    H170685   4.061   1.006   2.430  0.1843 -0.0745 -0.8587
16398TIP3    H270686   4.074   1.142   2.494  0.7036 -1.2483  1.6578
16399TIP3   OH270687   6.059   3.550  13.754  0.1252 -0.4099  0.6500
16399TIP3    H170688   6.021   3.462  13.749 -1.0927  0.1435 -0.7040
16399TIP3    H270689   6.055   3.572  13.847  2.5464 -2.6077  1.3929
16400TIP3   OH270690   6.602   0.666  17.075 -0.0894 -0.0381 -0.4933
16400TIP3    H170691   6.651   0.747  17.064 -1.9384  1.3390  0.6611
16400TIP3    H270692   6.643   0.623  17.150  1.1049 -0.3584 -1.3095
16401TIP3   OH270693   6.006   2.359   5.817  0.0826 -0.3552  0.2908
16401TIP3    H170694   5.929   2.415   5.822 -0.7732 -1.5968  2.2015
16401TIP3    H270695   6.065   2.404   5.757 -1.2130  1.7392  0.5044
16402TIP3   OH270696   2.540   2.868   6.342  0.6920  0.1373  0.3804
16402TIP3    H170697   2.528   2.932   6.412  1.5334  0.8318 -0.0905
16402TIP3    H270698   2.626   2.888   6.306  1.7124 -2.3258  1.2819
16403TIP3   OH270699   0.331   4.769   5.003 -0.6674 -0.0182  0.4009
16403TIP3    H170700   0.245   4.757   5.044 -1.0478  2.3694  0.4477
16403TIP3    H270701   0.314   4.820   4.924  0.6386 -0.1246  0.0217
16404TIP3   OH270702   5.367   3.110  14.012  0.1053 -0.1048  0.0825
16404TIP3    H170703   5.331   3.178  13.955  0.0139 -0.3906 -0.2061
16404TIP3    H270704   5.383   3.036  13.954 -1.1269 -0.8277  0.6109
16405TIP3   OH270705   0.686   3.132   4.160 -0.2044 -0.3815  0.7408
16405TIP3    H170706   0.631   3.075   4.107  1.2385 -1.0609 -0.0990
16405TIP3    H270707   0.636   3.146   4.241 -2.5285  0.7991 -0.7900
16406TIP3   OH270708   4.172   4.277  16.049  0.2074 -0.0534  0.5881
16406TIP3    H170709   4.233   4.204  16.036  0.4786  0.3066 -0.2614
16406TIP3    H270710   4.092   4.250  16.004 -0.4733 -0.7601  2.1696
16407TIP3   OH270711   0.609   2.704  14.283 -0.3121  0.1256  0.2087
16407TIP3    H170712   0.532   2.698  14.339 -0.1088 -1.4981  0.3657
16407TIP3    H270713   0.665   2.768  14.326 -1.1062  0.5428  0.6536
16408TIP3   OH270714   1.025   2.911  13.243 -0.2069  0.1598  0.3334
16408TIP3    H170715   1.046   2.978  13.307 -1.9961  0.1165  1.0407
16408TIP3    H270716   0.975   2.956  13.175 -2.8518 -0.6262  1.6174
16409TIP3   OH270717   0.647   6.235  13.360 -0.1724  0.1272 -0.1937
16409TIP3    H170718   0.631   6.140  13.361 -1.7076  0.3228 -1.8151
16409TIP3    H270719   0.688   6.252  13.276  1.2606  0.7774  0.6018
16410TIP3   OH270720   5.490   6.426  16.913 -0.5596 -0.3999 -0.1084
16410TIP3    H170721   5.539   6.346  16.930  0.9839  0.3059 -0.9471
16410TIP3    H270722   5.516   6.451  16.824 -4.4254 -1.3055 -1.6882
16411TIP3   OH270723   4.691   5.637  13.523  0.5069  0.0032  0.1871
16411TIP3    H170724   4.673   5.646  13.429 -0.3558  1.6254  0.4750
16411TIP3    H270725   4.787   5.637  13.529  0.5786  1.2333 -0.6028
16412TIP3   OH270726   5.632   3.462   5.197  0.5317  0.1496 -0.1650
16412TIP3    H170727   5.667   3.549   5.217 -0.7005  0.7622 -0.6112
16412TIP3    H270728   5.664   3.442   5.110  2.3074 -0.6503  0.6230
16413TIP3   OH270729   6.347   2.066   3.481 -0.2652 -0.3997  0.0731
16413TIP3    H170730   6.283   2.003   3.516  1.3721 -2.0847  0.2377
16413TIP3    H270731   6.418   2.011   3.448  0.2187  1.3318 -1.9528
16414TIP3   OH270732   3.433   4.961  17.212  0.2465 -0.4960 -0.3521
16414TIP3    H170733   3.396   4.932  17.295  0.3539 -1.0461 -0.4918
16414TIP3    H270734   3.363   5.012  17.171  0.5650  0.6794  0.5445
16415TIP3   OH270735   4.558   6.206  14.716  0.3804  0.2838 -0.1406
16415TIP3    H170736   4.583   6.199  14.808 -1.2622  1.8668  0.4920
16415TIP3    H270737   4.572   6.118  14.681 -0.6695 -0.8541  2.0841
16416TIP3   OH270738   3.370   5.126   4.648  0.3503  0.0010  0.0018
16416TIP3    H170739   3.352   5.207   4.696  0.3705 -0.2667  0.4630
16416TIP3    H270740   3.430   5.153   4.578  0.5953  0.3316  0.3351
16417TIP3   OH270741   4.040   6.171  13.981  0.1784 -0.5693  0.0229
16417TIP3    H170742   4.093   6.111  13.928  1.6381  0.5201  0.1736
16417TIP3    H270743   4.104   6.222  14.030 -0.8091  2.5991 -1.6879
16418TIP3   OH270744   3.253   6.162  11.865  0.6206 -0.4324  0.3430
16418TIP3    H170745   3.227   6.191  11.777  0.2928 -0.1611  0.5264
16418TIP3    H270746   3.334   6.113  11.851  2.1254  1.9420  0.1745
16419TIP3   OH270747   6.330   0.150  16.774 -0.0123  0.5477 -0.6760
16419TIP3    H170748   6.345   0.115  16.863 -0.3236  0.5653 -0.6153
16419TIP3    H270749   6.358   0.079  16.716 -0.2797  0.3428 -0.5576
16420TIP3   OH270750   0.184   6.819   1.999 -0.3771  0.5179 -0.4279
16420TIP3    H170751   0.238   6.759   2.050 -1.2397  0.0593 -0.0369
16420TIP3    H270752   0.219   6.906   2.020  1.6130  0.1416 -1.8620
16421TIP3   OH270753   0.366   2.839   2.568 -0.0488 -0.5787  0.4481
16421TIP3    H170754   0.349   2.889   2.489 -0.5763 -0.5697  0.5635
16421TIP3    H270755   0.306   2.875   2.633  0.8973 -0.0692  1.0787
16422TIP3   OH270756   3.943   5.663   0.813 -0.5339  0.0257  0.4768
16422TIP3    H170757   4.013   5.647   0.749  0.1984  2.8133  0.4651
16422TIP3    H270758   3.867   5.618   0.776  0.4317 -0.3325 -1.1944
16423TIP3   OH270759   3.387   0.331   2.271 -0.9663  0.1982  0.5528
16423TIP3    H170760   3.454   0.282   2.318 -2.4536 -1.2154  1.3058
16423TIP3    H270761   3.304   0.293   2.300 -2.0296  0.4192 -1.9414
16424TIP3   OH270762   5.277   2.549  15.830  0.0124  0.4428  0.2742
16424TIP3    H170763   5.284   2.505  15.745 -0.3666 -0.8914  0.9111
16424TIP3    H270764   5.359   2.599  15.838  0.4305 -0.0960 -0.5033
16425TIP3   OH270765   1.497   1.125   2.579 -0.1161  0.5441 -0.1442
16425TIP3    H170766   1.464   1.065   2.513  1.3018 -1.4060  0.8218
16425TIP3    H270767   1.541   1.194   2.529 -0.6553  0.1035 -1.2571
16426TIP3   OH270768   2.535   5.813   1.527 -0.7755  0.0318 -0.3804
16426TIP3    H170769   2.472   5.794   1.596  0.3245 -1.6733  0.2258
16426TIP3    H270770   2.531   5.736   1.469 -0.0927  0.4257 -0.9748
16427TIP3   OH270771   2.963   0.787   0.299 -0.5501  0.1032 -0.1457
16427TIP3    H170772   2.958   0.730   0.375 -0.0688 -1.1420 -1.0112
16427TIP3    H270773   3.021   0.858   0.325 -1.1588  0.2184  0.9526
16428TIP3   OH270774   2.693   0.350   1.446  0.0636  0.2312  0.3383
16428TIP3    H170775   2.671   0.408   1.519 -0.6464 -0.9660  1.1089
16428TIP3    H270776   2.627   0.369   1.379  0.2599  0.7961  0.3012
16429TIP3   OH270777   6.374   3.536   2.710 -0.1883 -0.2028  0.1730
16429TIP3    H170778   6.391   3.445   2.688  2.0545  0.7220 -2.7151
16429TIP3    H270779   6.310   3.565   2.645  0.3494  0.6393 -0.0028
16430TIP3   OH270780   3.148   5.271  16.494 -0.0773  0.6927 -0.0531
16430TIP3    H170781   3.211   5.340  16.473 -0.3400  0.7235 -0.7625
16430TIP3    H270782   3.064   5.317  16.497 -0.3788  0.2531 -1.4298
16431TIP3   OH270783   2.339   0.634  14.597  0.1926  0.0290 -0.3179
16431TIP3    H170784   2.376   0.618  14.684  1.3946 -2.0337 -1.1462
16431TIP3    H270785   2.277   0.705  14.611 -0.0506 -0.5879  2.3208
16432TIP3   OH270786   2.076   3.082   0.832 -0.0033  0.0598 -0.3597
16432TIP3    H170787   2.143   3.050   0.771 -1.5102 -1.1819 -1.4379
16432TIP3    H270788   2.003   3.021   0.822 -1.1793  1.1562  1.0492
16433TIP3   OH270789   5.517   1.327  13.516  0.2980  0.3521 -0.0619
16433TIP3    H170790   5.530   1.421  13.528  2.2809  0.3402 -1.5877
16433TIP3    H270791   5.577   1.287  13.579 -0.2717  0.0947  0.3242
16434TIP3   OH270792   3.316   3.105  11.171 -0.5040  0.0367  0.0566
16434TIP3    H170793   3.362   3.166  11.114  0.5151 -0.5493  0.2219
16434TIP3    H270794   3.298   3.029  11.116 -0.3630 -0.1435  0.2538
16435TIP3   OH270795   0.091   0.234   5.855  0.1081  0.2806  0.1192
16435TIP3    H170796   0.165   0.228   5.915 -0.2039 -1.8543  0.3653
16435TIP3    H270797   0.048   0.316   5.879  1.4178  0.7091  1.1219
16436TIP3   OH270798   4.816   2.812  14.269 -0.1241 -0.4783  0.0688
16436TIP3    H170799   4.721   2.818  14.279 -0.3123  2.9433 -2.2935
16436TIP3    H270800   4.851   2.886  14.319  1.4498 -2.0502  1.4543
16437TIP3   OH270801   6.500   4.078  17.031 -0.5590  0.3732 -0.0007
16437TIP3    H170802   6.517   4.054  17.122 -2.0185  2.1325  0.8218
16437TIP3    H270803   6.543   4.163  17.020  1.0966 -0.5940 -1.5541
16438TIP3   OH270804   1.262   0.025   1.197 -0.1697 -0.5977 -0.1879
16438TIP3    H170805   1.200   0.086   1.156  2.2145  2.8697  0.9918
16438TIP3    H270806   1.321   0.001   1.126 -1.7775 -2.6730 -0.9388
16439TIP3   OH270807   4.014   1.263   2.660 -0.0303 -0.2373  0.1086
16439TIP3    H170808   3.946   1.196   2.659 -0.2327 -0.0328 -0.0692
16439TIP3    H270809   3.967   1.344   2.639  0.1045  0.0512  0.8827
16440TIP3   OH270810   4.632   1.633  14.631 -0.2023  0.2726 -0.4536
16440TIP3    H170811   4.682   1.673  14.561  0.5443  1.2984  0.6332
16440TIP3    H270812   4.552   1.685  14.636  0.0313  0.6030 -0.1277
16441TIP3   OH270813   0.183   4.396  13.609  0.2669 -0.0361  0.1518
16441TIP3    H170814   0.210   4.446  13.686  0.0037 -0.9493  0.8513
16441TIP3    H270815   0.105   4.348  13.637  0.1411 -0.3426 -0.6969
16442TIP3   OH270816   5.592   2.487  15.474 -0.3209  0.3503 -0.0740
16442TIP3    H170817   5.559   2.452  15.557  1.5193 -0.7620  0.2495
16442TIP3    H270818   5.559   2.577  15.472 -1.0269  0.1765  1.5076
16443TIP3   OH270819   4.718   6.373   2.956  0.2644  0.4709  0.5067
16443TIP3    H170820   4.737   6.400   3.046 -0.2257  0.9312  0.4736
16443TIP3    H270821   4.632   6.410   2.937 -0.5930 -1.4013  0.5668
16444TIP3   OH270822   0.843   6.794  12.999 -0.2300  0.5232  0.0434
16444TIP3    H170823   0.802   6.749  13.073 -0.9948 -0.8408 -1.1485
16444TIP3    H270824   0.928   6.751  12.989 -0.9133 -0.6793 -1.0226
16445TIP3   OH270825   0.153   6.828   4.346 -0.7852 -0.6665 -0.1240
16445TIP3    H170826   0.231   6.857   4.393  0.8375 -2.2549 -1.6499
16445TIP3    H270827   0.160   6.872   4.261 -3.1823  1.4550  0.6587
16446TIP3   OH270828   6.527   5.363  12.611  0.4740  0.3327 -0.3153
16446TIP3    H170829   6.519   5.273  12.642  1.7489  0.3250  0.0528
16446TIP3    H270830   6.555   5.413  12.688 -2.1886  1.4592  0.0102
16447TIP3   OH270831   0.498   1.969  16.309 -0.2020  0.0438  0.6414
16447TIP3    H170832   0.534   1.894  16.260 -2.2151 -0.5653 -0.0242
16447TIP3    H270833   0.550   1.972  16.389  2.8810  0.7494 -1.2105
16448TIP3   OH270834   2.613   6.119  15.390  0.3591 -0.1101  0.3287
16448TIP3    H170835   2.565   6.196  15.422  1.1355  0.7683 -0.5369
16448TIP3    H270836   2.579   6.046  15.442 -3.4725  0.0271 -1.5888
16449TIP3   OH270837   1.138   2.600   0.655  0.2691  0.1518 -0.0378
16449TIP3    H170838   1.114   2.543   0.729 -0.8700  0.6367 -0.0170
16449TIP3    H270839   1.134   2.689   0.691 -0.3110  0.3942 -0.6789
16450TIP3   OH270840   2.679   0.309  14.256 -0.3192  0.1269  0.2811
16450TIP3    H170841   2.721   0.383  14.300 -0.6317  0.5170 -0.0770
16450TIP3    H270842   2.718   0.232  14.298  0.0759  0.4878  0.5913
16451TIP3   OH270843   4.320   4.091   0.908  0.3906 -0.6000  0.1673
16451TIP3    H170844   4.264   4.155   0.952 -0.8915 -1.3067 -0.3750
16451TIP3    H270845   4.288   4.006   0.937  1.5555 -1.0344  0.2616
16452TIP3   OH270846   2.705   3.746  13.152 -0.3259  0.4867  0.7172
16452TIP3    H170847   2.664   3.725  13.236 -1.4932  1.7126  0.4811
16452TIP3    H270848   2.795   3.770  13.175 -0.0200 -1.1636  1.3659
16453TIP3   OH270849   6.156   4.951   5.053 -0.6268  0.0663  0.1678
16453TIP3    H170850   6.174   4.875   4.999  0.1930  0.2429  0.1805
16453TIP3    H270851   6.062   4.964   5.046 -1.0689 -1.9406  1.4656
16454TIP3   OH270852   3.594   0.514   2.209  0.5622  0.8432  0.0678
16454TIP3    H170853   3.539   0.438   2.191  1.3510  0.6537 -1.8141
16454TIP3    H270854   3.623   0.503   2.300 -0.7855 -0.1280  0.4030
16455TIP3   OH270855   4.954   6.582   1.200  0.1434 -0.1618  0.4308
16455TIP3    H170856   4.930   6.545   1.115  2.2450  2.4827 -1.4943
16455TIP3    H270857   4.992   6.509   1.248  1.7426 -1.1607 -2.1414
16456TIP3   OH270858   1.517   3.598   4.646  0.5886  0.0825  0.0238
16456TIP3    H170859   1.549   3.521   4.694  0.1640 -0.1682 -0.0888
16456TIP3    H270860   1.431   3.571   4.612  1.2228 -0.0582 -1.5945
16457TIP3   OH270861   0.351   5.161   1.732  0.0666  0.3731 -0.5246
16457TIP3    H170862   0.302   5.093   1.779 -0.7781  0.4240 -1.2931
16457TIP3    H270863   0.289   5.194   1.667  1.0693  0.5806 -1.4075
16458TIP3   OH270864   6.436   2.211  12.650  0.3054  0.1944  0.2862
16458TIP3    H170865   6.448   2.119  12.673 -1.9844 -0.1277  0.3958
16458TIP3    H270866   6.451   2.258  12.732  0.5863 -0.1502  0.4373
16459TIP3   OH270867   3.124   2.739  14.066 -0.6366  0.5409 -0.2270
16459TIP3    H170868   3.178   2.768  14.139  0.3562  0.2307 -0.8241
16459TIP3    H270869   3.088   2.820  14.029  0.2499  0.8400 -0.4512
16460TIP3   OH270870   6.402   1.082  15.425 -0.0652 -0.0106 -0.4851
16460TIP3    H170871   6.371   1.004  15.380  1.1863 -0.0427 -1.3549
16460TIP3    H270872   6.323   1.123  15.460 -1.2600  0.4722 -3.4646
16461TIP3   OH270873   0.281   1.615   5.988  0.3175  0.1756 -0.6229
16461TIP3    H170874   0.328   1.644   5.910  0.4908 -2.2889 -1.5100
16461TIP3    H270875   0.349   1.608   6.056  0.3028  1.5177 -0.4363
16462TIP3   OH270876   2.904   3.345   4.192  0.9271  0.5797 -0.9114
16462TIP3    H170877   2.871   3.363   4.280 -1.3970 -1.9819 -1.1123
16462TIP3    H270878   2.976   3.284   4.205 -0.9142 -1.6971 -0.7455
16463TIP3   OH270879   4.681   0.529   3.331 -0.6635  0.0515  0.4118
16463TIP3    H170880   4.656   0.440   3.303  1.9160 -0.6009 -0.0770
16463TIP3    H270881   4.664   0.529   3.426 -0.3878 -1.0970  0.4834
16464TIP3   OH270882   1.839   3.695  14.798  0.1226  0.4215  0.6333
16464TIP3    H170883   1.790   3.626  14.841  2.6376 -2.2454 -0.4814
16464TIP3    H270884   1.889   3.737  14.868  0.7726 -0.8804  0.9753
16465TIP3   OH270885   2.326   1.508   4.499  0.1309 -0.0446  0.4905
16465TIP3    H170886   2.240   1.495   4.459  0.1067  0.9150  0.1981
16465TIP3    H270887   2.375   1.560   4.434  0.0346  1.6905  1.7265
16466TIP3   OH270888   6.114   1.084   1.305  0.2740 -0.1177 -0.1812
16466TIP3    H170889   6.203   1.060   1.333  0.8056  2.5033  0.6818
16466TIP3    H270890   6.070   1.112   1.386 -1.4536 -1.5335 -0.5675
16467TIP3   OH270891   3.259   6.077   1.451 -0.1623 -0.7938 -0.5579
16467TIP3    H170892   3.280   6.098   1.361  1.1785 -0.0795 -0.1040
16467TIP3    H270893   3.269   6.159   1.499 -1.9727 -0.8906  0.0818
16468TIP3   OH270894   5.986   1.779  14.387 -0.6330  0.3061 -0.3990
16468TIP3    H170895   5.937   1.728  14.452  0.4263  1.3511  1.2952
16468TIP3    H270896   6.064   1.725  14.369 -0.0287  0.8094  0.6091
16469TIP3   OH270897   0.652   5.190  16.897  0.0006  0.1923  0.3203
16469TIP3    H170898   0.730   5.138  16.915 -0.9914 -1.5587 -0.1765
16469TIP3    H270899   0.657   5.263  16.959  1.4329 -0.5028  1.0815
16470TIP3   OH270900   6.485   6.819   5.291  0.2041 -0.3022  0.3858
16470TIP3    H170901   6.484   6.853   5.202 -0.3431  1.0197  0.8864
16470TIP3    H270902   6.532   6.735   5.284  2.7484  1.1022 -0.6792
16471TIP3   OH270903   2.697   3.015  16.781 -0.0658  0.0092  0.4389
16471TIP3    H170904   2.649   2.954  16.725 -0.3805  1.4430 -0.9148
16471TIP3    H270905   2.636   3.033  16.853 -1.7246  1.8717 -1.2927
16472TIP3   OH270906   0.273   0.971   2.009 -0.2978 -0.3088 -0.0677
16472TIP3    H170907   0.192   1.014   1.983  0.8251  1.8937 -0.0929
16472TIP3    H270908   0.329   0.973   1.931  0.3005 -0.5262  0.3413
16473TIP3   OH270909   6.747   1.223   4.467 -0.6585  0.3329 -0.0117
16473TIP3    H170910   6.777   1.198   4.379 -0.1451 -0.6821  0.4308
16473TIP3    H270911   6.778   1.152   4.524 -1.6635  0.5800  0.8773
16474TIP3   OH270912   4.348   2.233   1.197  0.4387 -0.1895  0.9496
16474TIP3    H170913   4.288   2.205   1.266  0.2376 -0.7439  0.5565
16474TIP3    H270914   4.297   2.292   1.142 -0.2703 -1.9261 -0.3217
16475TIP3   OH270915   4.039   1.940  17.071 -0.4257 -0.2719  0.1845
16475TIP3    H170916   4.094   1.949  17.149  1.3310  0.6382 -1.0910
16475TIP3    H270917   4.051   1.849  17.044  0.4464 -0.1000 -0.0447
16476TIP3   OH270918   4.409   5.889  16.613  0.0941 -0.4440  0.2826
16476TIP3    H170919   4.377   5.979  16.620  2.1466  0.2999  0.7321
16476TIP3    H270920   4.338   5.842  16.569 -0.4720  1.6742 -1.2332
16477TIP3   OH270921   5.228   4.705   1.223  0.7577 -0.0342 -0.4919
16477TIP3    H170922   5.244   4.793   1.189  0.5631 -0.1071 -0.7691
16477TIP3    H270923   5.276   4.702   1.306 -0.3218  0.8080  0.2018
16478TIP3   OH270924   3.793   6.211  15.125 -0.2756  0.2087  0.7108
16478TIP3    H170925   3.706   6.246  15.106 -0.8284 -0.8468  1.2307
16478TIP3    H270926   3.793   6.123  15.088  0.2931 -0.0851  1.3772
16479TIP3   OH270927   6.668   1.610   5.900 -0.3431  0.1576  0.1633
16479TIP3    H170928   6.647   1.524   5.864 -1.5353  0.5335 -0.0995
16479TIP3    H270929   6.643   1.671   5.831  2.3854  0.6617 -0.4866
16480TIP3   OH270930   3.503   5.991   1.209 -0.2080  0.1494  0.0088
16480TIP3    H170931   3.554   5.996   1.129 -0.0274  1.4738  0.1884
16480TIP3    H270932   3.554   5.935   1.267 -1.0207 -2.0566 -1.2429
16481TIP3   OH270933   0.673   1.260   4.258  0.1314  0.0142  0.4056
16481TIP3    H170934   0.638   1.184   4.211 -0.4403 -0.5303  1.6568
16481TIP3    H270935   0.633   1.335   4.214  1.1195 -0.3508 -1.1922
16482TIP3   OH270936   6.237   6.384  15.199  0.0223 -0.5597 -0.3888
16482TIP3    H170937   6.312   6.348  15.153  1.9459  4.2815 -1.6298
16482TIP3    H270938   6.172   6.401  15.131 -0.5790 -1.0345  0.0537
16483TIP3   OH270939   2.812   1.772  15.531 -0.0497 -0.1743  0.3671
16483TIP3    H170940   2.791   1.769  15.625 -0.7286  2.5338  0.3974
16483TIP3    H270941   2.904   1.796  15.528  0.1411 -0.9150  0.3390
16484TIP3   OH270942   3.178   1.717   1.566  0.4840 -0.6031  0.0622
16484TIP3    H170943   3.145   1.665   1.639  1.3585  1.8849  2.3615
16484TIP3    H270944   3.271   1.727   1.584  0.3007  1.9581 -0.1011
16485TIP3   OH270945   5.687   3.722   0.156  0.8071 -0.1244 -0.7493
16485TIP3    H170946   5.665   3.632   0.180  1.4659  0.1882  1.1666
16485TIP3    H270947   5.728   3.715   0.070 -2.2386 -1.2370 -2.2670
16486TIP3   OH270948   1.622   0.639  11.985  0.1610  0.1671  0.0013
16486TIP3    H170949   1.641   0.611  11.896 -1.1114  0.1229 -0.2681
16486TIP3    H270950   1.617   0.735  11.980 -1.3847  0.0940 -0.3017
16487TIP3   OH270951   3.419   0.532  12.807  0.1287  0.4934 -0.4955
16487TIP3    H170952   3.485   0.527  12.876  0.2413  0.8655 -0.5745
16487TIP3    H270953   3.426   0.448  12.761 -0.1056  0.1477  0.0842
16488TIP3   OH270954   3.998   4.502   5.984  0.6617 -0.1104  0.2419
16488TIP3    H170955   3.941   4.502   6.061  0.6634 -2.3848  0.3014
16488TIP3    H270956   3.971   4.426   5.933  0.8474  1.1838 -1.9118
16489TIP3   OH270957   5.996   0.063   0.528  0.5219 -0.5653  0.0880
16489TIP3    H170958   6.020   0.155   0.522 -1.1879 -0.1440 -1.1931
16489TIP3    H270959   6.063   0.017   0.477  1.1665  0.0035  0.4071
16490TIP3   OH270960   5.252   5.219  15.152  0.1542  0.1263 -0.0026
16490TIP3    H170961   5.309   5.269  15.209  0.9499 -0.9154  0.1461
16490TIP3    H270962   5.277   5.245  15.064  0.7702 -0.2058  0.0659
16491TIP3   OH270963   0.381   3.284   4.254 -0.3758 -0.5798  0.3099
16491TIP3    H170964   0.443   3.356   4.239  0.0488 -0.9169  0.4172
16491TIP3    H270965   0.435   3.213   4.289 -0.3716 -1.7211 -1.8276
16492TIP3   OH270966   1.501   6.568  11.713  0.0834  0.1936  0.1560
16492TIP3    H170967   1.533   6.529  11.795 -2.8066  0.4389  1.5052
16492TIP3    H270968   1.576   6.617  11.679  1.6182 -0.5992  2.1996
16493TIP3   OH270969   2.013   1.361  12.993 -0.0255  0.1192 -0.3993
16493TIP3    H170970   2.091   1.395  13.037  0.2853 -1.0951  0.0541
16493TIP3    H270971   1.996   1.422  12.921  0.4872  1.1852  0.3624
16494TIP3   OH270972   5.471   4.646  10.686 -0.4352  0.0546  0.0004
16494TIP3    H170973   5.563   4.662  10.664 -0.0700  0.0608  1.4474
16494TIP3    H270974   5.423   4.717  10.642  0.5307  1.5374  1.2279
16495TIP3   OH270975   5.575   2.251   0.117  0.2981 -0.2671 -0.0576
16495TIP3    H170976   5.655   2.302   0.133 -0.1492  0.2882  0.4457
16495TIP3    H270977   5.599   2.162   0.141  0.9305 -0.2116 -0.4365
16496TIP3   OH270978   6.794   2.706  13.864 -0.3056 -0.0099 -0.2057
16496TIP3    H170979   6.859   2.690  13.932 -0.6039 -0.5504 -0.0398
16496TIP3    H270980   6.710   2.700  13.910 -0.5676 -1.4740 -0.8057
16497TIP3   OH270981   2.099   5.483   4.096  0.0967  0.5110 -0.4674
16497TIP3    H170982   2.068   5.570   4.123 -0.2199  0.4560 -0.6461
16497TIP3    H270983   2.058   5.469   4.010 -0.8004 -0.3065  0.0745
16498TIP3   OH270984   1.171   1.561  15.500 -0.1784 -0.0625 -0.0642
16498TIP3    H170985   1.132   1.619  15.434 -1.2423 -1.4539 -0.7021
16498TIP3    H270986   1.096   1.529  15.551  0.1130 -2.4478 -1.0360
16499TIP3   OH270987   1.859   2.506  14.964  0.3177  0.2949 -0.6829
16499TIP3    H170988   1.872   2.417  14.999 -2.8315  0.0371  0.1185
16499TIP3    H270989   1.820   2.492  14.878  1.9406  0.9548 -1.5554
16500TIP3   OH270990   0.089   1.582  14.853  0.5432  0.5103 -0.3955
16500TIP3    H170991   0.130   1.626  14.778 -0.5955  0.1598 -1.2595
16500TIP3    H270992   0.109   1.638  14.928  0.6654  1.5311 -1.1632
16501TIP3   OH270993   5.938   3.500  17.216 -0.1099  0.5516  0.1792
16501TIP3    H170994   5.937   3.595  17.229 -0.2368  0.6946 -0.7958
16501TIP3    H270995   5.911   3.464  17.301  0.2379  1.3669  0.6521
16502TIP3   OH270996   0.056   3.416   1.775 -0.3826 -0.0620 -0.3239
16502TIP3    H170997   0.020   3.480   1.713  0.0399  0.0626 -0.4453
16502TIP3    H270998   0.121   3.466   1.825  0.5870 -0.6039 -1.0113
16503TIP3   OH270999   4.751   2.769   0.906  0.7213 -0.0647  0.1424
16503TIP3    H171000   4.844   2.786   0.894  1.2269 -1.8248  1.2327
16503TIP3    H271001   4.743   2.674   0.902 -0.9761  0.0371  0.4422
16504TIP3   OH271002   2.396   3.229   0.430 -0.3041 -0.3078  0.0080
16504TIP3    H171003   2.359   3.184   0.355  0.5765 -2.0456  0.5665
16504TIP3    H271004   2.411   3.160   0.495  0.7681  0.8480  1.0508
16505TIP3   OH271005   4.961   0.455  16.732  0.9382 -0.0710 -0.6780
16505TIP3    H171006   4.936   0.462  16.640 -1.5587  1.8383  0.0359
16505TIP3    H271007   4.907   0.384  16.767  1.0960 -0.0819 -0.4483
16506TIP3   OH271008   2.267   5.340   4.247 -0.6872  0.2617 -0.2282
16506TIP3    H171009   2.204   5.365   4.179  0.5461  0.8961 -1.1893
16506TIP3    H271010   2.317   5.420   4.263 -1.4462  0.3612  2.0507
16507TIP3   OH271011   2.319   1.072   4.237 -0.1918 -0.2786  0.3158
16507TIP3    H171012   2.263   1.099   4.165  1.1255 -0.6453 -0.8855
16507TIP3    H271013   2.398   1.126   4.228  1.1126 -2.1560 -0.1744
16508TIP3   OH271014   2.763   2.744  11.651 -0.5459  0.3563 -0.5941
16508TIP3    H171015   2.717   2.707  11.726  0.5295 -1.6369 -0.8554
16508TIP3    H271016   2.693   2.777  11.594 -1.4316  0.6645  0.6145
16509TIP3   OH271017   4.299   2.568   4.306  0.1295 -0.2889 -0.4995
16509TIP3    H171018   4.344   2.550   4.224  0.7568 -2.3320  0.2211
16509TIP3    H271019   4.213   2.526   4.296 -0.0785  0.0955 -0.3680
16510TIP3   OH271020   1.377   4.017   4.079  0.1136 -0.7560 -0.2628
16510TIP3    H171021   1.372   3.974   3.993  0.1722 -1.0057 -0.1418
16510TIP3    H271022   1.448   3.972   4.124 -0.3037 -1.0138  0.1373
16511TIP3   OH271023   1.174   0.117  13.221 -0.3024 -0.7145 -0.6209
16511TIP3    H171024   1.088   0.156  13.209  0.5660  1.1043 -1.3533
16511TIP3    H271025   1.185   0.059  13.145 -0.5144 -0.2518 -1.0049
16512TIP3   OH271026   6.681   2.378  12.013 -0.2625  0.2001 -0.5021
16512TIP3    H171027   6.773   2.350  12.008 -0.2661 -0.0011  0.4034
16512TIP3    H271028   6.673   2.417  12.100 -1.1573 -0.2240 -0.3862
16513TIP3   OH271029   1.836   0.804   5.916 -0.3869 -0.1929 -0.0609
16513TIP3    H171030   1.869   0.810   6.006 -0.7821  1.5575  0.0178
16513TIP3    H271031   1.905   0.760   5.868  0.0955 -0.6153  0.9838
16514TIP3   OH271032   5.801   6.150  13.611  0.9222 -0.7703 -1.1162
16514TIP3    H171033   5.715   6.178  13.645  0.2463 -2.2352 -1.5341
16514TIP3    H271034   5.807   6.191  13.525  0.0676 -1.6369 -1.6067
16515TIP3   OH271035   2.277   3.161   1.408 -0.6163  0.0071 -0.0708
16515TIP3    H171036   2.339   3.190   1.475  1.1723 -0.5781 -1.3947
16515TIP3    H271037   2.198   3.138   1.457  0.7098 -0.6719  1.8673
16516TIP3   OH271038   2.958   0.693  16.181  0.1800  0.6897 -0.0975
16516TIP3    H171039   3.037   0.673  16.232 -0.0904 -0.0099  0.0614
16516TIP3    H271040   2.893   0.628  16.211 -0.1044  0.5218 -1.0533
16517TIP3   OH271041   5.744   5.898  13.531  0.5305  0.4796 -0.4513
16517TIP3    H171042   5.810   5.856  13.476 -0.6631 -0.3169 -1.3431
16517TIP3    H271043   5.783   5.982  13.555  1.9825 -0.0898 -0.6795
16518TIP3   OH271044   2.023   5.860  16.748  0.3133 -0.4114 -0.6614
16518TIP3    H171045   1.971   5.826  16.675 -1.7853 -0.0626  0.5655
16518TIP3    H271046   2.065   5.938  16.713 -0.2424 -0.5323 -1.6387
16519TIP3   OH271047   5.275   6.684   2.144 -0.1784  0.0175  0.0612
16519TIP3    H171048   5.303   6.647   2.060 -0.8777  2.5030 -1.3818
16519TIP3    H271049   5.215   6.618   2.180 -0.0396 -1.0242 -1.4967
16520TIP3   OH271050   5.376   5.844  14.357  0.8935 -0.3986 -0.1708
16520TIP3    H171051   5.381   5.925  14.307  0.2059 -0.0827  0.2499
16520TIP3    H271052   5.467   5.816  14.367  0.9761 -1.8844 -3.7678
16521TIP3   OH271053   2.609   2.321  16.246 -0.9400 -0.1990  0.0416
16521TIP3    H171054   2.682   2.262  16.268 -0.5434 -0.3242 -1.5402
16521TIP3    H271055   2.566   2.280  16.172 -1.5978  0.7473 -0.1179
16522TIP3   OH271056   2.249   0.222  15.178  0.2947 -0.2833  0.2312
16522TIP3    H171057   2.241   0.137  15.135  0.1570  0.0621 -0.4453
16522TIP3    H271058   2.189   0.279  15.129  1.0760  0.4296  0.0836
16523TIP3   OH271059   1.800   2.639   1.616  0.4282 -0.1617 -0.2748
16523TIP3    H171060   1.884   2.683   1.615  0.4670 -0.2404 -0.4425
16523TIP3    H271061   1.821   2.546   1.606  0.3524 -0.2279  0.1587
16524TIP3   OH271062   3.272   3.761  11.261  0.3477 -0.3954  1.5094
16524TIP3    H171063   3.199   3.704  11.286 -0.4073 -0.1085  0.0336
16524TIP3    H271064   3.251   3.846  11.301 -0.5641 -0.0949  0.4487
16525TIP3   OH271065   6.137   5.081   0.640  0.1724  0.0039 -0.2212
16525TIP3    H171066   6.180   4.996   0.638 -1.2967 -0.7903 -0.0363
16525TIP3    H271067   6.095   5.084   0.727  1.1147  1.4071  0.2195
16526TIP3   OH271068   1.274   0.340   5.888  0.0534  0.3453 -0.7948
16526TIP3    H171069   1.212   0.412   5.874 -2.1010 -0.7910  1.8823
16526TIP3    H271070   1.341   0.378   5.945 -0.9853  0.3420  0.4765
16527TIP3   OH271071   3.346   2.916  15.414  0.1056 -0.5976 -0.4170
16527TIP3    H171072   3.354   3.011  15.425  2.3259 -1.0145  2.9025
16527TIP3    H271073   3.436   2.885  15.406 -0.4390 -2.5755  0.6523
16528TIP3   OH271074   3.884   1.261  12.397 -0.3986 -0.2690  0.2051
16528TIP3    H171075   3.886   1.171  12.432  0.1156  0.0020  0.9054
16528TIP3    H271076   3.926   1.254  12.311 -1.2570 -0.8681 -0.1797
16529TIP3   OH271077   1.923   2.762  12.643 -0.5386  0.0804 -0.5167
16529TIP3    H171078   1.838   2.771  12.600 -0.8049  1.9833  0.3110
16529TIP3    H271079   1.971   2.841  12.618 -0.0548  0.3791  1.2170
16530TIP3   OH271080   5.046   6.318  16.399 -0.2759  0.3540  0.3646
16530TIP3    H171081   4.988   6.374  16.349 -1.1122  0.1372  1.0719
16530TIP3    H271082   5.134   6.354  16.384 -0.9160  2.9313  2.1449
16531TIP3   OH271083   5.945   3.539   2.052  0.4834  0.1319 -0.0439
16531TIP3    H171084   5.970   3.560   1.962  1.5196 -0.4643  0.0945
16531TIP3    H271085   5.948   3.443   2.055  2.4521  0.1949  1.1723
16532TIP3   OH271086   1.661   6.028  13.697 -0.5908  0.2012 -0.4162
16532TIP3    H171087   1.747   6.031  13.656 -0.6789  0.5379 -0.5758
16532TIP3    H271088   1.670   5.962  13.766  0.5843  2.1863  1.4172
16533TIP3   OH271089   6.375   0.076  13.856  0.3853 -0.1282  0.7137
16533TIP3    H171090   6.311   0.014  13.890  0.6604 -0.7943  0.0398
16533TIP3    H271091   6.340   0.162  13.879 -0.4668 -0.5019  0.8473
16534TIP3   OH271092   5.987   1.257  15.335  0.0463  0.3126  0.2547
16534TIP3    H171093   6.012   1.208  15.257 -2.1207  2.0967 -1.6938
16534TIP3    H271094   6.061   1.317  15.351 -0.0058  0.7812 -1.1836
16535TIP3   OH271095   3.433   6.174   4.025  0.3436  0.1982  0.1733
16535TIP3    H171096   3.345   6.146   4.050  0.4984  0.2831  0.8251
16535TIP3    H271097   3.486   6.095   4.027  0.4081  0.2467  0.3300
16536TIP3   OH271098   0.093   5.699  16.211  0.2771  0.0074 -0.0784
16536TIP3    H171099   0.105   5.792  16.230  1.8036 -0.3250  0.6874
16536TIP3    H271100   0.172   5.657  16.244 -0.1675 -1.5124 -0.8584
16537TIP3   OH271101   6.384   2.818   2.847  0.6672 -0.0384  0.6840
16537TIP3    H171102   6.479   2.815   2.831  0.2592 -0.3361 -2.3532
16537TIP3    H271103   6.355   2.897   2.801 -0.4882  0.4783  2.2369
16538TIP3   OH271104   6.497   1.625  16.493  0.4725 -0.1333 -0.5351
16538TIP3    H171105   6.524   1.691  16.558 -3.1071 -0.6770  1.8138
16538TIP3    H271106   6.453   1.675  16.425  0.7266  0.1563 -0.4881
16539TIP3   OH271107   2.908   3.244   5.194 -0.1363 -0.2889 -0.9002
16539TIP3    H171108   2.953   3.176   5.244  1.0121  2.4022  2.1434
16539TIP3    H271109   2.821   3.250   5.233  1.1435  2.6178  1.9995
16540TIP3   OH271110   0.718   4.223  13.188  0.1072  0.5942  0.1323
16540TIP3    H171111   0.724   4.318  13.181  0.0132  0.4598 -3.4024
16540TIP3    H271112   0.808   4.193  13.197  0.3372  0.9720 -0.8044
16541TIP3   OH271113   4.532   5.211  15.207  0.3398 -0.0265  0.1220
16541TIP3    H171114   4.555   5.292  15.253  0.3153  0.1135 -0.1087
16541TIP3    H271115   4.555   5.229  15.115 -0.4732  0.0322 -0.0788
16542TIP3   OH271116   2.995   2.967   1.758  0.2460 -0.2495  0.2264
16542TIP3    H171117   2.968   3.003   1.842 -1.2909 -0.3495 -0.1896
16542TIP3    H271118   2.914   2.959   1.708  1.1352 -0.1390 -1.2955
16543TIP3   OH271119   3.371   0.649  11.961 -0.2362  0.0940  0.1947
16543TIP3    H171120   3.458   0.627  11.995  0.0982  1.0282 -0.0345
16543TIP3    H271121   3.324   0.683  12.037 -0.4204 -0.4407  0.3248
16544TIP3   OH271122   1.809   3.765   0.504  0.0310 -0.7450 -0.1390
16544TIP3    H171123   1.785   3.684   0.460 -3.4210  0.7478 -1.3618
16544TIP3    H271124   1.745   3.775   0.574  0.2369  1.0084 -0.1512
16545TIP3   OH271125   1.501   4.977   2.813 -0.4550  0.3919  0.6076
16545TIP3    H171126   1.592   4.955   2.789 -0.3745  0.9296  0.4187
16545TIP3    H271127   1.466   5.021   2.736 -0.7435  0.5763  0.8431
16546TIP3   OH271128   2.791   2.508  12.652  0.0244  0.5024 -0.1025
16546TIP3    H171129   2.791   2.601  12.627 -1.2229  0.6158  0.2485
16546TIP3    H271130   2.880   2.492  12.683  0.2140  1.6361  0.0005
16547TIP3   OH271131   2.264   1.419   3.684  0.0167 -0.5014  0.4667
16547TIP3    H171132   2.355   1.391   3.696  0.2034  0.0745  0.4298
16547TIP3    H271133   2.219   1.342   3.651  0.4371 -0.8674  0.7400
16548TIP3   OH271134   4.147   1.911   5.672 -0.3549 -0.6999  0.2578
16548TIP3    H171135   4.136   1.880   5.762 -1.4723  1.5428  0.9678
16548TIP3    H271136   4.058   1.918   5.638 -0.0756  0.5383 -0.2603
16549TIP3   OH271137   6.679   4.643   1.923 -0.2730 -0.0337  0.0826
16549TIP3    H171138   6.734   4.565   1.923 -0.2744 -0.0498 -0.9034
16549TIP3    H271139   6.707   4.692   1.845  0.1604  1.2595  1.0146
16550TIP3   OH271140   3.534   5.162  11.085 -0.1764  0.1025  0.1386
16550TIP3    H171141   3.525   5.256  11.098 -0.3486  0.3036 -1.3501
16550TIP3    H271142   3.629   5.147  11.083 -0.1450  0.1549  0.8818
16551TIP3   OH271143   2.050   6.125   3.964 -0.3916 -0.5465  0.1044
16551TIP3    H171144   2.133   6.126   4.013 -1.5143  0.0220  2.0998
16551TIP3    H271145   2.066   6.063   3.893  2.7479  1.8311 -1.5202
16552TIP3   OH271146   4.019   6.106   1.944 -0.7366 -0.4008 -0.1823
16552TIP3    H171147   4.074   6.028   1.951 -0.0473  0.2188  1.8035
16552TIP3    H271148   4.050   6.150   1.864  0.8341 -0.6797  0.2444
16553TIP3   OH271149   4.646   4.176  11.640 -0.3520 -0.9279 -0.0410
16553TIP3    H171150   4.637   4.080  11.646  0.1141 -0.9407  0.5522
16553TIP3    H271151   4.665   4.192  11.547 -0.5771 -1.4014 -0.1714
16554TIP3   OH271152   5.624   1.763   4.153  0.2999 -0.1768 -0.8226
16554TIP3    H171153   5.573   1.698   4.202  1.3936 -1.4621 -1.3099
16554TIP3    H271154   5.661   1.819   4.221  1.3254 -1.5818 -0.1530
16555TIP3   OH271155   3.538   3.643  15.357  0.3043 -0.2253  0.3222
16555TIP3    H171156   3.445   3.637  15.376  0.1050  0.5911 -0.3227
16555TIP3    H271157   3.542   3.670  15.266  1.1964 -1.3369  0.0139
16556TIP3   OH271158   2.052   1.080   5.458 -0.1059 -0.4387  0.8124
16556TIP3    H171159   1.995   1.116   5.524  1.9329  0.5642  2.1228
16556TIP3    H271160   2.124   1.142   5.451 -0.5534 -0.0800 -2.9507
16557TIP3   OH271161   2.896   1.001   2.639  0.1654  0.2558  0.0067
16557TIP3    H171162   2.951   0.969   2.567 -0.9250 -0.2636 -0.6108
16557TIP3    H271163   2.959   1.024   2.708  1.1715 -0.1124 -0.7615
16558TIP3   OH271164   1.740   4.983   4.234  0.3310 -0.6269  0.2527
16558TIP3    H171165   1.801   4.977   4.307 -0.1383 -1.3615  0.6017
16558TIP3    H271166   1.781   5.043   4.172 -0.0807  1.4673  1.9111
16559TIP3   OH271167   6.311   2.420  11.652 -0.0181  0.0680 -0.0703
16559TIP3    H171168   6.241   2.479  11.627 -0.7647 -0.9424 -0.4505
16559TIP3    H271169   6.305   2.414  11.747 -1.6102 -1.3313 -0.1997
16560TIP3   OH271170   5.456   6.399  11.661 -0.5958 -0.1335 -0.2463
16560TIP3    H171171   5.517   6.466  11.629 -1.7226  0.4241 -1.3404
16560TIP3    H271172   5.402   6.444  11.725 -0.9539 -0.1591 -0.5286
16561TIP3   OH271173   6.302   3.399   3.454  0.4627 -0.0471 -0.1081
16561TIP3    H171174   6.224   3.446   3.480  1.6591  1.8056  0.2667
16561TIP3    H271175   6.269   3.316   3.418 -1.6471  0.7225 -0.0643
16562TIP3   OH271176   0.100   1.561  16.674 -1.0189 -0.5988 -0.2609
16562TIP3    H171177   0.025   1.513  16.707  0.5687 -3.6271 -0.6544
16562TIP3    H271178   0.164   1.558  16.745 -0.6432  0.4708 -0.5254
16563TIP3   OH271179   3.221   0.149  12.977 -0.7617 -0.3086 -0.6696
16563TIP3    H171180   3.144   0.168  13.031 -0.2996  0.6274 -0.3240
16563TIP3    H271181   3.281   0.104  13.037 -1.3633 -1.8261 -1.1650
16564TIP3   OH271182   4.143   1.253   3.055 -0.0304  1.2181 -0.0582
16564TIP3    H171183   4.206   1.186   3.029 -0.5745  0.2172  1.1217
16564TIP3    H271184   4.196   1.329   3.077  0.6237  1.0300 -0.9416
16565TIP3   OH271185   6.452   0.144   3.250  0.3137  0.3777  0.1878
16565TIP3    H171186   6.445   0.171   3.158  0.7474 -2.1396 -0.6797
16565TIP3    H271187   6.362   0.129   3.278  0.2138  0.6315  0.0039
16566TIP3   OH271188   0.942   5.221  15.047  0.0112 -0.2762 -0.6808
16566TIP3    H171189   0.971   5.284  15.112  0.1541 -0.5179 -0.5086
16566TIP3    H271190   0.860   5.257  15.013 -0.1336 -0.2180 -0.2739
16567TIP3   OH271191   0.167   3.554   5.270 -0.0547 -0.2493 -0.4910
16567TIP3    H171192   0.084   3.600   5.285 -2.4346 -3.7358 -1.8200
16567TIP3    H271193   0.173   3.546   5.175  0.5990 -1.9606 -0.3371
16568TIP3   OH271194   4.583   5.698  15.814  0.3176 -0.2906 -0.2938
16568TIP3    H171195   4.577   5.790  15.787  0.1206  0.5717  2.4142
16568TIP3    H271196   4.645   5.699  15.887 -1.7956 -1.7848  1.6572
16569TIP3   OH271197   1.893   2.589   2.970 -0.2861 -0.1468  0.2834
16569TIP3    H171198   1.884   2.505   3.015 -0.3857 -0.6684 -0.7053
16569TIP3    H271199   1.901   2.567   2.878 -2.9890  1.0635 -0.3098
16570TIP3   OH271200   1.532   4.783   0.495  0.2418 -0.0192  0.2587
16570TIP3    H171201   1.596   4.734   0.443  0.0949  0.5114 -0.4463
16570TIP3    H271202   1.585   4.835   0.555  0.5882  1.3611 -1.1503
16571TIP3   OH271203   2.749   3.143  12.177 -0.5050  0.4645 -0.4517
16571TIP3    H171204   2.782   3.059  12.146 -0.5323  0.5640 -0.7534
16571TIP3    H271205   2.662   3.123  12.212 -1.0388  0.5771 -1.6739
16572TIP3   OH271206   4.987   2.993  14.419  0.1167  0.4526 -0.0833
16572TIP3    H171207   4.914   3.047  14.449  0.3110  0.4184  0.4654
16572TIP3    H271208   5.023   3.040  14.344 -1.2806 -0.1835 -1.2085
16573TIP3   OH271209   4.539   0.976  16.841  0.5499  0.0141  0.1795
16573TIP3    H171210   4.498   1.015  16.764  1.3587  1.2209  0.3416
16573TIP3    H271211   4.466   0.949  16.897 -0.0305  0.0408 -0.5615
16574TIP3   OH271212   5.264   2.450  13.650  0.0432 -0.0263  0.1025
16574TIP3    H171213   5.288   2.401  13.728 -0.0165 -0.7459 -0.3187
16574TIP3    H271214   5.269   2.386  13.579 -0.3996  0.4898 -0.4079
16575TIP3   OH271215   0.063   3.910  16.405 -0.0512  0.4014 -0.3756
16575TIP3    H171216  -0.026   3.876  16.394 -0.3146  1.1027 -0.4467
16575TIP3    H271217   0.063   3.993  16.358  0.5716  0.5306 -0.1551
16576TIP3   OH271218   6.728   5.668  15.170 -0.2256 -0.1026 -0.7344
16576TIP3    H171219   6.744   5.757  15.137 -2.6101 -0.4497 -3.1917
16576TIP3    H271220   6.795   5.615  15.127  0.1859  0.2570 -0.5509
16577TIP3   OH271221   1.725   6.462  12.818  0.0248 -0.5350 -0.0293
16577TIP3    H171222   1.771   6.512  12.751 -0.7536  2.3358  1.4201
16577TIP3    H271223   1.638   6.446  12.782  0.0642 -0.2515 -0.2438
16578TIP3   OH271224   5.244   5.757   5.690 -0.0257 -0.2639 -0.0996
16578TIP3    H171225   5.260   5.677   5.640  0.5155 -0.1827 -0.0642
16578TIP3    H271226   5.314   5.758   5.756 -0.1790  0.1082  0.0600
16579TIP3   OH271227   4.760   6.061   5.214 -0.2469  0.4384 -0.3089
16579TIP3    H171228   4.682   6.067   5.159 -1.0722  0.7476  0.8639
16579TIP3    H271229   4.766   5.968   5.236 -1.1315  0.6079  0.7500
16580TIP3   OH271230   4.848   3.368  14.549  0.4853  0.0208  0.4968
16580TIP3    H171231   4.811   3.280  14.536  0.9038 -0.3385  1.6059
16580TIP3    H271232   4.792   3.407  14.616  1.4052 -0.0884  1.3354
16581TIP3   OH271233   2.895   1.177  15.756 -0.2548  0.0175 -0.3104
16581TIP3    H171234   2.952   1.181  15.680  0.0953 -0.8085 -0.1032
16581TIP3    H271235   2.902   1.263  15.796  1.9828 -0.4727  0.5077
16582TIP3   OH271236   0.450   6.349  14.336 -0.7265  0.8120  0.0401
16582TIP3    H171237   0.394   6.311  14.403  1.1499 -0.2673  1.0894
16582TIP3    H271238   0.481   6.274  14.285 -1.7350  1.5707 -1.7945
16583TIP3   OH271239   2.536   2.481  13.471  0.0472 -0.2775  0.4498
16583TIP3    H171240   2.588   2.484  13.552  0.9480  0.1512 -0.1229
16583TIP3    H271241   2.515   2.389  13.459 -2.2318 -0.1085  2.4724
16584TIP3   OH271242   4.646   0.083  16.260  0.0786 -0.0977 -0.1007
16584TIP3    H171243   4.694   0.164  16.249 -0.5746  0.2190 -0.7148
16584TIP3    H271244   4.586   0.099  16.333 -1.9719  0.9507 -1.9054
16585TIP3   OH271245   5.673   6.277   0.696 -0.0758 -0.3616 -0.1169
16585TIP3    H171246   5.607   6.252   0.631  1.5825 -1.5538 -1.4401
16585TIP3    H271247   5.674   6.204   0.759 -1.9804  0.9834  1.6001
16586TIP3   OH271248   0.381   0.155   0.454 -0.0362 -0.1065 -0.3226
16586TIP3    H171249   0.377   0.250   0.445  0.5828 -0.1779 -1.6181
16586TIP3    H271250   0.321   0.122   0.387 -1.6287 -0.6327  1.2893
16587TIP3   OH271251   5.208   5.319  13.152  0.6786  0.7240  0.4659
16587TIP3    H171252   5.180   5.228  13.155 -0.9980  1.2342  1.3041
16587TIP3    H271253   5.128   5.370  13.163  1.4551  2.3309 -0.8710
16588TIP3   OH271254   0.679   3.293  16.846  0.6340 -0.3953 -0.0561
16588TIP3    H171255   0.660   3.237  16.921 -0.0654  1.4389  1.2018
16588TIP3    H271256   0.773   3.308  16.851  0.6053 -0.3547  0.4029
16589TIP3   OH271257   3.153   1.441  15.826  0.3711  0.4560  0.3550
16589TIP3    H171258   3.195   1.456  15.911  0.4221 -0.8073  0.5679
16589TIP3    H271259   3.166   1.348  15.809  0.6536  0.7523 -1.2021
16590TIP3   OH271260   5.769   0.584  16.362  0.4265  0.1500  0.2596
16590TIP3    H171261   5.673   0.584  16.353  0.1199 -0.9219  2.6577
16590TIP3    H271262   5.790   0.674  16.389 -0.5095 -0.4901  3.6630
16591TIP3   OH271263   3.572   2.976  16.491 -0.3712 -0.3092 -0.3715
16591TIP3    H171264   3.583   2.910  16.422  0.4324  0.3298 -0.8717
16591TIP3    H271265   3.502   3.033  16.459 -1.2022 -1.0024  0.1495
16592TIP3   OH271266   5.880   5.004   4.980 -0.1108  0.2401 -0.0048
16592TIP3    H171267   5.799   5.056   4.975 -0.1635  0.1997  0.3814
16592TIP3    H271268   5.874   4.944   4.906 -0.0886  0.7297 -0.4082
16593TIP3   OH271269   6.331   1.734   5.887  0.0025 -0.4016  0.0954
16593TIP3    H171270   6.395   1.735   5.816 -1.2843 -0.6458 -1.0874
16593TIP3    H271271   6.301   1.824   5.895  2.5115  0.3882  2.6206
16594TIP3   OH271272   5.683   0.812  16.611  0.4655  0.6152  0.4822
16594TIP3    H171273   5.775   0.831  16.595  0.6551 -1.4408 -1.1576
16594TIP3    H271274   5.683   0.732  16.663 -0.4213  1.7263  2.3223
16595TIP3   OH271275   5.393   3.365   3.997 -0.2814 -0.4290  0.4852
16595TIP3    H171276   5.351   3.450   4.012 -0.3660  0.0761 -2.1859
16595TIP3    H271277   5.374   3.344   3.906  0.7008 -2.8087  0.7449
16596TIP3   OH271278   5.089   3.231   0.746  0.1131  0.0725  0.8878
16596TIP3    H171279   5.166   3.220   0.802  0.8109 -0.3286 -0.1266
16596TIP3    H271280   5.124   3.267   0.665 -0.7199 -0.4647  0.2796
16597TIP3   OH271281   0.915   4.981  13.320  0.5262  0.2521  0.0242
16597TIP3    H171282   0.985   5.026  13.273  1.2298  0.2256  1.0130
16597TIP3    H271283   0.931   4.888  13.304  1.6795  0.1541  1.4971
16598TIP3   OH271284   3.710   3.344  12.822 -0.6340 -0.0446 -0.6400
16598TIP3    H171285   3.806   3.343  12.826 -0.5785 -1.7397 -1.3639
16598TIP3    H271286   3.687   3.257  12.791 -2.4326  0.3155 -0.4132
16599TIP3   OH271287   2.730   6.057   3.851  0.0199  0.5275 -0.1853
16599TIP3    H171288   2.640   6.033   3.831 -0.1400  0.8606  0.1025
16599TIP3    H271289   2.771   5.976   3.881  0.3617 -0.0443 -2.1209
16600TIP3   OH271290   6.684   3.767   2.332  0.2140  0.1772  0.1786
16600TIP3    H171291   6.594   3.740   2.352  0.8141  0.0041  2.9874
16600TIP3    H271292   6.730   3.760   2.415  2.4408  1.8730 -0.8202
16601TIP3   OH271293   0.510   4.540  13.264  0.1687 -0.0991 -0.5768
16601TIP3    H171294   0.440   4.496  13.215 -0.2221  0.3846 -0.4585
16601TIP3    H271295   0.483   4.532  13.356  0.9474 -1.0893 -0.4119
16602TIP3   OH271296   5.331   4.527  12.342  0.3726 -0.8144  0.4844
16602TIP3    H171297   5.254   4.547  12.397  0.4979  0.0977  0.3466
16602TIP3    H271298   5.297   4.524  12.253  0.3688 -1.1519  0.4974
16603TIP3   OH271299   3.053   4.297  15.813 -0.4580 -0.3197  0.9833
16603TIP3    H171300   2.978   4.341  15.853 -1.1975  1.1792 -1.8379
16603TIP3    H271301   3.107   4.367  15.778  0.2331 -1.5036 -0.4470
16604TIP3   OH271302   3.382   5.585   3.210  0.5127 -0.1023 -0.3240
16604TIP3    H171303   3.368   5.663   3.156 -0.0462 -0.1787 -0.2910
16604TIP3    H271304   3.464   5.603   3.257  0.5560  0.3262 -0.5540
16605TIP3   OH271305   5.689   5.611  16.529  0.5773 -0.2661  0.0197
16605TIP3    H171306   5.680   5.642  16.619 -1.4223 -1.9748  0.4779
16605TIP3    H271307   5.668   5.688  16.475 -2.4107 -0.1861  1.0911
16606TIP3   OH271308   3.579   6.813   1.050  0.5999  0.0098  0.1990
16606TIP3    H171309   3.609   6.777   1.133  0.2135 -3.9998 -1.1621
16606TIP3    H271310   3.660   6.838   1.005  0.9192  0.6810  1.1094
16607TIP3   OH271311   5.607   0.566   0.161 -0.1485 -0.1653  1.3459
16607TIP3    H171312   5.562   0.482   0.152  2.6045 -1.5406 -2.4672
16607TIP3    H271313   5.589   0.612   0.079  1.4219  1.2876  1.7632
16608TIP3   OH271314   1.130   2.050   5.635  0.4733 -0.1414 -0.2782
16608TIP3    H171315   1.143   2.063   5.728  3.6209  2.4976 -0.9102
16608TIP3    H271316   1.170   1.966   5.616  3.0158  0.8349  0.3502
16609TIP3   OH271317   0.892   1.572  14.981  0.2857 -0.1117 -0.4917
16609TIP3    H171318   0.922   1.510  14.915  0.9849  1.8402 -2.1040
16609TIP3    H271319   0.954   1.563  15.053 -0.1013 -1.8191 -0.3482
16610TIP3   OH271320   4.910   2.460  14.467  0.0632  0.3673  0.3068
16610TIP3    H171321   4.996   2.458  14.509  1.3450  1.3268 -2.1181
16610TIP3    H271322   4.924   2.421  14.381 -2.0019  0.3647 -0.0878
16611TIP3   OH271323   0.877   3.111   5.535 -0.2281 -0.6373  0.1981
16611TIP3    H171324   0.830   3.162   5.602 -0.1199 -0.8283  0.4211
16611TIP3    H271325   0.884   3.024   5.573 -0.1323 -0.7374 -0.0511
16612TIP3   OH271326   6.591   1.144   2.546  0.2472  0.5537  0.4936
16612TIP3    H171327   6.581   1.156   2.452  1.1083 -1.5102  0.0887
16612TIP3    H271328   6.503   1.125   2.578  0.1059  0.2489 -0.0712
16613TIP3   OH271329   4.056   4.304  11.000 -0.1790 -0.3556 -0.0717
16613TIP3    H171330   4.058   4.300  11.096 -1.5364  0.5344  0.0114
16613TIP3    H271331   3.963   4.304  10.978  0.0604  1.3874 -1.2780
16614TIP3   OH271332   2.832   2.550  11.029  0.4065  0.8874  0.3382
16614TIP3    H171333   2.879   2.497  10.965 -2.0958 -0.3280 -0.6397
16614TIP3    H271334   2.751   2.576  10.984  0.3404  3.3985  1.6959
16615TIP3   OH271335   0.935   2.324   2.660  0.1272  0.2046  0.1788
16615TIP3    H171336   0.986   2.254   2.702 -0.7993  0.0516  1.0758
16615TIP3    H271337   0.927   2.296   2.569  0.5846 -0.3758  0.3098
16616TIP3   OH271338   5.540   0.936  12.470  0.4561 -0.1135  0.3704
16616TIP3    H171339   5.498   0.862  12.426 -0.5134 -0.2712  1.4823
16616TIP3    H271340   5.510   0.928  12.561 -0.0038  1.8781  0.4259
16617TIP3   OH271341   2.545   2.348   0.963  0.1713 -0.2051  0.0791
16617TIP3    H171342   2.593   2.351   0.881  0.8598  0.3425  0.4858
16617TIP3    H271343   2.613   2.335   1.030 -0.3347 -0.2252  0.6002
16618TIP3   OH271344   2.591   2.923  11.506  0.4054 -0.2063  0.2817
16618TIP3    H171345   2.522   2.916  11.572 -2.5026  2.1167 -2.2214
16618TIP3    H271346   2.637   3.004  11.529 -0.6067  0.6031 -0.4546
16619TIP3   OH271347   0.086   0.212  13.346 -0.9216 -0.0479  0.7821
16619TIP3    H171348   0.084   0.186  13.254  0.2926 -2.6831  1.4059
16619TIP3    H271349   0.157   0.276  13.351  0.5963 -1.5967  0.1943
16620TIP3   OH271350   5.831   2.327   2.594 -0.5420  0.2212 -0.3640
16620TIP3    H171351   5.828   2.423   2.592 -1.8802  0.2407  0.8000
16620TIP3    H271352   5.741   2.301   2.616  0.2647 -1.2199  1.4369
16621TIP3   OH271353   2.564   4.488  15.087  0.1245  0.3687  0.2630
16621TIP3    H171354   2.509   4.486  15.009 -0.5400 -0.3385  0.7324
16621TIP3    H271355   2.636   4.428  15.068  1.0879  1.7398 -0.5827
16622TIP3   OH271356   1.084   2.638  11.875  0.1116 -0.3187 -0.2590
16622TIP3    H171357   1.139   2.636  11.797  3.7918 -0.6649  2.1024
16622TIP3    H271358   1.040   2.553  11.875  1.1710 -0.8971 -1.2740
16623TIP3   OH271359   4.725   6.525   6.051 -0.1380  0.0351 -0.2412
16623TIP3    H171360   4.653   6.471   6.083 -1.2929  0.9975 -1.1005
16623TIP3    H271361   4.682   6.603   6.015  1.4342  1.3656  0.6212
16624TIP3   OH271362   1.365   5.277   2.637 -0.4158  0.2980  0.0567
16624TIP3    H171363   1.396   5.208   2.577  2.9374 -0.6601  2.5858
16624TIP3    H271364   1.342   5.230   2.717 -0.2124  1.9143  1.1060
16625TIP3   OH271365   0.831   5.833   1.477 -0.5674  0.0840  0.2611
16625TIP3    H171366   0.892   5.817   1.549 -2.2403  2.2371  2.3406
16625TIP3    H271367   0.829   5.751   1.427  0.3325 -1.6936  2.9460
16626TIP3   OH271368   2.891   4.882  11.972 -0.2796  0.0199 -0.7032
16626TIP3    H171369   2.815   4.939  11.978 -0.5064 -0.4608  2.3753
16626TIP3    H271370   2.959   4.926  12.024 -0.1785 -1.9978  0.9861
16627TIP3   OH271371   6.099   2.908  15.916  0.1221  0.1663  0.6671
16627TIP3    H171372   6.121   3.001  15.908  0.8427 -0.0314  0.2979
16627TIP3    H271373   6.056   2.886  15.833  0.7698 -0.0493  0.3877
16628TIP3   OH271374   1.725   3.508  12.912  0.1210 -0.0849  0.8228
16628TIP3    H171375   1.769   3.507  12.828 -1.7137  0.5428 -0.2006
16628TIP3    H271376   1.736   3.419  12.946 -0.1014 -0.6851 -0.6304
16629TIP3   OH271377   5.711   1.155   1.881 -0.7252  0.2538 -0.3468
16629TIP3    H171378   5.680   1.140   1.792 -0.1406  0.6193 -0.6170
16629TIP3    H271379   5.632   1.172   1.932 -0.9180  2.0258 -1.1847
16630TIP3   OH271380   2.246   2.248  12.847  0.3985 -0.0310  0.0728
16630TIP3    H171381   2.333   2.214  12.869 -0.4102 -2.9709 -0.7195
16630TIP3    H271382   2.189   2.210  12.914 -0.5881 -0.2969 -0.8948
16631TIP3   OH271383   5.860   6.477   0.749  0.0327 -0.2775 -0.4932
16631TIP3    H171384   5.794   6.409   0.734 -1.0156  0.8158 -0.9693
16631TIP3    H271385   5.940   6.428   0.767 -0.9976 -1.6467  0.6484
16632TIP3   OH271386   1.730   1.261  14.972 -0.1976 -0.2989 -0.5368
16632TIP3    H171387   1.725   1.356  14.966 -0.7262 -0.4163 -2.9619
16632TIP3    H271388   1.696   1.240  15.059  1.4372  1.7891  0.6745
16633TIP3   OH271389   0.223   5.352   1.201  0.2145 -0.2715 -0.1022
16633TIP3    H171390   0.132   5.383   1.202 -0.5488 -2.3545 -0.6844
16633TIP3    H271391   0.269   5.410   1.261 -1.2054  1.6561 -0.7752
16634TIP3   OH271392   0.771   0.964   1.017  0.3342 -0.4775 -0.5951
16634TIP3    H171393   0.721   1.012   1.082  0.9232 -2.2971  1.3229
16634TIP3    H271394   0.748   1.004   0.934 -0.9978  1.4907  0.6462
16635TIP3   OH271395   3.149   1.579  13.989  0.1749  0.5712 -0.1194
16635TIP3    H171396   3.216   1.620  14.044 -0.1363  1.2138 -0.1982
16635TIP3    H271397   3.070   1.580  14.043 -0.3575  2.0318 -0.8635
16636TIP3   OH271398   5.474   2.195  11.713 -0.5358  0.5954 -0.3721
16636TIP3    H171399   5.436   2.185  11.800  0.5276  0.4495  0.1020
16636TIP3    H271400   5.523   2.277  11.717  0.8596 -0.2042 -0.2823
16637TIP3   OH271401   3.530   5.825   1.591 -0.2574 -0.1079 -0.1404
16637TIP3    H171402   3.582   5.824   1.510  0.4960  0.9740  0.3037
16637TIP3    H271403   3.590   5.859   1.658 -1.7158  1.9627  0.2393
16638TIP3   OH271404   3.504   2.826   0.369  0.4907 -0.0101  0.2904
16638TIP3    H171405   3.474   2.906   0.325  0.4050 -0.1279  0.1359
16638TIP3    H271406   3.452   2.756   0.330  1.2043 -0.2618 -0.2190
16639TIP3   OH271407   6.028   3.772  15.607  0.3753 -0.0927  0.3969
16639TIP3    H171408   6.069   3.689  15.584  1.2655  0.8456 -1.5370
16639TIP3    H271409   6.091   3.839  15.582 -1.1044  1.2643  0.0894
16640TIP3   OH271410   3.804   4.978  16.269 -0.5531 -0.6744  0.1398
16640TIP3    H171411   3.709   4.980  16.275 -0.6321 -0.6429 -0.9384
16640TIP3    H271412   3.825   5.047  16.206  0.1741 -0.8088  0.2259
16641TIP3   OH271413   4.271   3.841   3.844  0.1520 -0.0980  0.5252
16641TIP3    H171414   4.332   3.789   3.897  1.1031  0.0689 -0.4007
16641TIP3    H271415   4.324   3.911   3.807 -0.2756 -0.7324 -1.4005
16642TIP3   OH271416   3.405   0.524  15.772 -0.1680  0.4426 -0.6896
16642TIP3    H171417   3.311   0.518  15.785  0.1366 -1.9439  0.8933
16642TIP3    H271418   3.423   0.464  15.699  0.2322  0.1575 -0.3585
16643TIP3   OH271419   2.489   6.307   0.611 -0.0912 -0.3561  0.2206
16643TIP3    H171420   2.425   6.244   0.576 -0.1781  0.2599 -0.7910
16643TIP3    H271421   2.454   6.393   0.584  1.4866 -0.0329 -0.9451
16644TIP3   OH271422   2.005   6.576   5.933 -0.8608  0.2825 -0.5897
16644TIP3    H171423   2.026   6.485   5.909 -1.4385  0.5544 -2.2998
16644TIP3    H271424   2.089   6.622   5.928 -0.4848 -0.2278  0.7333
16645TIP3   OH271425   3.269   3.564  13.132  0.0251  0.2466  0.6049
16645TIP3    H171426   3.268   3.503  13.206  1.5049 -0.4112  0.1269
16645TIP3    H271427   3.354   3.608  13.138  0.2156  0.1113 -0.7282
16646TIP3   OH271428   2.196   2.465  11.092 -1.0304 -0.0278 -0.0304
16646TIP3    H171429   2.172   2.548  11.051  0.4120  0.7699  0.6515
16646TIP3    H271430   2.262   2.428  11.033 -2.3440 -1.1903 -0.8299
16647TIP3   OH271431   4.607   2.811  16.915  0.1963 -0.9465  1.1828
16647TIP3    H171432   4.557   2.865  16.854  0.8393 -2.3446 -0.6885
16647TIP3    H271433   4.574   2.836  17.002 -1.2862  0.5975  0.2469
16648TIP3   OH271434   4.390   4.827   3.384 -0.2510 -0.4366  0.6807
16648TIP3    H171435   4.417   4.735   3.380 -0.4820 -0.4668 -1.6306
16648TIP3    H271436   4.466   4.876   3.351 -0.3820  0.1548  1.2311
16649TIP3   OH271437   0.304   0.316  11.996 -0.2479  0.1691 -0.1541
16649TIP3    H171438   0.255   0.294  11.916 -0.1299 -1.7767  0.2690
16649TIP3    H271439   0.385   0.355  11.964 -0.8062  0.7450 -0.9266
16650TIP3   OH271440   1.459   4.691   2.491 -0.8766  0.0693 -0.4616
16650TIP3    H171441   1.523   4.723   2.428 -0.8269  0.0813 -0.4056
16650TIP3    H271442   1.400   4.765   2.505 -0.4945  0.2981  0.0160
16651TIP3   OH271443   3.173   0.041   1.587  0.1169  0.0635 -0.2184
16651TIP3    H171444   3.150  -0.052   1.592  2.1135 -0.4425  0.5481
16651TIP3    H271445   3.137   0.071   1.503 -0.9045 -1.2854 -0.2876
16652TIP3   OH271446   1.204   3.846  16.268 -0.4669 -0.1283 -0.1118
16652TIP3    H171447   1.194   3.889  16.183  0.4969  0.3318 -0.0095
16652TIP3    H271448   1.298   3.848  16.284 -0.7021  0.4887  1.3266
16653TIP3   OH271449   2.329   5.587   9.756  0.3889 -0.4314 -0.1646
16653TIP3    H171450   2.359   5.600   9.846 -0.6554 -1.5089  0.3608
16653TIP3    H271451   2.407   5.560   9.708  0.5399 -1.9451  0.8908
16654TIP3   OH271452   5.407   6.079  11.667 -0.0902 -0.8951 -0.2890
16654TIP3    H171453   5.445   6.167  11.663 -0.0811 -0.6949  2.4308
16654TIP3    H271454   5.448   6.032  11.594  3.1296  0.1497  0.6861
16655TIP3   OH271455   4.430   2.176   4.630 -0.3524  0.0875  0.0624
16655TIP3    H171456   4.357   2.185   4.692 -0.4805 -2.0570  0.3081
16655TIP3    H271457   4.500   2.135   4.681  1.2012  2.3342 -0.0973
16656TIP3   OH271458   6.778   4.642   0.026 -0.1440 -0.5020  0.0759
16656TIP3    H171459   6.724   4.716   0.052  0.4197 -0.7154  1.9771
16656TIP3    H271460   6.863   4.680   0.005  0.0738 -0.5748  0.8137
16657TIP3   OH271461   1.822   1.585   2.910 -0.3297 -0.6395 -0.0278
16657TIP3    H171462   1.840   1.599   2.817 -0.5916 -0.5807 -0.0686
16657TIP3    H271463   1.867   1.657   2.954 -2.1961  0.7345 -0.2759
16658TIP3   OH271464   2.350   6.379   3.555 -0.0296  0.0953  0.0598
16658TIP3    H171465   2.288   6.327   3.606 -0.3237  0.7107  0.3462
16658TIP3    H271466   2.428   6.324   3.548  0.3260  0.3185  1.8685
16659TIP3   OH271467   6.792   1.620  12.144  0.0848 -0.1468  0.4347
16659TIP3    H171468   6.730   1.657  12.207 -0.2546 -0.2526  0.1617
16659TIP3    H271469   6.785   1.676  12.067 -0.5595 -0.8692 -0.0451
16660TIP3   OH271470   1.287   2.809  13.798 -0.4249  0.4300  0.0966
16660TIP3    H171471   1.282   2.814  13.703  0.6019 -1.2049 -0.0960
16660TIP3    H271472   1.333   2.889  13.824  0.1840  0.4231 -0.8979
16661TIP3   OH271473   5.402   1.741   6.484 -0.2629  0.4333 -0.0407
16661TIP3    H171474   5.428   1.687   6.558 -1.8560  0.3212  0.4682
16661TIP3    H271475   5.309   1.725   6.474 -0.0557  0.2852 -2.2266
16662TIP3   OH271476   3.096   0.945   3.127 -0.5641 -0.1138  0.0502
16662TIP3    H171477   3.067   0.982   3.211 -2.5645 -1.1891 -0.1024
16662TIP3    H271478   3.032   0.976   3.063  0.3364 -0.1618 -0.8999
16663TIP3   OH271479   0.366   1.925   5.199 -0.0378  0.2698 -0.2536
16663TIP3    H171480   0.389   1.984   5.271 -0.3354  0.0982 -0.0153
16663TIP3    H271481   0.327   1.849   5.241  1.4832 -0.6641 -0.4801
16664TIP3   OH271482   5.565   3.686   1.115  0.4744 -0.1427  0.0046
16664TIP3    H171483   5.554   3.749   1.186 -1.4100 -0.0797 -0.2885
16664TIP3    H271484   5.501   3.714   1.049  1.2365 -1.0064 -1.1310
16665TIP3   OH271485   2.433   6.819   3.711  0.3438 -0.2685 -0.1152
16665TIP3    H171486   2.454   6.806   3.803 -0.1619  0.0187  0.0476
16665TIP3    H271487   2.363   6.757   3.693 -1.2976  1.3421  0.3720
16666TIP3   OH271488   6.285   2.852   0.447 -0.4425 -0.0123 -0.2709
16666TIP3    H171489   6.314   2.781   0.504 -1.6395 -0.0622  0.3041
16666TIP3    H271490   6.213   2.814   0.396  0.7623 -0.0568 -2.0602
16667TIP3   OH271491   4.915   4.216   5.763  0.2840  0.0320  0.2827
16667TIP3    H171492   4.959   4.132   5.776  1.5114  0.6136  0.0171
16667TIP3    H271493   4.833   4.208   5.810  1.0203 -0.8077  1.4706
16668TIP3   OH271494   3.281   6.597  15.033 -0.4739 -0.0235 -0.6465
16668TIP3    H171495   3.219   6.525  15.019 -2.2380  0.9668  1.4082
16668TIP3    H271496   3.229   6.676  15.017  0.4208  0.8294  0.4909
16669TIP3   OH271497   0.542   5.791   2.332  0.3130 -0.0368  0.1573
16669TIP3    H171498   0.480   5.786   2.260 -0.2449  0.6588  0.5710
16669TIP3    H271499   0.579   5.703   2.340 -0.4240 -0.3852 -0.2613
16670TIP3   OH271500   5.903   3.384   2.714 -0.1955 -0.1687 -0.1665
16670TIP3    H171501   5.833   3.446   2.732 -1.5355 -1.2269 -1.4719
16670TIP3    H271502   5.969   3.401   2.782 -1.1203  1.7176  0.3208
16671TIP3   OH271503   3.226   6.621  16.370 -0.1463  0.6009  0.0559
16671TIP3    H171504   3.296   6.559  16.349 -0.1724 -0.0933  1.8047
16671TIP3    H271505   3.148   6.582  16.330 -0.1433 -0.4994  1.0529
16672TIP3   OH271506   0.549   2.547  10.508  0.1862 -0.0834  0.3367
16672TIP3    H171507   0.463   2.564  10.547 -0.4381 -0.8451 -0.6317
16672TIP3    H271508   0.571   2.629  10.463 -0.3970 -0.1174 -0.0301
16673TIP3   OH271509   0.142   6.399   5.300  0.6097 -0.0043  0.0763
16673TIP3    H171510   0.190   6.395   5.382  1.3567  1.3605 -0.2651
16673TIP3    H271511   0.091   6.480   5.306  0.6806  0.1198 -0.7951
16674TIP3   OH271512   0.429   1.052   5.229 -0.0845 -0.2454  0.5392
16674TIP3    H171513   0.350   1.014   5.267 -1.8155  3.9847  1.7531
16674TIP3    H271514   0.398   1.125   5.175  2.9106  0.1008 -0.9601
16675TIP3   OH271515   3.756   5.750  14.870 -0.0357  0.6270 -0.3264
16675TIP3    H171516   3.662   5.766  14.858 -0.0391  0.8864  0.0436
16675TIP3    H271517   3.798   5.833  14.849 -0.0333  1.0684  1.2899
16676TIP3   OH271518   3.796   1.824   3.752  0.5242 -0.3239 -0.2542
16676TIP3    H171519   3.838   1.819   3.838  0.3563 -0.3366 -0.1713
16676TIP3    H271520   3.860   1.868   3.696  0.3250  0.4201  0.0810
16677TIP3   OH271521   3.167   0.914  11.151  0.5213 -0.8254  0.0990
16677TIP3    H171522   3.229   0.975  11.111 -0.3077 -0.8339 -1.3050
16677TIP3    H271523   3.221   0.850  11.197  1.6049 -1.0598 -1.4037
16678TIP3   OH271524   5.916   5.047  14.991  0.3971  0.1986 -0.8590
16678TIP3    H171525   5.827   5.017  14.971  0.6148 -0.4751 -0.8302
16678TIP3    H271526   5.903   5.135  15.028 -0.3587 -0.3259  0.2152
16679TIP3   OH271527   2.955   2.154   5.523  0.2723  0.1662 -0.5443
16679TIP3    H171528   2.973   2.071   5.479  0.5659  0.0679 -0.2372
16679TIP3    H271529   2.901   2.203   5.460  0.6850  0.0255 -1.0197
16680TIP3   OH271530   2.381   6.005  13.517  0.0379 -0.5442 -0.7863
16680TIP3    H171531   2.320   6.022  13.445  0.1631  0.8577 -0.5909
16680TIP3    H271532   2.326   6.007  13.595  0.2375  0.1916 -0.6574
16681TIP3   OH271533   6.326   0.316  14.086 -0.1806 -0.1068  0.8859
16681TIP3    H171534   6.251   0.375  14.082 -1.0624 -1.1733  1.0802
16681TIP3    H271535   6.352   0.316  14.179  0.4753  0.7517  0.7086
16682TIP3   OH271536   4.402   1.771  14.563 -0.2776  0.5319 -0.0674
16682TIP3    H171537   4.399   1.865  14.545 -1.6662  0.4140 -0.5922
16682TIP3    H271538   4.354   1.760  14.645 -0.1851  0.2699 -0.0446
16683TIP3   OH271539   6.639   0.386   1.585  0.1308 -0.8310  0.3518
16683TIP3    H171540   6.610   0.475   1.606 -0.8902 -0.6714 -1.5193
16683TIP3    H271541   6.720   0.399   1.536  0.3578 -0.9829  0.6831
16684TIP3   OH271542   3.702   3.988   4.327  0.4489  0.4408  0.2319
16684TIP3    H171543   3.680   4.058   4.388 -0.0163  0.8376 -0.3844
16684TIP3    H271544   3.682   4.024   4.241  2.5456  0.4624 -0.3012
16685TIP3   OH271545   3.804   4.697   4.890  0.3116 -0.3564  0.1608
16685TIP3    H171546   3.709   4.697   4.897  0.3685 -2.0183  1.5084
16685TIP3    H271547   3.829   4.605   4.887  1.8322  0.0400 -1.6016
16686TIP3   OH271548   5.827   4.343  11.631 -0.2467 -0.0738  0.3088
16686TIP3    H171549   5.900   4.403  11.622  0.2411 -0.5587  1.0025
16686TIP3    H271550   5.753   4.389  11.592  0.1178  0.9727  0.8310
16687TIP3   OH271551   6.352   2.665   2.453 -0.6004  0.1723 -0.5989
16687TIP3    H171552   6.429   2.611   2.431 -1.1650 -1.0166  0.2377
16687TIP3    H271553   6.281   2.601   2.463 -1.0498  0.9419  1.5558
16688TIP3   OH271554   4.702   1.750   1.600  0.3219  0.0890  1.0886
16688TIP3    H171555   4.662   1.832   1.630 -1.9569 -1.1437  1.6568
16688TIP3    H271556   4.637   1.683   1.622  1.2174 -1.6383 -1.1818
16689TIP3   OH271557   4.109   3.519  14.304  0.2123 -0.3157 -0.1661
16689TIP3    H171558   4.020   3.489  14.317 -0.9060  1.2274 -3.2255
16689TIP3    H271559   4.112   3.606  14.345  1.0961 -1.2834  1.9510
16690TIP3   OH271560   6.539   2.610  10.588 -0.4620 -0.3636 -0.2161
16690TIP3    H171561   6.545   2.589  10.681 -1.9492  0.4078  0.0920
16690TIP3    H271562   6.624   2.648  10.567 -0.5590  0.7838  1.2225
16691TIP3   OH271563   3.673   6.781   4.185  0.0220  0.0942  0.2044
16691TIP3    H171564   3.738   6.731   4.234  0.3739  0.5392  0.2014
16691TIP3    H271565   3.589   6.753   4.221  0.2491 -0.0131  0.6605
16692TIP3   OH271566   0.989   1.920  15.986 -0.1099 -0.1557  0.3872
16692TIP3    H171567   0.990   1.953  15.897  0.6701 -1.7560 -0.2503
16692TIP3    H271568   1.006   1.826  15.977 -1.3865 -0.6097  2.1312
16693TIP3   OH271569   0.952   5.626  10.178 -0.1926 -0.0062 -0.2385
16693TIP3    H171570   0.931   5.688  10.248  1.2756  0.7136 -0.3810
16693TIP3    H271571   1.004   5.677  10.116  0.8825 -1.3281 -0.4750
16694TIP3   OH271572   2.494   5.189  12.542  0.4935 -0.3456 -0.6279
16694TIP3    H171573   2.491   5.278  12.506  0.7244  0.3105  0.8932
16694TIP3    H271574   2.402   5.162  12.545  0.2046  0.6550  0.7437
16695TIP3   OH271575   2.657   5.079  11.933  0.2293 -0.3326 -0.4124
16695TIP3    H171576   2.722   5.148  11.923  0.0972 -0.4049 -2.1384
16695TIP3    H271577   2.574   5.121  11.911 -0.4259 -0.1386  2.1517
16696TIP3   OH271578   3.324   3.740   2.183  0.4465  0.3003  0.0267
16696TIP3    H171579   3.335   3.783   2.098  0.5065 -1.7530 -1.0693
16696TIP3    H271580   3.387   3.783   2.240  0.4676  1.6722 -0.9775
16697TIP3   OH271581   2.946   4.451  11.367 -0.2808  0.3713 -0.0455
16697TIP3    H171582   2.982   4.498  11.443  0.8499 -0.0830 -0.2723
16697TIP3    H271583   2.973   4.360  11.381 -1.8532 -0.1022  0.0378
16698TIP3   OH271584   2.968   6.383  13.710  0.2763 -0.4103 -0.8856
16698TIP3    H171585   2.990   6.297  13.747  0.1243 -0.5670 -1.1552
16698TIP3    H271586   2.884   6.405  13.750  1.6440  0.9323  1.4021
16699TIP3   OH271587   3.608   4.155  11.227 -0.0826  0.3859 -0.4917
16699TIP3    H171588   3.685   4.175  11.172 -0.5305  0.3412 -1.1442
16699TIP3    H271589   3.535   4.195  11.181 -0.5452 -0.1112 -0.1963
16700TIP3   OH271590   3.482   0.701  17.157 -0.3641  0.1563  0.0040
16700TIP3    H171591   3.431   0.721  17.236 -1.5623  1.7726 -1.1252
16700TIP3    H271592   3.465   0.607  17.142  1.1558 -0.6074  2.4764
16701TIP3   OH271593   0.871   4.640  15.521 -0.2968  0.2845 -0.4557
16701TIP3    H171594   0.863   4.552  15.556 -0.3844  1.2079  2.0647
16701TIP3    H271595   0.785   4.659  15.483 -0.6331 -0.3290 -0.0144
16702TIP3   OH271596   5.015   0.563   1.968  0.0417  0.0658 -0.1328
16702TIP3    H171597   4.991   0.476   2.000  2.0934  0.2513  2.2202
16702TIP3    H271598   4.931   0.608   1.956 -1.0119 -1.7999 -0.2643
16703TIP3   OH271599   1.469   2.145   6.598 -1.0546  0.3853 -0.2177
16703TIP3    H171600   1.517   2.119   6.677 -2.1150 -2.0385 -0.2800
16703TIP3    H271601   1.392   2.088   6.598 -1.2840  0.6126 -2.8170
16704TIP3   OH271602   2.117   4.373  15.302 -0.0001 -0.1349 -0.2219
16704TIP3    H171603   2.136   4.432  15.375 -1.8534  0.0519  0.1561
16704TIP3    H271604   2.024   4.386  15.284 -0.0555 -1.6942 -1.2752
16705TIP3   OH271605   6.543   6.309   2.134 -1.2468 -0.4279  0.0062
16705TIP3    H171606   6.458   6.343   2.161 -1.5762  0.5216 -2.0427
16705TIP3    H271607   6.604   6.339   2.202 -2.3644 -0.2079  0.9322
16706TIP3   OH271608   0.494   5.891   5.182 -0.7076  0.0416  0.1619
16706TIP3    H171609   0.405   5.890   5.216 -1.0689 -1.0363 -0.7620
16706TIP3    H271610   0.547   5.921   5.256 -2.0387  2.9337  0.0867
16707TIP3   OH271611   0.529   2.318   4.155 -0.5652 -0.5764  0.3281
16707TIP3    H171612   0.537   2.357   4.068  0.0728 -1.6542 -0.1159
16707TIP3    H271613   0.479   2.383   4.205 -0.1629  0.4728 -0.5714
16708TIP3   OH271614   6.203   1.334  11.822  0.2593  0.7521  0.2228
16708TIP3    H171615   6.229   1.310  11.733 -0.0610 -0.2259  0.3793
16708TIP3    H271616   6.180   1.427  11.817 -1.1442  0.3683 -1.0366
16709TIP3   OH271617   2.035   2.617  15.203  0.2984 -0.1941  0.2651
16709TIP3    H171618   2.122   2.628  15.240  0.2364 -1.0942  0.7262
16709TIP3    H271619   1.982   2.585  15.277 -0.4815  0.5782  0.0572
16710TIP3   OH271620   6.367   1.425  13.975  0.2972 -0.2026 -0.1560
16710TIP3    H171621   6.389   1.335  13.951  0.1202 -0.5825  1.0541
16710TIP3    H271622   6.349   1.422  14.069 -2.0004  0.6447 -0.5033
16711TIP3   OH271623   4.207   0.336  15.698 -0.6652  0.1312  0.1950
16711TIP3    H171624   4.135   0.395  15.676  0.0255  1.1029  0.4287
16711TIP3    H271625   4.177   0.289  15.775 -1.3287 -0.0014 -0.1348
16712TIP3   OH271626   5.642   3.114   2.524 -0.3051 -0.1278 -0.4076
16712TIP3    H171627   5.622   3.207   2.537 -0.0923 -0.2716  1.0376
16712TIP3    H271628   5.717   3.097   2.580 -1.1395 -1.4745  0.3615
16713TIP3   OH271629   3.449   1.060  13.543  0.4134 -0.2393  0.0668
16713TIP3    H171630   3.407   0.977  13.518 -1.2324  0.2758  1.0317
16713TIP3    H271631   3.482   1.044  13.632 -1.3030  0.6035  0.8864
16714TIP3   OH271632   3.694   1.190   0.907 -0.3284  0.7630  1.1535
16714TIP3    H171633   3.657   1.175   0.994 -0.3202  0.4771  1.1107
16714TIP3    H271634   3.712   1.102   0.874  0.3270  0.8889  1.1489
16715TIP3   OH271635   4.219   1.175  14.405  0.3736 -0.7233  0.7720
16715TIP3    H171636   4.245   1.264  14.427 -0.0752 -0.8868  2.0600
16715TIP3    H271637   4.201   1.133  14.490 -2.6144 -1.0624  0.0894
16716TIP3   OH271638   6.200   5.397  13.209  0.2329 -0.0912  0.0391
16716TIP3    H171639   6.136   5.385  13.139  0.0764 -1.6066  0.3950
16716TIP3    H271640   6.155   5.366  13.287  1.1333 -0.4813  0.4159
16717TIP3   OH271641   5.924   1.190  15.732 -0.3485  0.1418 -0.0272
16717TIP3    H171642   5.935   1.115  15.790 -2.6091  0.1955  0.5638
16717TIP3    H271643   5.856   1.163  15.671 -0.2136  1.2206 -0.6792
16718TIP3   OH271644   6.782   5.140   1.146  0.4184  0.4650  0.4134
16718TIP3    H171645   6.705   5.119   1.093 -1.5072  3.4785  1.7801
16718TIP3    H271646   6.805   5.230   1.123  2.5552  0.2144  1.2464
16719TIP3   OH271647   6.479   2.897  15.871 -0.4800  0.4382  0.0134
16719TIP3    H171648   6.510   2.808  15.889 -1.5258 -0.2089 -1.2116
16719TIP3    H271649   6.446   2.928  15.955  0.5637 -0.0324  0.6250
16720TIP3   OH271650   3.258   6.154   5.419 -0.3885  0.0104  0.5374
16720TIP3    H171651   3.307   6.073   5.432 -0.9241 -0.2120  1.2235
16720TIP3    H271652   3.309   6.203   5.354 -0.1023 -0.9034  0.0552
16721TIP3   OH271653   6.515   0.979   3.408 -0.0315 -0.3784  0.0886
16721TIP3    H171654   6.450   0.937   3.351 -2.0948 -0.1909  2.1637
16721TIP3    H271655   6.490   1.071   3.408  1.7816  0.1697 -0.9583
16722TIP3   OH271656   4.039   1.827   2.207 -1.0365 -0.4439  0.4671
16722TIP3    H171657   4.098   1.761   2.171  0.8432  1.1375  0.4908
16722TIP3    H271658   4.047   1.901   2.147 -1.5463  0.4956  1.5198
16723TIP3   OH271659   0.232   1.946  16.803  0.6607 -0.0114 -0.5049
16723TIP3    H171660   0.149   1.898  16.802  0.7967 -0.2480 -0.6599
16723TIP3    H271661   0.298   1.879  16.816  1.1289 -0.3462 -3.7284
16724TIP3   OH271662   2.768   3.042   1.597  0.3146  0.3343  0.1039
16724TIP3    H171663   2.813   3.108   1.545 -0.0727  0.7019  0.2316
16724TIP3    H271664   2.698   3.011   1.541  0.4307  0.1071  0.0844
16725TIP3   OH271665   2.027   3.815  11.138  0.6761 -0.1575 -0.0014
16725TIP3    H171666   2.058   3.858  11.217  0.1872 -1.3775  0.8806
16725TIP3    H271667   2.040   3.880  11.068  0.0694  1.3698  1.2515
16726TIP3   OH271668   1.102   1.140   0.930 -0.2996  0.2923  0.6513
16726TIP3    H171669   1.050   1.196   0.873  0.4088 -0.1714 -0.4749
16726TIP3    H271670   1.045   1.123   1.005 -1.5561  0.2829 -0.2728
16727TIP3   OH271671   5.053   1.199  15.289 -0.2650  0.3286  0.5659
16727TIP3    H171672   4.999   1.268  15.251 -1.7933 -0.0840  1.8962
16727TIP3    H271673   4.992   1.144  15.338  0.9114 -1.9544 -0.3778
16728TIP3   OH271674   3.932   5.432   5.316 -0.3125 -0.6864 -0.1123
16728TIP3    H171675   3.940   5.374   5.240  0.3767  0.3092 -0.8235
16728TIP3    H271676   3.961   5.517   5.284  3.1704 -0.8549  2.0617
16729TIP3   OH271677   6.127   1.722   0.540  0.2635  0.1234 -0.2637
16729TIP3    H171678   6.113   1.788   0.472 -0.5100 -0.6402 -0.8569
16729TIP3    H271679   6.151   1.643   0.492  2.8301  0.3349  0.5052
16730TIP3   OH271680   2.153   5.140  15.933 -0.1245  0.2367 -0.5232
16730TIP3    H171681   2.190   5.079  15.869  1.0780  1.2809 -0.8716
16730TIP3    H271682   2.101   5.201  15.881 -0.0969  0.4010 -0.3589
16731TIP3   OH271683   6.158   5.738   2.242 -0.3732  0.5614  0.5490
16731TIP3    H171684   6.151   5.662   2.300  2.5045 -0.6718 -0.5354
16731TIP3    H271685   6.131   5.705   2.156  0.4693  0.8592  0.1612
16732TIP3   OH271686   6.300   4.740  16.569  0.4092 -0.3318 -0.1114
16732TIP3    H171687   6.367   4.722  16.503 -0.9705 -0.1771 -1.5923
16732TIP3    H271688   6.346   4.791  16.636  2.1309 -1.5142 -0.3226
16733TIP3   OH271689   6.413   1.849  13.915  0.1936  0.0564  0.4301
16733TIP3    H171690   6.360   1.914  13.869 -1.3420 -1.9396 -0.7750
16733TIP3    H271691   6.502   1.864  13.882 -0.7718 -1.1074 -3.2253
16734TIP3   OH271692   2.717   2.815   3.764 -0.0889 -0.3823 -0.0866
16734TIP3    H171693   2.702   2.726   3.734  0.2327 -0.2827 -0.5523
16734TIP3    H271694   2.630   2.852   3.776 -0.2303 -0.8702  0.4595
16735TIP3   OH271695   1.762   2.740   3.659 -0.0603 -0.3192 -0.5144
16735TIP3    H171696   1.772   2.834   3.669  2.7052 -0.3982 -1.6720
16735TIP3    H271697   1.718   2.729   3.575  0.6701 -0.0342 -0.9483
16736TIP3   OH271698   4.314   0.641  12.592 -0.0766  0.5646 -0.7823
16736TIP3    H171699   4.312   0.605  12.680  0.3712 -0.1713 -1.0675
16736TIP3    H271700   4.405   0.633  12.564 -0.4708 -0.5933 -1.8664
16737TIP3   OH271701   1.563   0.018  13.184  0.0888 -0.2873 -0.3557
16737TIP3    H171702   1.586   0.079  13.254 -0.4417  0.3548 -0.7293
16737TIP3    H271703   1.495   0.063  13.134  1.4333 -0.1213 -2.1350
16738TIP3   OH271704   1.351   4.350  13.469 -0.2416 -0.1410  0.4609
16738TIP3    H171705   1.270   4.398  13.453 -0.3428 -0.1455  0.9520
16738TIP3    H271706   1.325   4.258  13.466 -0.0364 -0.1810 -0.5419
16739TIP3   OH271707   6.122   3.819   1.773  0.0095  0.3691  0.1998
16739TIP3    H171708   6.145   3.886   1.709  0.3402 -1.1260 -1.2975
16739TIP3    H271709   6.206   3.789   1.808 -0.1772  1.3416  1.5536
16740TIP3   OH271710   0.712   2.977  11.994  0.0648  0.0097 -0.5607
16740TIP3    H171711   0.801   2.941  11.991 -0.5348 -1.8055  1.1449
16740TIP3    H271712   0.711   3.033  12.072 -0.2310  0.1669 -0.6756
16741TIP3   OH271713   0.454   5.094   1.108  0.2278  0.3502 -0.2140
16741TIP3    H171714   0.510   5.037   1.161  0.0250 -0.0153 -0.3839
16741TIP3    H271715   0.367   5.055   1.116 -0.0114  0.9351  0.0758
16742TIP3   OH271716   6.678   4.677  11.348  0.1110 -0.1095  0.6402
16742TIP3    H171717   6.583   4.691  11.355  0.0253 -0.3653  0.0431
16742TIP3    H271718   6.692   4.655  11.257  0.4133 -2.4801  1.1986
16743TIP3   OH271719   0.471   2.989   6.350  0.0166  0.1886 -0.1814
16743TIP3    H171720   0.389   3.020   6.313  1.7131  2.1846 -2.6615
16743TIP3    H271721   0.481   3.039   6.432 -0.5458  1.0763 -0.6433
16744TIP3   OH271722   4.334   4.551  13.659 -0.6341  0.3582 -0.6733
16744TIP3    H171723   4.295   4.614  13.718  1.1672  1.0629 -0.1716
16744TIP3    H271724   4.307   4.466  13.693  0.4205  0.7377  1.2562
16745TIP3   OH271725   2.531   4.418  14.495  0.3887  0.1497 -0.0048
16745TIP3    H171726   2.610   4.369  14.517 -0.3128  0.4004  3.7767
16745TIP3    H271727   2.483   4.361  14.435  1.7489 -1.6653  0.5512
16746TIP3   OH271728   3.395   5.622   5.792 -0.2165  0.3097 -0.5029
16746TIP3    H171729   3.342   5.546   5.768 -3.1302  1.5444  1.4885
16746TIP3    H271730   3.439   5.596   5.873 -2.2323  1.0906  0.8953
16747TIP3   OH271731   3.268   2.968  10.127  0.3072 -0.1315 -0.3555
16747TIP3    H171732   3.250   2.876  10.147  0.7212  0.0929  1.1322
16747TIP3    H271733   3.360   2.981  10.148  0.3832  0.5201 -1.0197
16748TIP3   OH271734   3.204   5.267  14.766 -0.4490  0.0608  0.2613
16748TIP3    H171735   3.113   5.278  14.793 -0.6890  0.8805 -0.8337
16748TIP3    H271736   3.249   5.345  14.798 -0.4728  0.4267 -0.5716
16749TIP3   OH271737   6.501   2.736   5.088 -0.2047  0.3592  0.2213
16749TIP3    H171738   6.512   2.785   5.170  0.9833  1.1964 -0.4186
16749TIP3    H271739   6.406   2.736   5.073 -0.2290  3.5515 -0.3676
16750TIP3   OH271740   0.664   4.982  15.904 -0.1218  0.0902 -0.2169
16750TIP3    H171741   0.589   4.945  15.858  0.6922 -1.1549 -0.5837
16750TIP3    H271742   0.702   4.909  15.952  0.4548  0.8538  0.5202
16751TIP3   OH271743   3.817   0.322  14.788 -0.1114  0.6704 -0.2314
16751TIP3    H171744   3.843   0.270  14.712  2.1860  1.4539 -0.0385
16751TIP3    H271745   3.792   0.257  14.853  1.6255 -0.1920 -0.3740
16752TIP3   OH271746   3.785   4.415   6.161 -0.1040 -0.3060  0.3899
16752TIP3    H171747   3.835   4.400   6.242 -0.3137 -0.1311  0.5533
16752TIP3    H271748   3.756   4.328   6.135  0.9166 -0.5100 -0.1226
16753TIP3   OH271749   2.054   0.391  11.667 -0.1130  0.0562  0.0106
16753TIP3    H171750   1.995   0.457  11.631 -0.3713  0.1322  0.5649
16753TIP3    H271751   2.142   0.422  11.645 -0.1083  1.5861  1.8541
16754TIP3   OH271752   5.916   4.229  12.018  0.2990  0.2613  0.0454
16754TIP3    H171753   5.987   4.166  12.009  0.5499  0.2327  1.8193
16754TIP3    H271754   5.955   4.313  11.994  0.8600  0.1984  0.7119
16755TIP3   OH271755   6.482   5.295  17.104 -0.0906  0.6563  0.3307
16755TIP3    H171756   6.443   5.379  17.080 -2.5137 -0.2786  0.6695
16755TIP3    H271757   6.469   5.289  17.199  2.8629  1.1695  0.8655
16756TIP3   OH271758   6.380   0.228   1.918  0.1271  0.8619  0.0897
16756TIP3    H171759   6.421   0.255   2.001  0.3641  0.6001  0.0581
16756TIP3    H271760   6.377   0.308   1.866  0.8004  0.8464  0.0097
16757TIP3   OH271761   0.960   5.735  11.660  0.5665  0.4532 -0.1465
16757TIP3    H171762   0.875   5.751  11.701  0.4918 -0.0070 -0.1135
16757TIP3    H271763   0.964   5.799  11.588  1.2240  2.1070  1.2989
16758TIP3   OH271764   0.332   1.776   4.421 -0.0468  0.0139  0.2900
16758TIP3    H171765   0.320   1.863   4.458 -2.8503  0.2936 -1.0072
16758TIP3    H271766   0.422   1.776   4.389 -0.4269  3.1555 -1.2362
16759TIP3   OH271767   1.239   1.178   4.864  0.6070  0.1694  0.3639
16759TIP3    H171768   1.169   1.243   4.863 -0.1720 -0.6334 -1.3507
16759TIP3    H271769   1.263   1.170   4.957 -2.6277 -0.6115  1.2913
16760TIP3   OH271770   6.083   6.699  17.222  0.3151  0.7933  0.5344
16760TIP3    H171771   5.989   6.700  17.209  0.1004 -1.2384  1.5066
16760TIP3    H271772   6.102   6.777  17.274 -0.5231  2.2237 -1.2141
16761TIP3   OH271773   4.289   0.493   0.413 -0.4654 -0.5026 -0.9061
16761TIP3    H171774   4.385   0.494   0.410 -0.4493 -0.2656 -0.4536
16761TIP3    H271775   4.266   0.401   0.420 -0.1816 -0.4659  1.1117
16762TIP3   OH271776   4.563   2.550  16.177 -0.6463 -0.2566  0.0571
16762TIP3    H171777   4.646   2.515  16.207  0.1902  0.7176 -1.0430
16762TIP3    H271778   4.570   2.551  16.082 -1.0237  1.8982  0.0038
16763TIP3   OH271779   0.673   0.997  11.527 -0.4957 -0.4830 -0.3583
16763TIP3    H171780   0.733   1.067  11.501  0.1643 -1.4421 -1.5358
16763TIP3    H271781   0.717   0.952  11.598  0.1461 -1.0889 -1.1183
16764TIP3   OH271782   1.709   3.880  16.662  0.4547 -0.1367  0.1347
16764TIP3    H171783   1.767   3.808  16.685  2.0992  1.1540  0.2840
16764TIP3    H271784   1.768   3.947  16.626 -1.1299  0.7289 -0.9916
16765TIP3   OH271785   2.082   5.432   1.966  0.5501 -0.1975 -0.2339
16765TIP3    H171786   2.042   5.419   2.052 -0.3499  1.3534 -0.3820
16765TIP3    H271787   2.025   5.386   1.906 -0.9151  1.6922 -0.3961
16766TIP3   OH271788   2.827   1.426  15.840 -0.0968 -0.0256  0.5415
16766TIP3    H171789   2.851   1.512  15.806 -1.5768 -0.1416 -0.9210
16766TIP3    H271790   2.836   1.434  15.935  2.0339  0.9956  0.3241
16767TIP3   OH271791   2.794   2.974   1.949  0.2485 -0.0009 -0.5279
16767TIP3    H171792   2.816   2.925   2.028  2.6855 -0.7339 -1.5627
16767TIP3    H271793   2.797   3.065   1.976 -2.0518 -0.2820  0.8949
16768TIP3   OH271794   4.566   0.747  13.890 -0.0544 -0.7336 -0.9533
16768TIP3    H171795   4.598   0.769  13.978 -0.7209  1.0388 -1.1214
16768TIP3    H271796   4.478   0.712  13.906 -0.7556  0.9331 -0.9792
16769TIP3   OH271797   1.609   3.178   1.906  0.1712 -0.1563  0.3995
16769TIP3    H171798   1.675   3.248   1.909 -0.1196  0.1749 -0.5020
16769TIP3    H271799   1.639   3.121   1.835  0.2962 -0.8441  0.9969
16770TIP3   OH271800   1.066   6.576  16.253 -0.1167 -0.4554 -0.7905
16770TIP3    H171801   1.096   6.524  16.178  1.4971 -1.6469  0.6117
16770TIP3    H271802   1.049   6.512  16.321 -0.1488  0.7007  0.3241
16771TIP3   OH271803   3.327   0.172   5.598  0.0184  0.1202 -0.6407
16771TIP3    H171804   3.405   0.227   5.607  0.3220 -0.4796  0.8005
16771TIP3    H271805   3.259   0.221   5.644  0.3027 -0.6871  0.6958
16772TIP3   OH271806   1.474   3.851  11.983 -0.3324 -0.2283 -0.2680
16772TIP3    H171807   1.454   3.867  11.891 -0.4448 -0.2772 -0.2517
16772TIP3    H271808   1.569   3.839  11.985 -0.3038 -0.0232 -0.3473
16773TIP3   OH271809   5.531   2.762   4.191 -0.5250 -0.5168 -0.0925
16773TIP3    H171810   5.437   2.753   4.174 -0.7579  1.8142 -0.4360
16773TIP3    H271811   5.568   2.787   4.107  0.2763 -0.6907  0.2061
16774TIP3   OH271812   1.481   4.626   1.912 -0.7983  0.2455 -0.6694
16774TIP3    H171813   1.473   4.718   1.937 -0.4160  0.2262 -0.4676
16774TIP3    H271814   1.428   4.579   1.977  0.5053  0.1597  0.3738
16775TIP3   OH271815   3.494   5.578   2.926  0.3509  0.2013  0.6776
16775TIP3    H171816   3.549   5.587   3.003  0.5377  0.6611  0.4961
16775TIP3    H271817   3.477   5.668   2.898 -0.9625  0.1067  1.0626
16776TIP3   OH271818   3.446   2.969  14.606 -0.3679  0.3932  0.1525
16776TIP3    H171819   3.372   2.980  14.666 -0.1937 -0.1230  0.4761
16776TIP3    H271820   3.490   3.053  14.606 -0.6404  0.5373  0.3885
16777TIP3   OH271821   3.110   6.648  10.363 -0.2782  0.2769  0.1384
16777TIP3    H171822   3.161   6.591  10.305  1.0480  2.4218 -0.9133
16777TIP3    H271823   3.020   6.642  10.329 -0.1633 -1.0445 -0.0105
16778TIP3   OH271824   5.649   3.891   2.772  0.0283 -0.1136 -0.7971
16778TIP3    H171825   5.677   3.949   2.843 -1.2328 -0.5089  0.0541
16778TIP3    H271826   5.602   3.820   2.816  0.3324 -1.0468 -1.9323
16779TIP3   OH271827   6.728   1.454   4.635  0.1768  0.0457 -0.4045
16779TIP3    H171828   6.797   1.482   4.576  2.2469 -0.1012  1.7967
16779TIP3    H271829   6.709   1.364   4.609  0.6742  0.1463 -1.1410
16780TIP3   OH271830   6.465   2.908  15.074  0.1375 -0.6399  0.3701
16780TIP3    H171831   6.516   2.973  15.025 -0.2035 -0.2722  0.4917
16780TIP3    H271832   6.471   2.828  15.022 -0.7082 -0.1051 -0.6012
16781TIP3   OH271833   0.284   3.863  15.339  0.0993  0.7028  0.3346
16781TIP3    H171834   0.261   3.890  15.428  1.6271  1.4925  0.5159
16781TIP3    H271835   0.339   3.786  15.351  0.0806  0.6437  0.0509
16782TIP3   OH271836   1.984   0.797   5.623  0.0451 -0.0501  0.4041
16782TIP3    H171837   2.014   0.861   5.688 -1.3428  0.8750  0.1799
16782TIP3    H271838   2.012   0.834   5.539  2.0298 -1.3517  0.4153
16783TIP3   OH271839   0.794   6.295   4.110 -0.5847  1.2782  0.4022
16783TIP3    H171840   0.822   6.385   4.095  0.0953  0.8719 -0.9640
16783TIP3    H271841   0.853   6.263   4.178 -1.1063  1.9796  1.2021
16784TIP3   OH271842   5.861   6.738  16.952  0.3583 -0.1000 -0.0517
16784TIP3    H171843   5.791   6.792  16.915  1.0774  0.2343 -0.9798
16784TIP3    H271844   5.855   6.750  17.046 -2.1388 -1.7147  0.0748
16785TIP3   OH271845   1.767   4.931   5.426 -0.2505  0.1828  0.0237
16785TIP3    H171846   1.771   4.947   5.331 -1.5113  0.4408 -0.0006
16785TIP3    H271847   1.698   4.990   5.457 -1.4423 -1.5293  0.7525
16786TIP3   OH271848   4.942   0.518  16.008 -0.0443  0.2492 -0.4274
16786TIP3    H171849   4.872   0.458  15.979 -0.5564  0.1287  0.9658
16786TIP3    H271850   4.896   0.586  16.056  0.8328 -0.1783  1.0751
16787TIP3   OH271851   0.076   2.183  11.363 -0.8462 -0.3433  0.0522
16787TIP3    H171852   0.049   2.141  11.281 -1.1901  1.5918 -0.8707
16787TIP3    H271853  -0.000   2.234  11.390  0.1165  1.0759  0.1814
16788TIP3   OH271854   2.218   5.585  12.352  0.0455  0.1403  0.0392
16788TIP3    H171855   2.266   5.536  12.418  0.3267  0.0194 -0.2476
16788TIP3    H271856   2.189   5.519  12.289 -0.6057  0.1968  0.2713
16789TIP3   OH271857   1.446   1.209   4.232  0.2735  0.3413 -0.2278
16789TIP3    H171858   1.401   1.227   4.150  1.1474  0.0945 -0.7732
16789TIP3    H271859   1.539   1.218   4.211  0.5202 -0.0289  0.6584
16790TIP3   OH271860   0.966   2.889  11.975 -0.1339 -0.1532 -0.1634
16790TIP3    H171861   1.009   2.954  11.918  1.5540 -1.2855 -0.2655
16790TIP3    H271862   1.008   2.806  11.952 -0.7890 -0.9563  1.3923
16791TIP3   OH271863   6.073   1.671   3.599  0.4221 -0.3294  0.8880
16791TIP3    H171864   6.150   1.692   3.546  0.3613  1.1038  1.3491
16791TIP3    H271865   6.082   1.724   3.678 -1.4451  0.5152  0.5797
16792TIP3   OH271866   5.504   5.015   0.477  0.3159 -0.3758  0.2655
16792TIP3    H171867   5.418   5.051   0.456 -0.4059 -2.1017  0.0831
16792TIP3    H271868   5.502   5.001   0.572  0.6123  0.1226  0.3452
16793TIP3   OH271869   3.138   1.684   3.833 -0.1799  0.5051 -0.6150
16793TIP3    H171870   3.134   1.590   3.818  1.5755  0.3446 -0.3732
16793TIP3    H271871   3.178   1.719   3.753 -1.1160  1.1055 -0.8369
16794TIP3   OH271872   2.144   5.339   2.792 -0.5256  0.4731 -0.0854
16794TIP3    H171873   2.195   5.385   2.859 -1.9784 -0.8331  2.0241
16794TIP3    H271874   2.065   5.391   2.781 -1.5878 -0.7398  1.3753
16795TIP3   OH271875   0.595   0.669  11.107 -0.4502  0.3496 -0.1722
16795TIP3    H171876   0.523   0.720  11.069 -1.2474 -0.6915 -0.0887
16795TIP3    H271877   0.609   0.709  11.193  0.4780  1.8691 -0.9911
16796TIP3   OH271878   3.253   0.709   3.215 -0.1794 -0.3427  0.2560
16796TIP3    H171879   3.215   0.788   3.176 -0.6393 -0.9564 -0.5707
16796TIP3    H271880   3.340   0.703   3.176 -0.4015 -0.6080 -0.2113
16797TIP3   OH271881   6.504   4.511  14.711  0.1269  0.0481  0.4548
16797TIP3    H171882   6.568   4.531  14.643 -0.5840 -2.2128 -1.0239
16797TIP3    H271883   6.452   4.440  14.673 -1.4321 -0.0967  2.7152
16798TIP3   OH271884   5.875   1.390   1.665  0.4046 -0.1224  0.2293
16798TIP3    H171885   5.871   1.457   1.596 -0.0754 -0.3402  0.0394
16798TIP3    H271886   5.813   1.419   1.731  0.5946 -0.1027  0.3987
16799TIP3   OH271887   5.723   0.811  11.775  0.3060  0.5393 -0.7937
16799TIP3    H171888   5.746   0.739  11.833 -0.1148  0.0544 -1.2170
16799TIP3    H271889   5.803   0.827  11.724  0.0986 -0.3287 -1.4201
16800TIP3   OH271890   5.379   3.097   0.549 -0.7567 -0.4375 -0.1213
16800TIP3    H171891   5.453   3.087   0.490 -1.1146 -0.5459 -0.5547
16800TIP3    H271892   5.310   3.044   0.510 -1.3577  0.3956 -0.2185
16801TIP3   OH271893   6.408   2.263  12.376  0.5682  0.0474 -0.1635
16801TIP3    H171894   6.429   2.249  12.469  1.0135 -0.4771 -0.3411
16801TIP3    H271895   6.470   2.209  12.329  1.4070  1.5407 -0.8381
16802TIP3   OH271896   0.438   3.756  10.834 -0.4674  0.0399  0.0069
16802TIP3    H171897   0.514   3.796  10.793  1.4623 -1.6135  1.7399
16802TIP3    H271898   0.403   3.695  10.769 -0.2549  0.7052 -0.7416
16803TIP3   OH271899   0.693   2.425   5.422 -0.6369  0.1444  0.2298
16803TIP3    H171900   0.669   2.483   5.494  1.1138 -1.2912  2.0917
16803TIP3    H271901   0.756   2.475   5.371 -0.4113  0.5057  0.8504
16804TIP3   OH271902   3.221   1.840   3.586  0.2625 -0.3002  0.6176
16804TIP3    H171903   3.161   1.912   3.569 -1.7213 -1.4501  2.2381
16804TIP3    H271904   3.295   1.880   3.632 -1.3891  0.5878  2.6346
16805TIP3   OH271905   1.495   1.136  10.808  0.0903 -0.6151  0.3889
16805TIP3    H171906   1.447   1.217  10.824  0.2084 -0.7512  1.5148
16805TIP3    H271907   1.445   1.091  10.740 -0.1775  0.2255  0.0218
16806TIP3   OH271908   6.388   1.741   3.756  0.3482 -0.4452 -0.1654
16806TIP3    H171909   6.338   1.678   3.808  2.1937 -1.2371  0.7487
16806TIP3    H271910   6.347   1.826   3.775 -0.3938 -1.0099  0.8560
16807TIP3   OH271911   6.142   0.138   2.057 -0.2360 -0.3875  0.3509
16807TIP3    H171912   6.234   0.133   2.031 -0.1571 -0.2328  0.5996
16807TIP3    H271913   6.109   0.049   2.047 -0.2949 -0.2656 -0.6014
16808TIP3   OH271914   0.517   5.188   3.912  0.0522 -0.1683 -0.1831
16808TIP3    H171915   0.589   5.241   3.878 -2.0521  1.4710 -2.4565
16808TIP3    H271916   0.478   5.242   3.981 -0.9306  0.4731 -1.2023
16809TIP3   OH271917   2.607   1.323  12.034 -0.3459  0.0979 -0.3109
16809TIP3    H171918   2.567   1.402  11.999 -2.4843 -0.6451  0.2953
16809TIP3    H271919   2.695   1.350  12.059 -1.0127  2.2766 -0.1003
16810TIP3   OH271920   5.272   0.580  14.167 -0.7990 -0.1470  0.3215
16810TIP3    H171921   5.270   0.502  14.111 -2.3576  0.0845  0.0103
16810TIP3    H271922   5.350   0.627  14.139 -0.7012 -0.8177 -0.5869
16811TIP3   OH271923   6.044   5.371  13.872  0.0899  0.0465 -0.0867
16811TIP3    H171924   5.995   5.314  13.813  1.1332  0.5419 -1.4949
16811TIP3    H271925   6.082   5.438  13.814  0.9807  0.6728  1.1794
16812TIP3   OH271926   5.675   0.282   5.627 -0.7939  0.3617  0.4537
16812TIP3    H171927   5.601   0.333   5.593 -0.9516 -0.5043 -0.5483
16812TIP3    H271928   5.724   0.256   5.549  0.3624  0.5898  1.0826
16813TIP3   OH271929   3.549   4.233  16.493  0.8202  0.1865  0.0359
16813TIP3    H171930   3.547   4.176  16.569  0.4217 -0.4675 -0.4482
16813TIP3    H271931   3.634   4.277  16.497  0.6618  0.4132  1.0299
16814TIP3   OH271932   6.152   2.358  13.207 -0.1409 -0.3848 -0.1406
16814TIP3    H171933   6.206   2.437  13.199 -0.2556 -0.2719  0.1663
16814TIP3    H271934   6.214   2.286  13.201  0.1789 -0.2407  1.1733
16815TIP3   OH271935   0.142   3.766   3.866  0.0418 -0.2993 -0.4289
16815TIP3    H171936   0.186   3.798   3.945 -0.1499 -0.7488 -0.1303
16815TIP3    H271937   0.128   3.673   3.883 -0.3009 -0.3292 -0.8568
16816TIP3   OH271938   5.862   2.461  15.424 -0.0222 -0.2596 -0.3582
16816TIP3    H171939   5.770   2.484  15.439 -0.8383 -2.0348 -2.1558
16816TIP3    H271940   5.910   2.511  15.490 -2.5081 -1.2788  2.4868
16817TIP3   OH271941   0.308   3.044   2.393 -0.6536  0.3934 -0.4977
16817TIP3    H171942   0.388   3.075   2.352  0.2904 -3.0440 -1.5414
16817TIP3    H271943   0.238   3.068   2.332  0.0370  0.3106 -1.3243
16818TIP3   OH271944   4.502   4.616  11.057  0.0015  0.1366  0.4239
16818TIP3    H171945   4.416   4.600  11.097 -0.1686 -1.0400 -0.3772
16818TIP3    H271946   4.483   4.635  10.966  0.4845  1.6500  0.6057
16819TIP3   OH271947   2.740   4.742  17.007  0.3030 -0.3591 -0.6055
16819TIP3    H171948   2.764   4.773  17.094  0.1895 -0.7565 -0.4324
16819TIP3    H271949   2.740   4.647  17.014 -1.6145 -0.3897 -0.4970
16820TIP3   OH271950   1.887   2.365   3.134 -0.5690  0.2111  0.0126
16820TIP3    H171951   1.956   2.359   3.200  0.9451  0.5385 -1.4894
16820TIP3    H271952   1.820   2.303   3.164  0.7454 -0.7577  1.0582
16821TIP3   OH271953   0.670   6.713  12.776 -0.3380  0.6096  0.2117
16821TIP3    H171954   0.579   6.688  12.761  0.2561 -1.6810  0.1039
16821TIP3    H271955   0.686   6.694  12.869  0.4315 -0.4689 -0.1226
16822TIP3   OH271956   5.193   4.028   4.516  0.3285  0.0741 -0.2994
16822TIP3    H171957   5.185   4.073   4.432  0.0683 -2.0703 -1.4872
16822TIP3    H271958   5.108   3.987   4.530 -0.0802  1.4307  1.7158
16823TIP3   OH271959   6.521   4.779  12.160  0.4327  0.0291 -0.0808
16823TIP3    H171960   6.582   4.734  12.101  1.3944  0.5108  0.5278
16823TIP3    H271961   6.520   4.869  12.128  1.5430  0.4791  1.0518
16824TIP3   OH271962   0.092   1.460  14.410 -0.3821 -0.0000 -0.0537
16824TIP3    H171963   0.132   1.454  14.323  3.4894  1.1424  1.4554
16824TIP3    H271964   0.124   1.383  14.456 -0.7569  0.4205  0.9312
16825TIP3   OH271965   2.707   2.416  15.146 -0.1579  0.0956  0.4112
16825TIP3    H171966   2.633   2.413  15.206 -2.3097 -0.6986 -2.0701
16825TIP3    H271967   2.668   2.439  15.062  2.6817  1.1350 -0.7341
16826TIP3   OH271968   4.277   2.366   2.574  0.7670  0.4939  0.4236
16826TIP3    H171969   4.335   2.326   2.508 -0.4070 -0.9713  0.2423
16826TIP3    H271970   4.201   2.394   2.524  0.7339  1.2155  0.8721
16827TIP3   OH271971   1.143   6.791  10.830  0.1225 -0.0361 -0.1398
16827TIP3    H171972   1.237   6.813  10.825  0.2175  0.0563  1.5179
16827TIP3    H271973   1.099   6.874  10.810  0.4085  0.0910 -0.2568
16828TIP3   OH271974   5.484   3.327   2.338  0.2835 -0.2681 -0.2441
16828TIP3    H171975   5.535   3.386   2.394  2.0150 -1.7782 -0.1590
16828TIP3    H271976   5.466   3.378   2.259 -0.0900  1.0601  0.6640
16829TIP3   OH271977   6.497   5.739  16.364  0.4618  0.3529  0.1672
16829TIP3    H171978   6.539   5.822  16.343  0.6521  0.2095 -0.0297
16829TIP3    H271979   6.404   5.758  16.362  0.4628  0.3233 -0.9494
16830TIP3   OH271980   5.320   4.461   5.829 -0.1921  0.1553 -0.1599
16830TIP3    H171981   5.369   4.398   5.881  0.5267  0.8955  0.0813
16830TIP3    H271982   5.292   4.527   5.892 -1.0355  0.0372 -0.3906
16831TIP3   OH271983   3.759   3.147   1.858  0.1881 -0.2787 -0.0924
16831TIP3    H171984   3.735   3.073   1.915  0.5295 -0.2474  0.1023
16831TIP3    H271985   3.753   3.112   1.769 -0.9142 -0.1597 -0.0675
16832TIP3   OH271986   6.105   3.932   4.993 -0.2227  0.3540 -0.1265
16832TIP3    H171987   6.193   3.938   4.955 -1.0673  0.4409 -2.2232
16832TIP3    H271988   6.113   3.973   5.079  2.0492 -0.7661  0.2769
16833TIP3   OH271989   4.784   2.939   0.270  0.1017  0.1694  0.4973
16833TIP3    H171990   4.814   2.854   0.240 -0.4721  0.6673 -1.6584
16833TIP3    H271991   4.815   2.945   0.360 -0.1895 -2.4530  0.8546
16834TIP3   OH271992   6.674   6.637  13.251  0.4733 -0.3132  0.3408
16834TIP3    H171993   6.645   6.711  13.304 -1.2862 -0.4765 -0.3383
16834TIP3    H271994   6.638   6.560  13.295 -0.9889 -0.4539 -1.0184
16835TIP3   OH271995   3.218   0.946   1.428  0.4882  0.0512  0.2838
16835TIP3    H171996   3.231   0.970   1.520  1.2816 -1.5906  0.6240
16835TIP3    H271997   3.124   0.955   1.414  0.3633  0.3114  1.2435
16836TIP3   OH271998   5.026   2.691   0.936 -0.1700 -0.3387  0.1128
16836TIP3    H171999   5.035   2.750   1.011 -1.3761 -0.5193  0.4119
16836TIP3    H272000   5.052   2.605   0.971 -1.4353 -0.5658  0.5536
16837TIP3   OH272001   4.034   3.312   0.652 -0.1227 -0.0916  0.0349
16837TIP3    H172002   3.970   3.269   0.595  0.6326  0.6948 -1.4502
16837TIP3    H272003   4.058   3.392   0.606 -0.8125  1.5329  2.2934
16838TIP3   OH272004   6.449   4.927   5.627 -0.6103 -0.0089 -0.3707
16838TIP3    H172005   6.483   4.988   5.693 -2.3194 -1.5945  2.1315
16838TIP3    H272006   6.385   4.979   5.578 -1.6281  0.3857  1.3334
16839TIP3   OH272007   5.441   5.512  16.019  0.8092 -0.1409  0.4942
16839TIP3    H172008   5.494   5.591  16.028 -0.1583  0.7724 -1.3649
16839TIP3    H272009   5.351   5.542  16.034  0.4319 -0.8889 -0.1972
16840TIP3   OH272010   3.426   3.186  16.974 -0.5211  0.0522  0.3453
16840TIP3    H172011   3.339   3.157  16.946 -0.1740 -2.3906  1.5070
16840TIP3    H272012   3.426   3.174  17.069  1.2906 -0.7750  0.2905
16841TIP3   OH272013   3.662   2.251  13.337 -0.4054  0.0376 -0.4694
16841TIP3    H172014   3.757   2.251  13.325 -0.2636  0.9846  0.4796
16841TIP3    H272015   3.631   2.179  13.282  1.1721 -2.4261  1.6525
16842TIP3   OH272016   2.656   4.316  14.746 -0.1524 -0.4733 -0.1156
16842TIP3    H172017   2.696   4.260  14.679 -0.6174 -2.4805  1.2061
16842TIP3    H272018   2.700   4.400  14.736  0.6096 -1.0644 -2.1585
16843TIP3   OH272019   1.936   1.559   1.691  0.4256 -0.1154  0.5289
16843TIP3    H172020   1.865   1.564   1.628  1.1322 -2.2693 -0.5341
16843TIP3    H272021   1.903   1.603   1.769 -1.4628  0.2926 -0.4552
16844TIP3   OH272022   0.394   4.928  12.171 -0.2717 -0.4003 -0.5574
16844TIP3    H172023   0.471   4.889  12.214 -0.2974  1.3688  1.2478
16844TIP3    H272024   0.320   4.894  12.221 -0.3893  0.7655  0.0800
16845TIP3   OH272025   6.138   3.261   1.662 -0.0279  0.4335  0.1941
16845TIP3    H172026   6.215   3.287   1.612 -0.7092  0.6357 -0.7807
16845TIP3    H272027   6.161   3.176   1.701  0.6632  0.4757 -0.1213
16846TIP3   OH272028   2.711   6.244  12.619 -0.2179 -0.3502 -0.5470
16846TIP3    H172029   2.710   6.270  12.526 -0.0584  1.7650 -0.0107
16846TIP3    H272030   2.804   6.239  12.641 -0.2058 -2.6098 -0.9036
16847TIP3   OH272031   4.222   0.530  12.836  0.0686  0.0557 -0.0614
16847TIP3    H172032   4.167   0.605  12.858 -1.3827 -0.9095 -0.2954
16847TIP3    H272033   4.162   0.455  12.835  1.3416 -0.9977 -0.5790
16848TIP3   OH272034   2.889   3.538  12.570 -0.0092  0.4233 -0.1280
16848TIP3    H172035   2.963   3.520  12.629  0.0161 -0.4089 -0.4016
16848TIP3    H272036   2.849   3.452  12.556 -1.3335  0.9379  0.4173
16849TIP3   OH272037   3.713   3.893   4.708 -0.5609 -0.1128 -0.6292
16849TIP3    H172038   3.711   3.954   4.782 -0.1559 -0.0933 -0.6315
16849TIP3    H272039   3.769   3.822   4.737  0.3523  0.3306 -1.2481
16850TIP3   OH272040   2.295   5.170  14.428  0.4010 -0.5885 -0.3296
16850TIP3    H172041   2.348   5.225  14.487 -0.5724 -1.2259  1.1906
16850TIP3    H272042   2.310   5.081  14.459 -1.0523 -0.8307 -0.2722
16851TIP3   OH272043   1.451   5.706  11.106 -0.3459 -0.1020  0.5988
16851TIP3    H172044   1.527   5.710  11.165  1.5491 -0.7078 -1.6174
16851TIP3    H272045   1.411   5.621  11.124  0.1855 -0.2627  1.0477
16852TIP3   OH272046   6.374   5.994  14.012 -0.3623 -0.2641  0.4591
16852TIP3    H172047   6.301   5.966  14.067 -0.3277  0.9512  1.1577
16852TIP3    H272048   6.338   6.000  13.924 -0.4980 -1.9362  0.3706
16853TIP3   OH272049   4.816   0.399  14.274  0.0304  0.3603 -0.5933
16853TIP3    H172050   4.884   0.442  14.327 -0.7284  0.7669  0.0836
16853TIP3    H272051   4.864   0.350  14.208  0.9528  3.1830 -2.1749
16854TIP3   OH272052   0.702   1.021  11.228  0.1100 -0.0677 -0.1592
16854TIP3    H172053   0.788   1.039  11.191  0.4357 -0.1181  0.5586
16854TIP3    H272054   0.655   1.105  11.221  1.1965  0.8108  2.0259
16855TIP3   OH272055   1.125   5.223  15.717 -0.3369 -0.1394 -0.2302
16855TIP3    H172056   1.179   5.290  15.675 -0.9007 -0.2597 -1.1787
16855TIP3    H272057   1.162   5.140  15.685 -0.2135 -0.2616  0.2222
16856TIP3   OH272058   0.193   3.498  16.036  0.3052  0.0837 -0.1665
16856TIP3    H172059   0.267   3.459  16.083  0.3842  1.8559  1.2740
16856TIP3    H272060   0.127   3.514  16.103 -0.8172 -0.1156 -1.1926
16857TIP3   OH272061   1.100   3.252   0.902 -0.7586 -0.6553 -0.2590
16857TIP3    H172062   1.188   3.215   0.907 -0.7017 -0.7132 -1.5492
16857TIP3    H272063   1.104   3.331   0.957 -0.7157 -2.1609  2.0464
16858TIP3   OH272064   6.030   6.645  10.499 -0.3705  0.3603  0.0765
16858TIP3    H172065   5.954   6.627  10.444  0.2861 -2.4104 -0.0744
16858TIP3    H272066   6.105   6.640  10.438  0.0743  1.3698  0.5187
16859TIP3   OH272067   4.840   6.192   1.527 -0.2237 -0.0447  0.4106
16859TIP3    H172068   4.819   6.268   1.580 -2.2434  0.9344 -1.5989
16859TIP3    H272069   4.827   6.117   1.585  0.3166  1.0618  2.0118
16860TIP3   OH272070   1.244   2.370   6.333 -0.4611 -0.1042  0.2603
16860TIP3    H172071   1.199   2.449   6.362  0.8593  0.5153  0.6674
16860TIP3    H272072   1.174   2.313   6.300 -1.3695  1.4734 -0.6477
16861TIP3   OH272073   1.215   1.543   4.587  0.7961 -0.2121 -0.3913
16861TIP3    H172074   1.130   1.528   4.628  1.5070 -0.1808  1.1511
16861TIP3    H272075   1.223   1.638   4.583  2.0618 -0.1186  2.4140
16862TIP3   OH272076   6.540   0.256  12.830  0.0321  0.1986  0.2616
16862TIP3    H172077   6.525   0.164  12.807 -0.0519  0.3464 -0.2787
16862TIP3    H272078   6.487   0.270  12.909 -0.2429 -0.1199  0.1351
16863TIP3   OH272079   2.889   4.602   2.007 -0.3308 -0.0611 -0.1425
16863TIP3    H172080   2.966   4.649   1.974  0.5122 -1.5611 -0.3991
16863TIP3    H272081   2.851   4.561   1.929 -0.4549 -0.6421  0.2195
16864TIP3   OH272082   4.454   4.469  12.611  0.4920 -0.1802  0.6907
16864TIP3    H172083   4.452   4.393  12.554 -3.1848 -1.0909  1.7535
16864TIP3    H272084   4.544   4.501  12.606  1.9447 -3.9486 -0.5803
16865TIP3   OH272085   4.164   4.176   0.051 -0.1942  0.6089  0.0123
16865TIP3    H172086   4.251   4.181   0.090 -0.0067 -0.7989 -0.1857
16865TIP3    H272087   4.172   4.110  -0.018 -1.0299  1.5983 -1.0780
16866TIP3   OH272088   1.235   2.865  13.526 -0.0251  0.5038  0.4277
16866TIP3    H172089   1.154   2.909  13.501  0.2905  0.0857 -1.5706
16866TIP3    H272090   1.303   2.911  13.476  0.8535  0.3004  1.4057
16867TIP3   OH272091   5.472   6.032  16.721 -0.1621 -0.3328 -0.3315
16867TIP3    H172092   5.423   6.048  16.640  0.0470  1.6730 -0.1078
16867TIP3    H272093   5.409   6.051  16.791  0.2260 -0.1530 -0.0311
16868TIP3   OH272094   5.586   3.756   5.392  0.0225  0.5120 -0.2059
16868TIP3    H172095   5.501   3.748   5.349 -0.5642  0.5048  0.9205
16868TIP3    H272096   5.594   3.676   5.444  0.5855  0.6604 -0.0597
16869TIP3   OH272097   6.175   5.521  10.927 -0.0813  0.0458 -0.3776
16869TIP3    H172098   6.116   5.594  10.911 -0.6377 -0.4047 -0.4055
16869TIP3    H272099   6.244   5.532  10.861 -0.2325  0.4647 -0.4719
16870TIP3   OH272100   4.258   2.404   5.204  0.0838 -0.2485  0.2074
16870TIP3    H172101   4.219   2.321   5.178 -0.7693  0.0744  0.4235
16870TIP3    H272102   4.323   2.381   5.271  0.1056 -0.7693  0.0077
16871TIP3   OH272103   4.900   1.262  12.955  0.3684 -0.7133  0.4539
16871TIP3    H172104   4.899   1.225  12.867  2.6246 -2.0623  0.9052
16871TIP3    H272105   4.958   1.338  12.948  0.3932 -0.7040  0.7291
16872TIP3   OH272106   6.169   5.997  14.185  0.0872  0.1659  0.1190
16872TIP3    H172107   6.082   6.036  14.199  0.5804  0.9859  1.0298
16872TIP3    H272108   6.168   5.918  14.239  0.4238  0.9801  1.3527
16873TIP3   OH272109   1.466   1.975   4.606 -0.2588 -0.4881 -0.0701
16873TIP3    H172110   1.487   2.068   4.614 -1.9449 -0.1106  0.2631
16873TIP3    H272111   1.425   1.967   4.520 -0.3182 -0.8865 -0.0058
16874TIP3   OH272112   1.552   2.765  13.601  0.2760  0.0396  0.4149
16874TIP3    H172113   1.577   2.696  13.662  2.0783  1.1048  0.9366
16874TIP3    H272114   1.547   2.844  13.654 -3.0310  0.2015  0.0842
16875TIP3   OH272115   3.193   1.823  13.182 -0.4191  0.8053 -0.1781
16875TIP3    H172116   3.267   1.827  13.122 -2.0704  1.2261 -2.3226
16875TIP3    H272117   3.150   1.740  13.163 -0.7012  0.7018  0.8182
16876TIP3   OH272118   5.758   4.943  12.327 -0.5186  0.1365  0.2682
16876TIP3    H172119   5.830   4.912  12.381 -0.9849 -0.2936  0.6586
16876TIP3    H272120   5.754   4.882  12.254 -0.8320 -0.1684  0.5364
16877TIP3   OH272121   0.245   6.484   1.398 -0.1432  0.0233  0.5445
16877TIP3    H172122   0.331   6.452   1.371  0.8904  1.6550  1.6486
16877TIP3    H272123   0.240   6.462   1.491 -0.2086  1.2928  0.8654
16878TIP3   OH272124   1.357   2.652   5.349 -0.7707 -0.6032  0.3699
16878TIP3    H172125   1.417   2.582   5.323  1.0508  0.7750  0.6166
16878TIP3    H272126   1.383   2.727   5.294 -0.7677  0.6544  2.0037
16879TIP3   OH272127   5.925   5.273  14.188 -0.1975  0.3155 -0.5710
16879TIP3    H172128   5.881   5.358  14.189  2.0305  1.5563 -0.3393
16879TIP3    H272129   5.984   5.276  14.263  0.2955 -1.2332 -0.8650
16880TIP3   OH272130   1.820   0.408   2.613 -0.0321 -0.1810 -0.4038
16880TIP3    H172131   1.860   0.459   2.543 -0.5784  0.5119 -0.2282
16880TIP3    H272132   1.783   0.474   2.672 -0.5657 -0.7758 -0.0600
16881TIP3   OH272133   6.724   4.682   4.194 -0.5932 -0.3922 -0.3658
16881TIP3    H172134   6.771   4.602   4.170 -2.2306 -1.2015 -1.0301
16881TIP3    H272135   6.682   4.662   4.277  0.4239  0.4277  0.3729
16882TIP3   OH272136   3.224   4.672  13.092  0.2072  0.3711 -0.4040
16882TIP3    H172137   3.296   4.622  13.054 -0.3398 -1.5485  0.9545
16882TIP3    H272138   3.229   4.655  13.186 -0.3569  2.4724  0.0693
16883TIP3   OH272139   1.231   0.212   4.249  0.4281 -0.2885  0.1216
16883TIP3    H172140   1.164   0.195   4.315 -0.8547  0.2928 -0.9672
16883TIP3    H272141   1.222   0.140   4.187  1.3889 -0.6466  0.3872
16884TIP3   OH272142   5.768   2.031   2.689 -0.5893 -0.1148 -0.7881
16884TIP3    H172143   5.737   2.044   2.779  1.9813  0.2356  0.1168
16884TIP3    H272144   5.714   2.091   2.637 -1.2815  0.6048  0.6960
16885TIP3   OH272145   0.896   4.459  10.229 -0.4503  0.5657  0.5469
16885TIP3    H172146   0.927   4.519  10.298  0.1273 -0.2897  1.0450
16885TIP3    H272147   0.839   4.398  10.275  0.1939 -0.2073  0.3307
16886TIP3   OH272148   5.148   1.970  15.263 -0.2988 -0.9621 -0.0616
16886TIP3    H172149   5.235   2.005  15.242 -1.0335 -0.2446 -2.2355
16886TIP3    H272150   5.144   1.970  15.358  1.0209  1.8330  0.0978
16887TIP3   OH272151   6.522   4.335  14.334 -0.2781  0.0271 -0.0726
16887TIP3    H172152   6.605   4.337  14.381  0.1960  0.6207 -0.9103
16887TIP3    H272153   6.457   4.315  14.401  0.8147 -3.2795  0.1684
16888TIP3   OH272154   2.807   0.722   3.136  0.6946 -0.2145  0.2894
16888TIP3    H172155   2.828   0.764   3.219 -1.2583  0.4689  0.4888
16888TIP3    H272156   2.757   0.644   3.160  1.5621 -0.9445 -0.2045
16889TIP3   OH272157   4.029   1.895  13.845  0.4109 -0.3061 -0.4937
16889TIP3    H172158   3.987   1.899  13.759  0.2959 -1.9930 -0.5519
16889TIP3    H272159   4.107   1.842  13.831  1.0715  0.4640  0.1961
16890TIP3   OH272160   3.951   6.700  15.004 -0.1952  0.5530  0.3211
16890TIP3    H172161   3.972   6.607  15.014  0.1196  0.4322 -1.2453
16890TIP3    H272162   4.036   6.743  15.003 -0.3197  0.8053  0.4929
16891TIP3   OH272163   5.732   3.125  10.954 -0.0722  0.1154  0.3838
16891TIP3    H172164   5.800   3.137  10.887 -0.6059 -1.9232 -0.6138
16891TIP3    H272165   5.661   3.081  10.907 -2.3740  2.6454  1.2491
16892TIP3   OH272166   2.177   2.786  11.989 -0.2988 -0.2452  0.1729
16892TIP3    H172167   2.154   2.697  11.964  1.2001 -0.7161  0.3618
16892TIP3    H272168   2.186   2.833  11.907 -0.9803 -0.3023  0.0668
16893TIP3   OH272169   4.861   3.334  11.996  0.1260  0.3209 -0.9371
16893TIP3    H172170   4.805   3.411  12.006  0.0318  0.1539 -0.1385
16893TIP3    H272171   4.818   3.281  11.928  1.2616  1.9041 -3.0329
16894TIP3   OH272172   2.435   1.032   1.855 -0.2958  0.4071  0.5642
16894TIP3    H172173   2.470   1.019   1.944 -1.6439 -1.4431  0.8982
16894TIP3    H272174   2.388   1.115   1.860  1.3704  1.3674  0.9682
16895TIP3   OH272175   2.432   5.511  14.323  0.5095 -0.2356  0.8690
16895TIP3    H172176   2.439   5.454  14.399  0.0873  0.1115  1.1676
16895TIP3    H272177   2.341   5.539  14.321 -0.0548 -1.9218 -0.9868
16896TIP3   OH272178   3.601   2.585   0.191 -0.2160 -0.0072 -0.6781
16896TIP3    H172179   3.627   2.669   0.228 -0.7948  0.3183 -1.0086
16896TIP3    H272180   3.656   2.574   0.113 -2.1366  1.4517 -2.3303
16897TIP3   OH272181   6.730   0.536  13.240  0.0924  0.2568  0.1260
16897TIP3    H172182   6.792   0.576  13.179 -1.8619 -0.3122 -2.4244
16897TIP3    H272183   6.649   0.585  13.226 -0.8533 -1.0035  1.0298
16898TIP3   OH272184   2.244   1.417  11.070 -0.2816  0.4010  0.2800
16898TIP3    H172185   2.295   1.354  11.121  0.8045  0.8345 -0.2543
16898TIP3    H272186   2.293   1.499  11.075  0.2372  0.2967 -2.0106
16899TIP3   OH272187   0.113   5.325  15.633 -0.1320  0.2363 -0.7360
16899TIP3    H172188   0.207   5.340  15.624 -0.4120  1.1348 -2.6656
16899TIP3    H272189   0.097   5.246  15.581 -0.2005 -1.0389  1.1371
16900TIP3   OH272190   3.070   1.571  15.018 -0.1942  0.2940 -0.0128
16900TIP3    H172191   3.063   1.605  15.106  1.4165  0.4985  0.0796
16900TIP3    H272192   3.112   1.641  14.968 -1.0985  0.1892 -0.9418
16901TIP3   OH272193   3.758   1.814   1.416  0.0002  0.0687 -0.0644
16901TIP3    H172194   3.821   1.771   1.473  0.7069  0.3328 -0.6381
16901TIP3    H272195   3.780   1.783   1.328 -0.1461  0.7947 -0.3636
16902TIP3   OH272196   3.172   2.972   3.842 -0.4834 -0.5174  0.1108
16902TIP3    H172197   3.089   2.937   3.876 -1.1578 -0.0681 -1.0197
16902TIP3    H272198   3.149   3.008   3.756  0.4653  1.4180  0.6277
16903TIP3   OH272199   4.150   6.357  13.314 -0.3701  0.2267  0.5039
16903TIP3    H172200   4.164   6.452  13.312 -2.2967  0.5601  0.8670
16903TIP3    H272201   4.087   6.344  13.385 -1.1646 -1.1749 -0.4192
16904TIP3   OH272202   2.662   4.060   4.216  0.2569 -0.4661  0.1757
16904TIP3    H172203   2.725   4.131   4.229  0.4372 -0.5535 -0.2149
16904TIP3    H272204   2.579   4.095   4.250  0.0890  0.3574 -1.0118
16905TIP3   OH272205   4.938   6.094  14.615  0.2870 -0.0146  0.6181
16905TIP3    H172206   4.855   6.141  14.603 -1.3552 -2.0567  2.8926
16905TIP3    H272207   4.990   6.152  14.671 -0.4794  0.3959  0.9307
16906TIP3   OH272208   0.835   0.406   2.726  0.3193  1.1820  0.1446
16906TIP3    H172209   0.908   0.420   2.786  0.2401 -0.2096  0.5870
16906TIP3    H272210   0.826   0.489   2.680  1.4046  1.7579  0.9338
16907TIP3   OH272211   5.357   4.713   3.666  0.4017  0.0456  0.0679
16907TIP3    H172212   5.408   4.634   3.649  0.6792 -0.0745  1.3821
16907TIP3    H272213   5.419   4.785   3.652  0.8072 -0.0784  1.1892
16908TIP3   OH272214   6.110   2.899  15.458  0.3133 -0.3827 -0.2602
16908TIP3    H172215   6.172   2.928  15.525  1.2413 -0.4420 -1.0707
16908TIP3    H272216   6.165   2.876  15.383 -0.5744 -1.7966 -0.5202
16909TIP3   OH272217   3.195   2.974  11.522  0.0666 -0.3459  0.0283
16909TIP3    H172218   3.233   2.905  11.467 -1.7065 -1.1613 -0.2357
16909TIP3    H272219   3.136   2.927  11.581 -0.4868  0.8675  0.4554
16910TIP3   OH272220   0.785   4.090  15.567 -0.0302 -0.5131  0.1633
16910TIP3    H172221   0.776   4.014  15.624 -0.0951 -0.3807  0.3284
16910TIP3    H272222   0.711   4.082  15.506 -0.8998  0.2027  1.0930
16911TIP3   OH272223   4.666   5.136   1.364 -0.0620 -0.2072 -0.5072
16911TIP3    H172224   4.659   5.069   1.433 -1.9088 -0.7598 -1.1781
16911TIP3    H272225   4.603   5.109   1.297  2.1759 -0.1058 -2.8244
16912TIP3   OH272226   1.017   6.258  13.347 -0.2841 -0.4385 -0.5251
16912TIP3    H172227   0.988   6.347  13.329 -0.1990 -0.2201  0.3797
16912TIP3    H272228   1.109   6.267  13.373  0.0244 -0.9061 -1.3816
16913TIP3   OH272229   2.076   3.394  14.159 -0.6333  0.1037  0.4544
16913TIP3    H172230   2.012   3.369  14.093 -1.1283 -0.1080  1.0015
16913TIP3    H272231   2.032   3.375  14.242  0.1727 -0.1233  0.8352
16914TIP3   OH272232   1.540   6.082  12.323  0.1575  0.2002  0.1120
16914TIP3    H172233   1.599   6.098  12.249 -0.2674  0.0671 -0.2566
16914TIP3    H272234   1.577   6.005  12.367  0.3993  0.2687  0.0288
16915TIP3   OH272235   4.431   0.392  16.190 -0.1098 -0.0541  0.2940
16915TIP3    H172236   4.369   0.462  16.209  1.1100  0.5521  2.3640
16915TIP3    H272237   4.466   0.415  16.103 -1.6888  0.3498 -0.2831
16916TIP3   OH272238   3.755   5.665  14.451  0.3153  0.3758  0.5733
16916TIP3    H172239   3.824   5.617  14.498  0.8534 -1.0700 -1.5486
16916TIP3    H272240   3.795   5.686  14.367 -1.4875  0.4983 -0.2842
16917TIP3   OH272241   4.805   0.360  11.895  0.4040  0.6898  0.4136
16917TIP3    H172242   4.898   0.382  11.893  0.4090  0.8089  1.3074
16917TIP3    H272243   4.763   0.430  11.846  0.8225  0.4138 -0.3487
16918TIP3   OH272244   2.344   2.944   0.929 -0.2001  0.9353 -0.5030
16918TIP3    H172245   2.427   2.914   0.891 -0.4454  1.5242 -1.5664
16918TIP3    H272246   2.368   3.018   0.984 -0.2503  2.9121 -2.9677
16919TIP3   OH272247   3.726   6.602  14.882  0.0664 -0.2343 -0.1249
16919TIP3    H172248   3.664   6.601  14.955 -0.7095 -0.3000 -0.7787
16919TIP3    H272249   3.807   6.637  14.921 -0.4704  0.1811  0.6548
16920TIP3   OH272250   3.330   4.844   5.564 -0.6613 -0.2521 -0.8003
16920TIP3    H172251   3.336   4.799   5.648  1.4553 -2.5459 -2.0537
16920TIP3    H272252   3.253   4.900   5.572 -1.4443 -1.5704  2.0723
16921TIP3   OH272253   0.454   5.658   0.788 -0.1472 -0.7379 -0.1669
16921TIP3    H172254   0.509   5.686   0.860  0.7017  0.9806 -1.4160
16921TIP3    H272255   0.365   5.681   0.814 -0.0308 -1.4508  0.9050
16922TIP3   OH272256   5.719   1.770  13.411  0.0389 -0.3136  0.2075
16922TIP3    H172257   5.732   1.694  13.355 -2.1164  2.1728 -4.2138
16922TIP3    H272258   5.807   1.801  13.432  1.0901 -0.5185 -3.3834
16923TIP3   OH272259   1.921   2.486   1.914  0.3750  0.9732  0.1327
16923TIP3    H172260   1.827   2.476   1.934 -0.2058  1.9226 -1.8476
16923TIP3    H272261   1.933   2.580   1.905  1.2066  0.7795 -0.9545
16924TIP3   OH272262   1.452   4.788   3.008  0.3604 -0.5071 -0.1413
16924TIP3    H172263   1.396   4.831   3.072 -0.2452 -0.1224 -0.9234
16924TIP3    H272264   1.484   4.859   2.952 -1.0342 -1.0876 -1.7396
16925TIP3   OH272265   3.524   5.606   1.030  0.6608  0.1920  0.1413
16925TIP3    H172266   3.454   5.624   0.968  1.3696 -2.3838 -1.5870
16925TIP3    H272267   3.498   5.525   1.073  1.5170  0.4463  1.1921
16926TIP3   OH272268   1.550   6.341  13.457  0.5835  0.2725 -0.2552
16926TIP3    H172269   1.488   6.412  13.440  0.8579  0.0268 -2.6071
16926TIP3    H272270   1.531   6.314  13.547 -3.1112 -0.1517 -0.9944
16927TIP3   OH272271   0.837   3.765  11.264 -0.2924 -0.2974  0.1833
16927TIP3    H172272   0.901   3.709  11.221 -1.4707  0.2351 -2.4634
16927TIP3    H272273   0.760   3.710  11.275  0.1614 -0.5890  2.2562
16928TIP3   OH272274   1.173   0.634   5.271 -0.4451 -0.0133  0.0963
16928TIP3    H172275   1.097   0.592   5.311  1.2645 -2.0320  1.4490
16928TIP3    H272276   1.235   0.644   5.343  1.1010  0.2742 -1.2287
16929TIP3   OH272277   6.438   3.237  13.089 -0.2607  0.3191  0.4036
16929TIP3    H172278   6.357   3.287  13.090 -0.5903 -0.1271 -1.1609
16929TIP3    H272279   6.507   3.303  13.083 -0.5181  0.6827  1.3558
16930TIP3   OH272280   3.398   1.573  11.620 -0.5464  0.5175 -0.2459
16930TIP3    H172281   3.451   1.606  11.547 -1.0373  2.3301  0.1550
16930TIP3    H272282   3.359   1.492  11.587  1.9413 -0.5740 -0.7505
16931TIP3   OH272283   6.530   1.467  12.223 -0.1740 -0.5179 -0.0036
16931TIP3    H172284   6.436   1.457  12.206 -0.0556 -1.1424 -0.3517
16931TIP3    H272285   6.553   1.550  12.181 -1.1296  1.1847  2.6282
16932TIP3   OH272286   1.602   0.886  13.714  0.5830  0.0133 -0.1524
16932TIP3    H172287   1.657   0.817  13.750 -1.3958 -1.6301 -0.1185
16932TIP3    H272288   1.605   0.956  13.780  0.8326 -0.9612  0.8986
16933TIP3   OH272289   2.957   4.112  10.308  0.2430  0.2766 -0.2154
16933TIP3    H172290   2.973   4.185  10.248 -0.5750 -0.8782 -1.9039
16933TIP3    H272291   2.862   4.101  10.308  0.2613  0.0222  1.0331
16934TIP3   OH272292   6.320   4.988  15.302  0.5075 -0.0602 -0.3782
16934TIP3    H172293   6.312   5.083  15.295 -1.4766 -0.2171 -1.0236
16934TIP3    H272294   6.229   4.957  15.301  1.0721 -1.9004  1.0164
16935TIP3   OH272295   3.953   4.698   5.341  0.5928 -0.0007 -0.3138
16935TIP3    H172296   4.034   4.724   5.384  1.3938 -1.4098 -0.9379
16935TIP3    H272297   3.972   4.700   5.248 -0.0176 -0.5623 -0.4609
16936TIP3   OH272298   2.995   5.946  11.390 -0.1980 -0.3570  0.9084
16936TIP3    H172299   2.953   5.936  11.305  1.4360 -0.3835  0.0713
16936TIP3    H272300   3.088   5.947  11.371  0.1983 -0.0826  2.6819
16937TIP3   OH272301   3.123   4.810  16.326 -0.5017  0.2297 -0.1894
16937TIP3    H172302   3.145   4.779  16.238 -1.8417 -0.1452 -0.4138
16937TIP3    H272303   3.188   4.878  16.345 -0.2349  0.3575 -1.4991
16938TIP3   OH272304   1.684   4.402  14.520  0.3929  0.3026 -0.3198
16938TIP3    H172305   1.662   4.442  14.604 -1.4377 -0.0272 -0.6057
16938TIP3    H272306   1.779   4.392  14.522  0.3590 -0.0356  1.8673
16939TIP3   OH272307   5.947   2.289  17.169  0.1979  0.1704 -0.2137
16939TIP3    H172308   5.874   2.351  17.175  0.7321  0.8576 -0.6385
16939TIP3    H272309   5.921   2.216  17.225 -0.0015  1.2399  1.1583
16940TIP3   OH272310   1.887   0.710   0.622 -0.5129 -0.5156  0.2870
16940TIP3    H172311   1.857   0.801   0.626 -1.6648 -0.8742  0.4010
16940TIP3    H272312   1.806   0.660   0.615  0.1667 -1.4474 -1.5305
16941TIP3   OH272313   6.463   1.519  13.740 -0.0333 -1.1241 -0.5264
16941TIP3    H172314   6.441   1.448  13.679 -0.0079 -1.2689 -0.3688
16941TIP3    H272315   6.436   1.485  13.826  3.9585 -2.8168  0.2683
16942TIP3   OH272316   3.794   0.515  11.246  0.2717  0.3263  0.3573
16942TIP3    H172317   3.761   0.476  11.327  0.1497 -0.4463 -0.0556
16942TIP3    H272318   3.857   0.581  11.275  1.5548 -1.1497  1.0461
16943TIP3   OH272319   3.321   2.369  14.958 -0.4543 -0.0594  0.3662
16943TIP3    H172320   3.241   2.421  14.946  0.0841  1.2298  1.9438
16943TIP3    H272321   3.365   2.410  15.033  1.3523 -1.1628 -0.0274
16944TIP3   OH272322   4.051   1.138  11.349  0.1252  0.1008  0.1262
16944TIP3    H172323   4.090   1.070  11.403  0.6312 -0.1264 -0.5124
16944TIP3    H272324   3.977   1.095  11.306  0.1971  0.0615  0.0398
16945TIP3   OH272325   6.325   3.816   0.078  0.0669  0.1628 -0.5869
16945TIP3    H172326   6.266   3.769   0.138  0.6360  0.4218  0.1954
16945TIP3    H272327   6.275   3.893   0.051 -0.5939 -0.4918 -1.2962
16946TIP3   OH272328   3.361   3.199   1.362  0.1497  0.3089 -0.1067
16946TIP3    H172329   3.360   3.104   1.352  0.9635  0.2471  0.3142
16946TIP3    H272330   3.412   3.232   1.288  0.0092  0.4010 -0.1625
16947TIP3   OH272331   1.298   5.515   1.708  0.2736 -0.2294  0.1921
16947TIP3    H172332   1.289   5.537   1.801 -0.7124  0.1825  0.0089
16947TIP3    H272333   1.321   5.597   1.666 -0.5954 -0.1334 -0.1057
16948TIP3   OH272334   5.385   2.323   3.294  0.0932  0.0383  0.3334
16948TIP3    H172335   5.449   2.394   3.287  0.4357 -0.2618  0.3993
16948TIP3    H272336   5.319   2.357   3.354 -0.5987  0.9228 -0.8969
16949TIP3   OH272337   2.825   2.672   5.207  0.2752 -0.1038  0.4542
16949TIP3    H172338   2.847   2.644   5.295  1.4318  0.8665  0.4949
16949TIP3    H272339   2.847   2.598   5.151  1.0189 -0.1553  0.8134
16950TIP3   OH272340   4.079   5.137   1.894 -0.2502  0.6948  0.2834
16950TIP3    H172341   4.049   5.093   1.814  0.5237  0.1948  0.2623
16950TIP3    H272342   4.016   5.209   1.906 -0.4611  0.6962 -0.6981
16951TIP3   OH272343   3.727   0.664  12.846 -0.4674 -0.0321 -0.6338
16951TIP3    H172344   3.728   0.754  12.877  0.8893 -0.4363  0.6392
16951TIP3    H272345   3.650   0.658  12.791 -1.1230  1.6463  0.0431
16952TIP3   OH272346   3.345   3.595  15.897 -0.3921  0.2081 -0.4238
16952TIP3    H172347   3.437   3.572  15.907 -0.4581 -0.1785 -0.7132
16952TIP3    H272348   3.341   3.686  15.926  0.1866  0.4123 -0.9661
16953TIP3   OH272349   5.647   0.661   4.864 -0.1959 -0.2057 -0.5806
16953TIP3    H172350   5.636   0.755   4.853  1.5196  0.2242  0.8270
16953TIP3    H272351   5.651   0.626   4.775 -0.1431  1.1455 -1.1278
16954TIP3   OH272352   5.955   1.669  12.531 -0.7292  0.2891  0.2223
16954TIP3    H172353   5.982   1.757  12.558  1.4614  0.2483 -1.5189
16954TIP3    H272354   6.010   1.611  12.582 -3.0956 -0.2304  2.3599
16955TIP3   OH272355   0.845   3.190  14.987  0.3381  0.5235  0.4078
16955TIP3    H172356   0.858   3.096  14.977  0.4416  0.6121 -0.4195
16955TIP3    H272357   0.773   3.198  15.049  0.1406 -0.1062  0.2695
16956TIP3   OH272358   4.671   6.357  12.751 -0.1998 -0.0301 -0.3790
16956TIP3    H172359   4.650   6.437  12.800 -3.0188 -0.1891 -1.1079
16956TIP3    H272360   4.747   6.381  12.698  1.0393  1.0955  1.7435
16957TIP3   OH272361   4.481   5.443   3.859  0.1032  0.4312 -0.6097
16957TIP3    H172362   4.399   5.465   3.816 -0.3344 -1.9192 -1.1580
16957TIP3    H272363   4.502   5.519   3.913 -2.3945  1.1308 -0.4987
16958TIP3   OH272364   1.640   5.273  10.482 -0.2331  0.0953  0.1015
16958TIP3    H172365   1.588   5.238  10.555  0.7481 -2.7777 -0.4580
16958TIP3    H272366   1.612   5.221  10.407  1.3893  0.4860 -0.7984
16959TIP3   OH272367   4.012   3.372  10.439  0.1159  0.0625 -0.2219
16959TIP3    H172368   3.946   3.440  10.452 -0.2846 -0.5080  0.8854
16959TIP3    H272369   4.091   3.406  10.479  0.0554  0.0873 -0.1229
16960TIP3   OH272370   2.445   2.678  16.830 -0.0755  0.0025 -0.5568
16960TIP3    H172371   2.476   2.720  16.749 -1.4477  0.8230 -0.6836
16960TIP3    H272372   2.382   2.740  16.866  0.2017 -0.5539  0.9358
16961TIP3   OH272373   4.939   0.384   2.825  0.2823 -0.0550 -0.1874
16961TIP3    H172374   4.909   0.444   2.893  1.5696 -1.6979  1.9573
16961TIP3    H272375   4.931   0.434   2.744  0.8603  2.8736  1.4075
16962TIP3   OH272376   5.317   3.748   5.663  0.3275 -0.1365 -0.0234
16962TIP3    H172377   5.375   3.674   5.684 -0.6691 -1.6797 -2.2545
16962TIP3    H272378   5.231   3.719   5.692 -0.0264  0.2430 -0.6773
16963TIP3   OH272379   0.440   4.901   1.445 -0.0099  0.6031 -0.2545
16963TIP3    H172380   0.403   4.989   1.449 -0.4827  0.3673  2.1764
16963TIP3    H272381   0.366   4.844   1.423 -0.3349  0.5374  0.9448
16964TIP3   OH272382   1.132   0.192  13.731 -0.0755  0.5168 -0.1825
16964TIP3    H172383   1.070   0.214  13.662  0.8057  1.0946 -0.8220
16964TIP3    H272384   1.155   0.276  13.770  2.3122  0.7148 -1.7546
16965TIP3   OH272385   5.527   0.102  16.560 -0.0887 -0.6616  0.3857
16965TIP3    H172386   5.465   0.040  16.521  1.9300 -1.5780 -1.5925
16965TIP3    H272387   5.528   0.081  16.653 -2.7029 -0.5721  0.5188
16966TIP3   OH272388   2.725   0.535  16.050 -0.0668  0.4488 -0.6813
16966TIP3    H172389   2.695   0.573  16.132  0.0570  1.2574 -1.0084
16966TIP3    H272390   2.801   0.483  16.074  0.0858  0.8414 -0.3130
16967TIP3   OH272391   0.207   4.924  17.180 -0.0416 -0.0230  0.2497
16967TIP3    H172392   0.274   4.986  17.153 -0.1675 -0.2711 -0.6778
16967TIP3    H272393   0.126   4.957  17.140 -1.1202  1.8505  3.6030
16968TIP3   OH272394   5.482   3.870  15.332 -0.2968  0.8896 -0.6169
16968TIP3    H172395   5.485   3.814  15.409  0.4111  0.0026 -1.2688
16968TIP3    H272396   5.560   3.845  15.282  0.4852  2.9921 -0.5575
16969TIP3   OH272397   2.909   4.266   4.518  0.3064 -0.2691 -0.3860
16969TIP3    H172398   2.858   4.308   4.587  1.4192  0.5096 -0.0154
16969TIP3    H272399   2.847   4.207   4.474 -0.2519 -1.3662  1.7429
16970TIP3   OH272400   1.971   2.910   3.277  0.4546  0.4346 -0.4151
16970TIP3    H172401   1.971   2.822   3.315 -2.4181  0.6237  0.2407
16970TIP3    H272402   2.043   2.955   3.322  1.6942 -1.3971 -0.4279
16971TIP3   OH272403   3.043   2.544   1.347  0.1409 -0.0516 -0.3598
16971TIP3    H172404   3.061   2.604   1.275 -1.8591 -0.5738 -1.3712
16971TIP3    H272405   2.965   2.579   1.389  0.9630 -0.0565  1.2548
16972TIP3   OH272406   1.333   0.698   2.817  0.3707 -0.1147  0.3507
16972TIP3    H172407   1.360   0.672   2.906  0.8436 -1.1094 -0.0726
16972TIP3    H272408   1.359   0.790   2.811 -0.1455  0.1260  1.4247
16973TIP3   OH272409   5.110   3.481   2.122  0.4852 -0.2097  0.8559
16973TIP3    H172410   5.016   3.473   2.136  0.5055 -1.3919  0.4381
16973TIP3    H272411   5.136   3.554   2.178 -0.9609  1.3893 -0.4493
16974TIP3   OH272412   6.198   1.847  11.539 -0.2818 -0.6908 -0.3768
16974TIP3    H172413   6.164   1.803  11.461  0.2317  0.0782 -1.0549
16974TIP3    H272414   6.286   1.875  11.514 -0.4102  0.2638  0.2056
16975TIP3   OH272415   3.980   2.107  14.260 -0.2609 -0.0800  0.4475
16975TIP3    H172416   3.917   2.155  14.207 -0.5897 -2.3911 -1.4231
16975TIP3    H272417   4.065   2.133  14.226 -0.1410  2.1234  2.1747
16976TIP3   OH272418   0.111   1.528  12.382 -1.0688  0.1581  0.1320
16976TIP3    H172419   0.058   1.595  12.339 -3.4259 -0.0243  2.4978
16976TIP3    H272420   0.170   1.577  12.439 -2.9856  0.3684  2.0784
16977TIP3   OH272421   1.144   0.594   2.035  0.3469  0.1832 -0.0514
16977TIP3    H172422   1.130   0.623   2.125 -3.1068 -1.8256  0.2156
16977TIP3    H272423   1.153   0.499   2.041  0.8610  0.0868 -1.7814
16978TIP3   OH272424   0.654   4.097   4.329  0.0397  0.6760  0.1930
16978TIP3    H172425   0.684   4.127   4.415 -0.3821 -0.9214  0.9520
16978TIP3    H272426   0.712   4.138   4.266  1.0845  0.9828  1.3356
16979TIP3   OH272427   0.404   5.979   1.019  0.1182 -0.6441  0.4724
16979TIP3    H172428   0.340   6.051   1.023  0.3652 -0.3785 -0.1270
16979TIP3    H272429   0.431   5.965   1.110 -0.9191 -0.8742  0.7520
16980TIP3   OH272430   0.854   5.077   6.508  0.4812  0.6279  0.0136
16980TIP3    H172431   0.830   4.984   6.509  0.8722  0.4868  2.2612
16980TIP3    H272432   0.772   5.123   6.488  0.0040 -0.1669  0.1214
16981TIP3   OH272433   1.713   4.576  15.839 -0.4720  0.4422 -0.1645
16981TIP3    H172434   1.621   4.551  15.827 -0.2682 -0.6081  0.3335
16981TIP3    H272435   1.761   4.518  15.781 -0.2174  2.1627 -1.7458
16982TIP3   OH272436   5.142   4.796  16.830  0.5955  0.4162 -0.0274
16982TIP3    H172437   5.196   4.870  16.803 -0.2616  0.8308 -0.6575
16982TIP3    H272438   5.058   4.835  16.853 -0.5820 -0.5298 -2.3803
16983TIP3   OH272439   3.803   4.632   0.750  0.2151  0.5381  0.1536
16983TIP3    H172440   3.770   4.543   0.734 -1.4740  0.8721  1.4329
16983TIP3    H272441   3.896   4.628   0.727 -0.1153 -1.2076 -1.0531
16984TIP3   OH272442   2.538   3.056   6.544 -0.3298 -0.3884  0.6396
16984TIP3    H172443   2.608   3.090   6.600 -0.6025  1.6062 -0.1423
16984TIP3    H272444   2.458   3.098   6.577 -0.6419  0.0073 -0.5657
16985TIP3   OH272445   2.576   5.546   5.194 -0.1238  0.1276 -0.2196
16985TIP3    H172446   2.620   5.611   5.139 -0.6131  0.4449 -0.2430
16985TIP3    H272447   2.571   5.586   5.280  0.6595 -0.3787  0.0680
16986TIP3   OH272448   5.220   5.731   1.945  0.0972 -0.4468 -0.3294
16986TIP3    H172449   5.258   5.769   2.024  0.2286  1.1247 -1.1072
16986TIP3    H272450   5.263   5.646   1.936 -0.9863 -1.3445  2.0699
16987TIP3   OH272451   3.889   1.151  10.936  0.9435 -0.1092 -0.1949
16987TIP3    H172452   3.834   1.158  10.857 -1.3119  0.9541  1.3491
16987TIP3    H272453   3.881   1.237  10.978  1.2789 -0.9480  1.6906
16988TIP3   OH272454   4.495   0.315  12.457 -0.0294 -0.0067 -0.0102
16988TIP3    H172455   4.428   0.249  12.473  0.8051 -0.3103  2.8139
16988TIP3    H272456   4.452   0.381  12.402 -2.0119 -1.1150  0.1369
16989TIP3   OH272457   6.682   2.966   6.340  0.2913  0.2605  1.2664
16989TIP3    H172458   6.729   3.039   6.300 -0.9267  0.3241 -0.1534
16989TIP3    H272459   6.746   2.924   6.397  1.6413  1.1434  0.4497
16990TIP3   OH272460   3.295   2.067   6.180 -0.2205 -0.1965  0.1040
16990TIP3    H172461   3.251   2.105   6.256 -1.3948 -1.0122 -0.1332
16990TIP3    H272462   3.226   2.018   6.135  1.2978 -3.1360  0.7187
16991TIP3   OH272463   1.725   0.049  14.709  0.1884  0.0501 -0.1553
16991TIP3    H172464   1.689  -0.038  14.692  0.8773  0.0796 -1.9972
16991TIP3    H272465   1.779   0.068  14.633  2.3845  0.9074  1.4927
16992TIP3   OH272466   1.011   5.788   1.696 -0.8592  0.5354  0.1713
16992TIP3    H172467   1.037   5.865   1.646 -1.1045  0.0203 -0.7967
16992TIP3    H272468   1.060   5.794   1.778 -1.4707  2.1096  0.4465
16993TIP3   OH272469   0.698   3.771   0.882 -0.4600 -0.2660 -0.0970
16993TIP3    H172470   0.628   3.836   0.872 -1.5202 -1.3687 -0.1354
16993TIP3    H272471   0.777   3.822   0.893 -1.0445  1.0451 -1.5737
16994TIP3   OH272472   4.863   3.724  14.766  0.3292 -0.3167  0.0074
16994TIP3    H172473   4.951   3.733  14.729  1.0073  2.5546  1.9962
16994TIP3    H272474   4.812   3.793  14.725 -0.9368 -1.6722 -0.7801
16995TIP3   OH272475   0.614   3.293  11.996 -0.3597 -0.4375 -0.1132
16995TIP3    H172476   0.538   3.240  12.020  0.1494 -0.9009  0.4877
16995TIP3    H272477   0.583   3.383  12.000 -0.4015 -0.5063  1.9383
16996TIP3   OH272478   6.017   3.573   6.110  0.1631  0.4508 -0.0933
16996TIP3    H172479   6.094   3.516   6.104  1.4026  1.0789  4.9446
16996TIP3    H272480   5.950   3.520   6.153  0.4742  1.8505  2.3368
16997TIP3   OH272481   5.746   0.143   4.656 -0.1348  0.0610 -0.4819
16997TIP3    H172482   5.674   0.090   4.690  0.6083  0.0676  1.2125
16997TIP3    H272483   5.806   0.153   4.730  0.6604  1.7104 -1.2821
16998TIP3   OH272484   2.154   0.544  12.997 -0.3665 -0.2196 -0.3276
16998TIP3    H172485   2.118   0.623  13.039 -1.3524 -0.7982 -0.0455
16998TIP3    H272486   2.101   0.472  13.032 -0.6040 -0.8350 -1.8471
16999TIP3   OH272487   1.996   4.769  11.786 -0.1448 -0.3036 -0.3674
16999TIP3    H172488   2.083   4.791  11.753  1.3156 -0.9374  2.6568
16999TIP3    H272489   1.957   4.854  11.807  1.7683  0.0276  2.6045
17000TIP3   OH272490   6.045   1.070  13.815  0.2161 -0.3637 -0.3762
17000TIP3    H172491   6.124   1.061  13.869 -0.0278  1.9051  0.5032
17000TIP3    H272492   5.996   0.990  13.830  0.7129 -0.3043  1.9213
17001TIP3   OH272493   2.413   4.565   3.363  0.0296 -0.3811  0.0020
17001TIP3    H172494   2.392   4.621   3.437 -0.1152  0.4650 -0.6613
17001TIP3    H272495   2.367   4.483   3.381 -0.0805 -0.1560  0.7926
17002TIP3   OH272496   5.145   2.059   0.356  0.1503 -0.0327  0.5484
17002TIP3    H172497   5.197   2.138   0.341 -0.2674 -0.0250 -1.0131
17002TIP3    H272498   5.201   1.988   0.324  0.0641 -0.2688  0.9084
17003TIP3   OH272499   6.525   4.685  14.244 -0.0996  0.4421  0.7043
17003TIP3    H172500   6.456   4.632  14.284 -1.3613 -0.1308 -2.0133
17003TIP3    H272501   6.605   4.635  14.261 -0.7443 -0.4083  1.3999
17004TIP3   OH272502   5.951   5.934  16.504 -0.3910 -0.2671  0.4740
17004TIP3    H172503   5.969   5.877  16.578  0.6889 -0.8710 -0.2138
17004TIP3    H272504   5.872   5.898  16.464  0.2378 -1.2653  0.0882
17005TIP3   OH272505   1.169   3.968   1.840  0.0658  0.0417 -0.1989
17005TIP3    H172506   1.082   3.953   1.876 -0.2343  2.9421  0.4868
17005TIP3    H272507   1.223   3.990   1.915  1.1704 -0.7298 -0.7403
17006TIP3   OH272508   2.598   4.406   2.931 -0.1874 -0.3974  0.1509
17006TIP3    H172509   2.646   4.465   2.989 -0.1497 -1.3256  1.1101
17006TIP3    H272510   2.600   4.321   2.977 -0.1414 -1.1714 -1.2373
17007TIP3   OH272511   6.403   4.262   4.771  0.0395  0.4740 -0.1791
17007TIP3    H172512   6.415   4.241   4.678  1.8665  0.5510 -0.0120
17007TIP3    H272513   6.312   4.240   4.789  0.2480 -1.7755 -1.4350
17008TIP3   OH272514   0.902   3.974  13.601  0.2341 -0.0090 -0.2564
17008TIP3    H172515   0.887   3.992  13.694  1.2179  2.2615 -0.4582
17008TIP3    H272516   0.969   3.906  13.601 -0.1525 -0.4177  0.6781
17009TIP3   OH272517   3.476   2.104   0.990 -0.4782  0.4700 -0.2925
17009TIP3    H172518   3.436   2.023   0.959  0.2929 -0.2092  0.4394
17009TIP3    H272519   3.570   2.092   0.973 -0.3292  1.1001  0.0629
17010TIP3   OH272520   2.830   3.393   3.368  0.0953  0.1580  0.2196
17010TIP3    H172521   2.891   3.336   3.415  0.1435  1.0891  1.3332
17010TIP3    H272522   2.816   3.467   3.427 -0.6863  0.8533 -0.8006
17011TIP3   OH272523   3.606   5.515   1.644  0.6152  0.2332 -0.8620
17011TIP3    H172524   3.634   5.424   1.648 -0.0982  0.0215  3.4208
17011TIP3    H272525   3.533   5.515   1.582  2.4996 -1.3681 -3.3102
17012TIP3   OH272526   6.444   0.310   4.414  0.5379 -0.1138 -0.1492
17012TIP3    H172527   6.363   0.339   4.456 -0.4522 -1.2367 -1.2113
17012TIP3    H272528   6.434   0.336   4.323  2.7716  2.5419  0.2483
17013TIP3   OH272529   4.453   3.600   5.161  0.9265 -0.3359  0.2878
17013TIP3    H172530   4.461   3.638   5.074  1.8086  0.2655  0.6214
17013TIP3    H272531   4.466   3.506   5.148 -0.4610 -0.4487 -0.4287
17014TIP3   OH272532   4.266   3.644   2.649 -0.4950  0.0615  0.4031
17014TIP3    H172533   4.240   3.632   2.740 -1.4654  1.0909  0.3025
17014TIP3    H272534   4.307   3.730   2.647 -2.2407  0.9393 -0.4254
17015TIP3   OH272535   0.710   1.664  14.009  0.3046  0.0775 -0.2114
17015TIP3    H172536   0.671   1.750  13.994  1.5758  1.1191  1.9571
17015TIP3    H272537   0.719   1.659  14.105  1.5133 -1.9109 -0.3813
17016TIP3   OH272538   0.583   3.083  15.895  0.0105  0.3269 -0.2056
17016TIP3    H172539   0.578   2.998  15.938 -0.7392  0.5358  0.1372
17016TIP3    H272540   0.654   3.129  15.939  1.1631 -0.5092 -1.1210
17017TIP3   OH272541   3.799   6.733   2.327  0.2898  0.8842  0.4224
17017TIP3    H172542   3.852   6.663   2.289  2.0174  1.4531  1.6585
17017TIP3    H272543   3.758   6.693   2.404 -0.5644  0.6408 -0.1399
17018TIP3   OH272544   1.541   2.362  13.480 -0.3379 -0.5720  0.4256
17018TIP3    H172545   1.610   2.340  13.417  0.0675  0.8068  0.3713
17018TIP3    H272546   1.576   2.434  13.531 -1.7117  0.1124  0.4517
17019TIP3   OH272547   1.375   3.184   4.450  0.2148 -0.5128 -0.3966
17019TIP3    H172548   1.388   3.246   4.378 -1.6333 -1.1060 -1.3180
17019TIP3    H272549   1.392   3.234   4.529  0.8692  0.5666 -1.1889
17020TIP3   OH272550   3.704   2.632  12.934  0.2506  0.6080  0.1552
17020TIP3    H172551   3.619   2.656  12.970  0.3154 -0.3569  1.0044
17020TIP3    H272552   3.758   2.613  13.011  0.7939 -0.2254 -0.4097
17021TIP3   OH272553   2.985   1.263  11.400  0.4658 -0.0763 -0.7054
17021TIP3    H172554   3.064   1.307  11.369  1.5281 -0.4863  1.2725
17021TIP3    H272555   3.005   1.170  11.393 -0.3997 -0.2257 -1.4860
17022TIP3   OH272556   5.616   0.917  14.549  0.3030 -0.5317 -0.2769
17022TIP3    H172557   5.526   0.886  14.537 -0.0560  0.1496  0.5612
17022TIP3    H272558   5.654   0.854  14.611 -0.1452  0.1303  0.7100
17023TIP3   OH272559   1.390   5.525   5.785 -0.1842 -0.3300 -0.0603
17023TIP3    H172560   1.327   5.507   5.854  1.5696 -0.4089  1.6016
17023TIP3    H272561   1.359   5.607   5.745 -1.7708 -0.8073  0.1186
17024TIP3   OH272562   5.294   5.125   0.655 -0.0556 -0.1989 -0.5625
17024TIP3    H172563   5.285   5.220   0.662  0.0158 -0.3015  1.8655
17024TIP3    H272564   5.207   5.094   0.629 -0.8909  0.3713  1.3932
17025TIP3   OH272565   5.781   4.113   2.975 -0.1360  0.8705  0.0285
17025TIP3    H172566   5.814   4.190   3.020 -1.2704  1.7203 -0.5490
17025TIP3    H272567   5.715   4.147   2.914 -0.7519 -0.5673 -0.1449
17026TIP3   OH272568   5.639   1.278  10.813  0.5198 -0.0927 -0.0167
17026TIP3    H172569   5.572   1.342  10.837  1.1795  0.4877  0.3183
17026TIP3    H272570   5.622   1.203  10.870  0.1015  0.0132  0.0012
17027TIP3   OH272571   2.410   6.608   0.881 -0.2054  0.0204  1.0573
17027TIP3    H172572   2.344   6.545   0.907 -0.3482 -0.7027 -0.8878
17027TIP3    H272573   2.489   6.556   0.867 -1.0332 -0.4537 -3.5193
17028TIP3   OH272574   0.384   3.921   5.851  0.1968 -0.4206  0.4905
17028TIP3    H172575   0.368   3.936   5.944 -0.4595 -0.9796  0.4797
17028TIP3    H272576   0.359   3.829   5.838  1.4260 -0.7061  0.0084
17029TIP3   OH272577   5.965   6.504  16.192 -0.1642  0.6432  0.2225
17029TIP3    H172578   5.966   6.575  16.128  1.7301 -0.0613 -0.6217
17029TIP3    H272579   5.951   6.547  16.276  1.3884  2.1179 -0.2176
17030TIP3   OH272580   2.727   4.391  11.693 -0.3148  0.0301  0.3291
17030TIP3    H172581   2.673   4.352  11.761  2.2143 -0.0328  2.4836
17030TIP3    H272582   2.762   4.317  11.643 -1.3290  0.0275 -0.4214
17031TIP3   OH272583   1.182   2.607   0.131 -0.3496 -0.1152  0.1661
17031TIP3    H172584   1.107   2.609   0.071 -0.6559 -1.2742  0.4832
17031TIP3    H272585   1.229   2.527   0.107  0.2366  0.0909  0.6292
17032TIP3   OH272586   4.752   3.592   5.380 -0.0775 -0.0432  0.4625
17032TIP3    H172587   4.827   3.629   5.334 -0.7189  2.2152  1.1395
17032TIP3    H272588   4.721   3.522   5.323  1.9268 -0.3739 -0.2934
17033TIP3   OH272589   4.224   6.377  12.141  0.1323 -0.7474 -0.0959
17033TIP3    H172590   4.141   6.329  12.142 -1.2428  1.2704 -3.1107
17033TIP3    H272591   4.201   6.465  12.110  3.1087  0.6297  1.1810
17034TIP3   OH272592   4.583   2.329  16.725  0.5149  0.1133  0.7812
17034TIP3    H172593   4.496   2.343  16.762  0.6979  1.7484  0.6884
17034TIP3    H272594   4.626   2.415  16.731  1.5791 -0.2743 -0.5600
17035TIP3   OH272595   4.632   2.480   4.122  0.2690  0.3377  0.0268
17035TIP3    H172596   4.565   2.486   4.054 -1.5511 -0.2068  1.6626
17035TIP3    H272597   4.705   2.531   4.089 -1.2823  1.6923 -1.4946
17036TIP3   OH272598   3.453   0.618   2.637 -0.3600 -0.4141 -1.6616
17036TIP3    H172599   3.530   0.611   2.694 -1.0226 -0.5037 -0.7464
17036TIP3    H272600   3.487   0.602   2.549  0.6625 -0.4807 -1.2729
17037TIP3   OH272601   2.576   3.280   1.226 -0.5818 -0.0167  0.4463
17037TIP3    H172602   2.612   3.346   1.167 -2.7670  1.0949  0.2195
17037TIP3    H272603   2.527   3.330   1.291 -1.4916 -1.3604  0.8566
17038TIP3   OH272604   6.045   0.926   1.077  1.1060  0.6611 -0.1585
17038TIP3    H172605   6.077   1.002   1.126 -0.8039  1.0927  0.5183
17038TIP3    H272606   6.000   0.872   1.143 -0.0532  0.4111 -1.1144
17039TIP3   OH272607   6.208   6.724   0.396 -0.1916  0.2734 -0.0009
17039TIP3    H172608   6.158   6.644   0.378  1.5014 -0.4510 -1.7632
17039TIP3    H272609   6.274   6.697   0.459  0.0017  0.4394 -0.1327
17040TIP3   OH272610   4.074   0.962  13.483 -0.1041  0.5154  0.2835
17040TIP3    H172611   4.117   1.048  13.493 -0.2448  0.5513  0.6185
17040TIP3    H272612   4.126   0.916  13.418  1.8483 -0.3116  2.2701
17041TIP3   OH272613   0.147   5.053  16.196  0.0968  0.3742  0.3882
17041TIP3    H172614   0.122   5.063  16.104 -3.1078 -1.4610  0.8917
17041TIP3    H272615   0.154   4.959  16.209  0.6458  0.6097  2.0088
17042TIP3   OH272616   3.242   5.366   5.753 -0.1780 -0.2927 -0.3471
17042TIP3    H172617   3.325   5.331   5.783  0.3866  1.6022  0.4853
17042TIP3    H272618   3.177   5.302   5.782  0.8628 -1.1093  0.2560
17043TIP3   OH272619   4.310   3.424  16.504 -0.0039  1.0352  0.8439
17043TIP3    H172620   4.263   3.391  16.580  1.3662 -0.6057  1.0524
17043TIP3    H272621   4.400   3.438  16.535  0.7724 -0.3856 -0.5757
17044TIP3   OH272622   2.093   1.824   1.338 -0.4133  0.2924 -0.1610
17044TIP3    H172623   2.130   1.863   1.258  0.7423 -1.1925 -0.4038
17044TIP3    H272624   2.041   1.749   1.306  1.8420 -1.6919  0.5025
17045TIP3   OH272625   6.187   5.734  11.992  0.7690 -0.1288 -0.1985
17045TIP3    H172626   6.227   5.754  11.907 -1.1989 -0.8860 -1.3604
17045TIP3    H272627   6.118   5.671  11.972 -0.4101  0.4388  1.8327
17046TIP3   OH272628   6.282   5.920  16.820  0.0780  0.4736 -0.0161
17046TIP3    H172629   6.299   5.909  16.726 -0.9557 -0.1961 -0.1475
17046TIP3    H272630   6.275   5.831  16.853 -1.5273  0.6901  0.3047
17047TIP3   OH272631   4.577   4.447  15.681 -0.2743  0.0437  0.2804
17047TIP3    H172632   4.502   4.494  15.645 -0.0577 -0.0485 -0.2922
17047TIP3    H272633   4.538   4.377  15.734 -0.5960 -0.1997 -0.2678
17048TIP3   OH272634   3.292   4.184   0.602 -0.1052  0.8893  0.5613
17048TIP3    H172635   3.310   4.157   0.692  0.4622 -0.2511  0.1215
17048TIP3    H272636   3.293   4.103   0.552  0.2383  1.5808 -0.5861
17049TIP3   OH272637   2.503   0.085  12.814 -0.4024 -0.0677  0.0493
17049TIP3    H172638   2.577   0.142  12.834 -0.2281  0.6573 -2.3974
17049TIP3    H272639   2.542   0.002  12.790 -0.4667 -0.0883  0.0160
17050TIP3   OH272640   1.447   1.018   3.473 -0.0130  0.1981 -0.1311
17050TIP3    H172641   1.495   1.078   3.530 -0.1291  0.0956  0.0737
17050TIP3    H272642   1.355   1.038   3.489 -0.0998 -0.8889  0.8769
17051TIP3   OH272643   4.608   2.270   6.201 -0.0773  0.5799 -0.2514
17051TIP3    H172644   4.524   2.312   6.216  0.1215  0.6501  0.7700
17051TIP3    H272645   4.672   2.335   6.230  0.2477 -0.2733  1.0513
17052TIP3   OH272646   4.222   4.476  11.908 -0.0542  0.0581  0.2266
17052TIP3    H172647   4.286   4.422  11.862 -0.5050 -0.5917  0.3511
17052TIP3    H272648   4.245   4.566  11.883 -0.8701 -0.2967 -2.1143
17053TIP3   OH272649   3.407   5.351   1.084 -0.0416  0.0926  0.8533
17053TIP3    H172650   3.331   5.314   1.129  0.2975 -0.7030  0.7881
17053TIP3    H272651   3.480   5.297   1.112  1.1337  2.7645  3.4523
17054TIP3   OH272652   5.747   1.176  13.208  0.6135  0.5320 -0.0357
17054TIP3    H172653   5.657   1.145  13.214  0.1498  1.7933 -0.3139
17054TIP3    H272654   5.787   1.148  13.291 -0.5488  1.5722  0.9186
17055TIP3   OH272655   1.505   6.379   0.078  0.2488 -0.2696  0.2728
17055TIP3    H172656   1.588   6.415   0.046 -0.4696  2.0005  0.7778
17055TIP3    H272657   1.513   6.285   0.065  1.8555  0.1171 -2.1160
17056TIP3   OH272658   6.561   0.166   4.678 -0.0267  0.5364 -0.3346
17056TIP3    H172659   6.655   0.152   4.667  0.1343  1.6292 -0.4940
17056TIP3    H272660   6.524   0.145   4.592 -0.0404 -0.6184 -0.0667
17057TIP3   OH272661   0.791   5.681  15.203 -0.1783  0.4573 -0.5709
17057TIP3    H172662   0.753   5.659  15.287 -0.1072 -1.7905 -1.0852
17057TIP3    H272663   0.730   5.746  15.165 -1.0419  0.3022  0.5170
17058TIP3   OH272664   0.125   4.423  11.216 -0.2721  0.4397  0.0526
17058TIP3    H172665   0.206   4.398  11.170 -0.1907  0.3421  0.2490
17058TIP3    H272666   0.066   4.450  11.146 -0.1146  0.3840 -0.1037
17059TIP3   OH272667   0.721   3.087  11.155  0.2224 -0.6054  0.4201
17059TIP3    H172668   0.697   3.100  11.247  1.3176 -2.6863  1.0641
17059TIP3    H272669   0.816   3.092  11.155  0.1924  0.4016 -0.8201
17060TIP3   OH272670   0.704   0.535  14.549  0.6279  0.3371 -0.0083
17060TIP3    H172671   0.635   0.474  14.525  1.5063 -0.9904  0.7468
17060TIP3    H272672   0.674   0.575  14.631  0.8749 -0.4806  0.4927
17061TIP3   OH272673   5.513   6.529   3.682 -0.0997 -0.0272 -0.5209
17061TIP3    H172674   5.499   6.594   3.751  0.4529  0.1048 -0.5300
17061TIP3    H272675   5.605   6.503   3.692  0.0008  0.0307 -1.2398
17062TIP3   OH272676   6.355   4.874   1.059  0.5622  0.2465  0.0095
17062TIP3    H172677   6.289   4.862   1.127 -0.2971 -0.7998 -0.9525
17062TIP3    H272678   6.349   4.794   1.006  2.1205  0.4491 -0.5183
17063TIP3   OH272679   0.655   2.455   5.065  0.5512  0.4177 -0.1331
17063TIP3    H172680   0.604   2.414   5.135  0.5491 -1.0367 -0.9605
17063TIP3    H272681   0.592   2.508   5.017  0.5615  1.4712  0.9656
17064TIP3   OH272682   4.957   0.610  14.038 -0.2391  0.9117  1.0219
17064TIP3    H172683   4.992   0.698  14.046  2.1679 -0.0918  3.1017
17064TIP3    H272684   4.913   0.594  14.121  0.2612 -0.1794  1.0930
17065TIP3   OH272685   1.428   5.127  12.569 -0.0421 -0.0406  0.6617
17065TIP3    H172686   1.417   5.038  12.605  0.3663 -0.9853 -1.4307
17065TIP3    H272687   1.352   5.139  12.513  0.0406  0.8607  0.7376
17066TIP3   OH272688   6.141   0.998  12.581 -0.3901  0.4604 -0.0654
17066TIP3    H172689   6.183   0.916  12.554  1.5475  0.9698  1.1652
17066TIP3    H272690   6.112   1.038  12.499 -0.8113 -1.1444 -0.7314
17067TIP3   OH272691   6.137   2.147  12.638 -0.4512  0.2861  0.4193
17067TIP3    H172692   6.113   2.227  12.685  1.3687 -0.7227  3.3248
17067TIP3    H272693   6.232   2.150  12.632 -0.2525 -2.0400  1.4389
17068TIP3   OH272694   1.411   2.569  13.197 -0.1878 -0.0044  0.1474
17068TIP3    H172695   1.348   2.620  13.147 -1.3846 -1.2624  0.3309
17068TIP3    H272696   1.359   2.526  13.265  0.9577 -0.6010  0.6789
17069TIP3   OH272697   5.528   4.386  10.539  0.0671  0.7067 -0.3075
17069TIP3    H172698   5.444   4.386  10.494 -0.3245  0.1057  0.4113
17069TIP3    H272699   5.527   4.466  10.592  0.4451  1.3092 -1.1754
17070TIP3   OH272700   5.354   6.157  15.268  0.0581  0.0229  0.1999
17070TIP3    H172701   5.428   6.109  15.303 -0.4707 -0.2180  1.0020
17070TIP3    H272702   5.312   6.096  15.207  1.4570  0.7258 -1.5512
17071TIP3   OH272703   3.144   5.434  11.205 -0.4933 -0.0062  0.0363
17071TIP3    H172704   3.100   5.507  11.248 -1.6614  0.0945 -1.2730
17071TIP3    H272705   3.128   5.448  11.112 -0.2151 -1.5909 -0.2700
17072TIP3   OH272706   5.611   2.430  16.009 -0.6965 -0.2811 -0.3389
17072TIP3    H172707   5.705   2.438  16.021 -0.3950  0.8642 -2.9240
17072TIP3    H272708   5.584   2.514  15.971 -2.3896 -1.3321 -1.5897
17073TIP3   OH272709   6.404   5.894   4.148 -0.0048  0.2059  0.5418
17073TIP3    H172710   6.394   5.988   4.131  0.9303  0.5307  1.6555
17073TIP3    H272711   6.410   5.888   4.243 -1.8730 -1.1913  0.6091
17074TIP3   OH272712   0.528   3.711   5.532  0.2507  0.2042  0.3680
17074TIP3    H172713   0.526   3.764   5.612  0.8700  0.9100 -0.0710
17074TIP3    H272714   0.614   3.668   5.533  0.7983  1.2083 -0.5191
17075TIP3   OH272715   1.166   3.973   5.487 -0.6626 -0.4294 -0.2042
17075TIP3    H172716   1.130   3.985   5.575 -0.7554  3.1816 -0.5706
17075TIP3    H272717   1.092   3.990   5.428 -0.0432 -0.3293 -0.9728
17076TIP3   OH272718   2.296   0.491  12.155 -0.1977 -0.7773  0.7743
17076TIP3    H172719   2.356   0.548  12.107 -1.0153  0.6385  1.3555
17076TIP3    H272720   2.352   0.423  12.193  0.6095 -1.2890 -1.2149
17077TIP3   OH272721   6.107   0.706  12.947  0.6411 -0.8574 -0.1028
17077TIP3    H172722   6.157   0.763  12.889 -0.2019  0.2023  0.1784
17077TIP3    H272723   6.173   0.650  12.988  1.1500 -2.5458 -2.9828
17078TIP3   OH272724   6.017   2.306  13.920 -0.0391  0.2641  0.5361
17078TIP3    H172725   6.022   2.285  14.014 -1.6704  2.3408  1.1694
17078TIP3    H272726   6.024   2.401  13.917  0.3529  0.2065 -1.5172
17079TIP3   OH272727   2.650   0.888  12.164  0.2689  0.1701  0.2549
17079TIP3    H172728   2.569   0.917  12.206 -0.3416  0.4178 -1.0336
17079TIP3    H272729   2.667   0.802  12.201 -1.9970 -1.0240 -1.2466
17080TIP3   OH272730   0.119   3.494  11.369 -0.1481 -0.3028  0.1710
17080TIP3    H172731   0.143   3.402  11.379  0.6580  0.0689  1.9948
17080TIP3    H272732   0.201   3.542  11.382 -0.0028  0.6460 -3.1948
17081TIP3   OH272733   5.957   2.456  11.271 -0.1675 -0.2083  0.0263
17081TIP3    H172734   5.913   2.405  11.339  0.6115 -1.6303 -0.4969
17081TIP3    H272735   5.926   2.546  11.285 -1.8654 -0.8589  0.7437
17082TIP3   OH272736   6.733   6.310   5.935  0.4665  0.1443 -0.3660
17082TIP3    H172737   6.774   6.369   5.872 -0.3364 -1.1539 -2.1983
17082TIP3    H272738   6.640   6.333   5.932  0.5591  0.8910  1.3272
17083TIP3   OH272739   2.415   6.800   1.077 -0.0111 -0.2121  0.8762
17083TIP3    H172740   2.421   6.713   1.037  0.2530  0.4565 -0.6115
17083TIP3    H272741   2.500   6.840   1.061 -0.4635  0.6873  0.6328
17084TIP3   OH272742   6.605   5.392  15.160 -0.9601 -0.5628  0.3343
17084TIP3    H172743   6.636   5.475  15.122  1.2398 -1.8076 -0.7699
17084TIP3    H272744   6.558   5.349  15.089 -2.8221  0.0164  1.1455
17085TIP3   OH272745   5.972   4.402  16.068  0.2307 -0.2074  0.4402
17085TIP3    H172746   6.013   4.451  16.139 -1.0187  1.1010  0.3291
17085TIP3    H272747   5.918   4.337  16.112  2.1852 -1.8054  0.5874
17086TIP3   OH272748   3.710   4.197   0.832  0.4448 -0.0305 -0.3275
17086TIP3    H172749   3.661   4.251   0.893  0.0880 -2.5292  1.7541
17086TIP3    H272750   3.675   4.109   0.844  2.1107 -1.0548 -2.3432
17087TIP3   OH272751   2.089   0.999   5.789  0.2158 -0.3071 -0.2290
17087TIP3    H172752   2.003   1.035   5.768  0.7542  0.4605 -1.2190
17087TIP3    H272753   2.115   1.045   5.869 -0.4696 -0.8682  0.3279
17088TIP3   OH272754   5.169   1.111  12.388 -0.0154  0.1566 -0.2192
17088TIP3    H172755   5.095   1.172  12.390 -0.9150 -0.8827  1.7281
17088TIP3    H272756   5.242   1.163  12.355 -1.7767  0.9575 -3.2751
17089TIP3   OH272757   0.706   5.947  14.591 -0.5661  0.2632  0.3197
17089TIP3    H172758   0.778   5.905  14.640 -1.4946 -0.6853  0.9123
17089TIP3    H272759   0.672   5.877  14.535 -0.9689  0.7351 -0.0287
17090TIP3   OH272760   3.450   0.746   2.112  0.2356 -0.4454 -0.1362
17090TIP3    H172761   3.494   0.758   2.027 -1.5340  0.0354 -1.0218
17090TIP3    H272762   3.489   0.666   2.147  1.8840  0.0064 -0.8085
17091TIP3   OH272763   1.298   1.939   2.388  0.1365 -0.0416 -0.1438
17091TIP3    H172764   1.235   2.009   2.370  0.8599  0.4617 -0.7867
17091TIP3    H272765   1.280   1.913   2.479 -1.9920 -0.9485 -0.7560
17092TIP3   OH272766   3.247   3.207   0.912 -0.2100 -0.7644 -0.2117
17092TIP3    H172767   3.214   3.118   0.915 -0.9443 -0.5192 -0.8499
17092TIP3    H272768   3.338   3.198   0.885  0.2790 -1.4402  1.4967
17093TIP3   OH272769   5.190   5.038  16.306  0.0869  0.0428 -0.0501
17093TIP3    H172770   5.148   5.123  16.292  1.2545  0.7711  0.7038
17093TIP3    H272771   5.281   5.051  16.279  1.0030 -0.1087  2.6298
17094TIP3   OH272772   5.083   1.262   5.482  0.4108  0.4759  0.1975
17094TIP3    H172773   5.142   1.331   5.449  0.9287  0.1709  0.4770
17094TIP3    H272774   5.068   1.285   5.574  1.4754 -0.3779  0.6029
17095TIP3   OH272775   0.486   5.227  13.622 -0.2766 -0.0429  0.0976
17095TIP3    H172776   0.575   5.192  13.634  0.1836  1.0940  0.0945
17095TIP3    H272777   0.451   5.231  13.711 -0.3069 -0.4437  0.1053
17096TIP3   OH272778   1.998   5.681   2.199  0.0090  0.1519  0.0733
17096TIP3    H172779   2.040   5.694   2.284 -0.8777  0.2963  0.5015
17096TIP3    H272780   2.009   5.764   2.153  4.1940 -1.1029 -1.7129
17097TIP3   OH272781   0.982   2.094   3.087  0.3941 -0.2583 -0.4623
17097TIP3    H172782   1.070   2.120   3.115  0.0561  1.0756 -0.5570
17097TIP3    H272783   0.980   2.115   2.994 -0.4594  1.0635 -0.1724
17098TIP3   OH272784   2.293   4.525   1.421  0.1587  0.5037 -0.1238
17098TIP3    H172785   2.269   4.534   1.329 -2.0358 -3.0446 -0.0556
17098TIP3    H272786   2.381   4.488   1.420  0.3908  1.0550 -0.7340
17099TIP3   OH272787   1.594   4.243   2.992  0.6338 -0.3134 -0.2666
17099TIP3    H172788   1.537   4.170   3.015  0.1935  0.0458 -0.2164
17099TIP3    H272789   1.540   4.300   2.938  1.2706 -0.5125 -1.1357
17100TIP3   OH272790   6.443   4.530   0.425 -0.3610 -0.1044 -0.8206
17100TIP3    H172791   6.359   4.485   0.431 -1.0379  1.3237  1.6854
17100TIP3    H272792   6.507   4.463   0.448 -1.2566 -0.1777  1.7819
17101TIP3   OH272793   5.226   3.968  15.453 -0.7198  0.3710  0.2292
17101TIP3    H172794   5.275   3.949  15.373 -1.8638  2.8493 -1.1745
17101TIP3    H272795   5.290   3.958  15.524  0.6897 -0.4838 -1.1153
17102TIP3   OH272796   3.032   1.742  13.624 -0.4991  0.0477  0.4037
17102TIP3    H172797   3.081   1.775  13.700  1.3688 -1.2723 -0.1388
17102TIP3    H272798   2.967   1.682  13.661 -1.4299  1.4389  1.1100
17103TIP3   OH272799   5.362   1.976  16.604 -0.0528  0.2389 -0.8745
17103TIP3    H172800   5.398   1.918  16.671 -0.0401  1.9838  0.6785
17103TIP3    H272801   5.397   1.942  16.522  1.4782 -0.8070  0.1645
17104TIP3   OH272802   3.760   6.647   3.461 -0.2056  0.8959 -0.1886
17104TIP3    H172803   3.715   6.580   3.511 -0.9626  1.8173  0.4097
17104TIP3    H272804   3.804   6.600   3.390  0.5381 -0.3863  1.0803
17105TIP3   OH272805   0.256   0.157   2.350  0.1751 -0.0492 -0.2748
17105TIP3    H172806   0.292   0.071   2.370  0.1180 -0.2494 -1.0184
17105TIP3    H272807   0.323   0.200   2.298  0.1063  0.2660 -0.1031
17106TIP3   OH272808   4.115   4.301   3.393  0.1760  0.5483 -0.4620
17106TIP3    H172809   4.022   4.282   3.378  0.2789  0.9891 -1.7749
17106TIP3    H272810   4.117   4.395   3.411  0.3764  0.5721 -0.6067
17107TIP3   OH272811   4.556   6.021  14.474  0.0495 -0.1379  0.5484
17107TIP3    H172812   4.596   5.937  14.494 -1.3872 -1.3888 -1.4195
17107TIP3    H272813   4.596   6.047  14.390  0.1832  0.9481  0.9335
17108TIP3   OH272814   5.271   6.460  12.644  0.0665  0.5797  0.1643
17108TIP3    H172815   5.195   6.429  12.594  0.5099 -0.8454  0.3224
17108TIP3    H272816   5.336   6.480  12.577 -0.1482  0.9761  0.0699
17109TIP3   OH272817   4.742   5.162   3.592  0.0902 -0.6544 -0.5357
17109TIP3    H172818   4.737   5.241   3.538  1.0720 -1.0538 -1.2381
17109TIP3    H272819   4.696   5.095   3.540  0.1825 -0.7990 -0.4316
17110TIP3   OH272820   0.188   6.439  10.616  0.4383  0.1399 -0.2493
17110TIP3    H172821   0.267   6.386  10.605  0.3288  0.3451 -2.3986
17110TIP3    H272822   0.157   6.418  10.704  2.7861 -0.0533  0.6019
17111TIP3   OH272823   5.873   0.933  15.431  0.0335 -0.3231 -0.7928
17111TIP3    H172824   5.924   1.003  15.389  0.2542 -1.5415 -2.6315
17111TIP3    H272825   5.939   0.878  15.473 -0.1857  0.9044  1.3227
17112TIP3   OH272826   1.302   3.502   3.902 -0.1739  0.3575 -0.2870
17112TIP3    H172827   1.226   3.493   3.846 -0.3309 -2.4846  0.2100
17112TIP3    H272828   1.325   3.412   3.926  1.3526  1.2918  2.2126
17113TIP3   OH272829   1.301   2.899  14.795  0.7109 -1.4049  0.1772
17113TIP3    H172830   1.394   2.895  14.817  0.7219  0.1258  0.4925
17113TIP3    H272831   1.262   2.824  14.841  1.8662 -2.4112 -0.4486
17114TIP3   OH272832   6.519   1.509   3.540  0.7727  0.2423 -0.2400
17114TIP3    H172833   6.451   1.564   3.581 -0.9553 -1.0551 -1.2382
17114TIP3    H272834   6.509   1.524   3.446  2.1233  0.2786 -0.3940
17115TIP3   OH272835   6.350   2.308   2.197  0.1774  0.0011 -0.8273
17115TIP3    H172836   6.404   2.340   2.270  0.3201 -1.9943  0.0257
17115TIP3    H272837   6.277   2.262   2.240 -0.1893 -0.4971 -1.9499
17116TIP3   OH272838   4.223   6.572   4.783 -0.0058 -0.1190  0.2335
17116TIP3    H172839   4.245   6.652   4.736  0.7015 -0.5620 -0.1964
17116TIP3    H272840   4.304   6.521   4.783 -0.0981 -0.3001  1.5879
17117TIP3   OH272841   0.881   1.174  15.470  0.0373 -0.2421  0.2446
17117TIP3    H172842   0.838   1.222  15.400 -0.1304  1.2096  1.3085
17117TIP3    H272843   0.820   1.176  15.543 -0.4955 -3.1303  0.0135
17118TIP3   OH272844   5.681   0.592  15.678  0.2463  0.2763 -0.3506
17118TIP3    H172845   5.587   0.587  15.695  0.0457 -0.2170 -1.4897
17118TIP3    H272846   5.687   0.628  15.590  1.0727 -0.8266 -0.7668
17119TIP3   OH272847   5.466   3.247  14.552  0.0486  0.2983 -0.5264
17119TIP3    H172848   5.385   3.200  14.572  0.1340 -0.1237 -1.1521
17119TIP3    H272849   5.451   3.287  14.467  1.1455 -1.3417 -1.5447
17120TIP3   OH272850   1.634   1.584   2.634  0.1064 -0.0365  0.4395
17120TIP3    H172851   1.728   1.566   2.628 -0.1640 -2.1115  1.3496
17120TIP3    H272852   1.595   1.539   2.559 -0.1671  0.8694  0.0265
17121TIP3   OH272853   5.849   6.115  15.434  0.0781 -0.4674  0.6308
17121TIP3    H172854   5.883   6.186  15.381 -0.8366  0.2223  0.9362
17121TIP3    H272855   5.831   6.155  15.519 -2.6222 -0.4391  0.1406
17122TIP3   OH272856   5.473   0.126  14.802 -0.0530  0.1324 -0.8192
17122TIP3    H172857   5.534   0.056  14.828 -0.6040  0.1772  0.7169
17122TIP3    H272858   5.386   0.086  14.811 -0.3101 -0.0185 -3.2464
17123TIP3   OH272859   6.569   5.407   3.079  0.6055  0.6961  0.4643
17123TIP3    H172860   6.542   5.317   3.063  0.3691  0.6551  1.0819
17123TIP3    H272861   6.642   5.421   3.018  2.3089 -0.7034  2.0520
17124TIP3   OH272862   0.869   3.651  16.784  0.2182  0.4331 -0.1396
17124TIP3    H172863   0.948   3.598  16.794  0.5035  0.8014 -0.4200
17124TIP3    H272864   0.879   3.693  16.698  0.0153  0.9705  0.0962
17125TIP3   OH272865   0.114   0.299  12.191  0.2752  0.0530 -0.3922
17125TIP3    H172866   0.142   0.333  12.106  1.2987  0.0750 -0.0678
17125TIP3    H272867   0.179   0.231  12.212 -0.0402 -0.0434  0.3114
17126TIP3   OH272868   5.852   3.709   3.429  0.1171  0.3669  0.4076
17126TIP3    H172869   5.925   3.693   3.370 -0.2682  1.4436 -0.3757
17126TIP3    H272870   5.889   3.759   3.501  0.0956  1.2253 -0.1669
17127TIP3   OH272871   3.093   5.985  14.036 -0.1981 -0.3508 -0.1128
17127TIP3    H172872   3.000   5.962  14.037 -0.2642 -0.1175 -0.7771
17127TIP3    H272873   3.114   6.003  14.128 -1.0165  0.4437 -0.0711
17128TIP3   OH272874   3.228   3.811  12.710 -0.0693 -0.2375 -0.0251
17128TIP3    H172875   3.321   3.793  12.697 -0.5620 -2.3330 -1.1953
17128TIP3    H272876   3.211   3.786  12.801  0.5281  0.3223  0.2476
17129TIP3   OH272877   6.259   2.414   2.742  0.0786 -0.2993 -0.4952
17129TIP3    H172878   6.300   2.422   2.655  2.0606 -1.8027  0.2245
17129TIP3    H272879   6.191   2.347   2.731  2.3308 -2.7689 -0.3255
17130TIP3   OH272880   2.475   5.375  14.076 -0.1699  0.3444  0.2573
17130TIP3    H172881   2.437   5.409  14.157 -2.1483  0.6439 -0.7504
17130TIP3    H272882   2.512   5.452  14.033  1.5703  0.0728  1.1754
17131TIP3   OH272883   0.544   4.369  14.224  1.5254  0.0280 -0.0447
17131TIP3    H172884   0.460   4.348  14.266  0.4223  2.3117 -0.9300
17131TIP3    H272885   0.597   4.290  14.236 -0.7970 -1.5746  0.3713
17132TIP3   OH272886   0.240   4.151  14.147  0.1327  0.1150 -0.4972
17132TIP3    H172887   0.273   4.193  14.226 -0.2817 -0.3647 -0.0603
17132TIP3    H272888   0.150   4.184  14.138 -0.0120 -0.2566 -0.4488
17133TIP3   OH272889   6.506   2.797  17.129 -0.6894  0.5164 -0.2335
17133TIP3    H172890   6.456   2.828  17.054 -0.8395 -1.3481 -0.9594
17133TIP3    H272891   6.590   2.842  17.122 -0.5835  0.1410 -1.7357
17134TIP3   OH272892   5.148   5.187   4.225 -0.4135 -0.5098  0.4619
17134TIP3    H172893   5.126   5.100   4.258  0.0629 -1.4676 -1.5588
17134TIP3    H272894   5.189   5.170   4.140 -0.0241  1.6855  0.1582
17135TIP3   OH272895   4.435   5.178   1.644 -0.1231 -0.4073 -0.8059
17135TIP3    H172896   4.369   5.114   1.671 -0.0221 -0.1096  0.1691
17135TIP3    H272897   4.490   5.131   1.581 -0.7600 -0.9082 -0.9997
17136TIP3   OH272898   6.131   4.545  16.229  0.2327 -0.1185  0.0476
17136TIP3    H172899   6.210   4.598  16.223 -0.8295  1.7357  1.5915
17136TIP3    H272900   6.106   4.548  16.321 -1.0542 -1.5955 -0.1981
17137TIP3   OH272901   0.503   2.956  16.915  0.2051 -0.5970  0.5517
17137TIP3    H172902   0.500   3.028  16.852  0.1713  0.9162  2.1947
17137TIP3    H272903   0.510   2.877  16.861  1.0275  0.6690 -1.3105
17138TIP3   OH272904   0.864   3.778   1.482 -0.1297  0.0326 -0.2378
17138TIP3    H172905   0.848   3.828   1.563  0.6237 -0.3288  0.1430
17138TIP3    H272906   0.806   3.702   1.489 -0.1671  0.0726 -0.1083
17139TIP3   OH272907   1.802   4.075   2.514 -0.1454  0.1643 -0.1307
17139TIP3    H172908   1.885   4.105   2.478  0.3526 -1.1466 -0.1385
17139TIP3    H272909   1.743   4.149   2.503  0.9570  1.0457 -0.3252
17140TIP3   OH272910   4.410   3.180  13.798 -0.2385 -0.8440 -0.0611
17140TIP3    H172911   4.482   3.162  13.738  0.5208 -0.0648  0.5875
17140TIP3    H272912   4.451   3.224  13.872 -1.5489  0.7338 -0.2201
17141TIP3   OH272913   4.240   4.410   4.346  0.8664 -0.6077 -0.2704
17141TIP3    H172914   4.186   4.331   4.352 -0.2440  0.0969 -0.6232
17141TIP3    H272915   4.178   4.479   4.323  2.0901  0.0517 -1.7069
17142TIP3   OH272916   2.438   4.304  14.249  0.1748  0.3900  0.0348
17142TIP3    H172917   2.408   4.295  14.159 -0.3519  2.7876 -0.0866
17142TIP3    H272918   2.371   4.258  14.301  1.1864 -2.2137 -0.7923
17143TIP3   OH272919   2.944   6.228   1.205 -0.1326  0.2388 -0.3042
17143TIP3    H172920   2.992   6.305   1.177  1.9779 -0.5335  0.9475
17143TIP3    H272921   3.002   6.155   1.185 -1.3748 -0.8960  0.0475
17144TIP3   OH272922   2.769   5.528  12.593 -0.0493  0.8416  0.1243
17144TIP3    H172923   2.798   5.454  12.647 -0.8013  1.0036  0.7669
17144TIP3    H272924   2.849   5.568  12.561  0.6899  2.9517  4.0282
17145TIP3   OH272925   4.261   1.374   2.760 -0.5992  0.4923  0.2617
17145TIP3    H172926   4.254   1.423   2.842  0.9976 -0.2989  0.9307
17145TIP3    H272927   4.197   1.303   2.769 -0.8510  0.7569  0.5660
17146TIP3   OH272928   4.434   1.661  16.830 -0.3373  0.2770  0.1367
17146TIP3    H172929   4.345   1.649  16.864 -0.7898  0.1121 -1.0663
17146TIP3    H272930   4.480   1.707  16.900 -1.0213 -0.6974  1.2774
17147TIP3   OH272931   3.889   5.027  12.469 -0.3075 -0.2486  0.1310
17147TIP3    H172932   3.901   5.089  12.542 -0.9101 -0.7720  0.6887
17147TIP3    H272933   3.942   5.063  12.399  0.2170  0.3228  0.8009
17148TIP3   OH272934   3.091   4.130  11.851 -0.2910 -0.1587  0.4067
17148TIP3    H172935   3.149   4.178  11.910 -1.0054 -0.3465  1.2919
17148TIP3    H272936   3.056   4.198  11.793  0.4686  0.0191  0.1409
17149TIP3   OH272937   2.687   4.795  16.449  0.3153 -0.0506 -0.1103
17149TIP3    H172938   2.708   4.863  16.513  0.4946  1.2359 -1.4810
17149TIP3    H272939   2.756   4.730  16.460  2.0188  1.5227 -0.8808
17150TIP3   OH272940   5.936   3.645  13.986  0.3136  0.3582  0.0527
17150TIP3    H172941   5.850   3.606  13.996  1.2654 -1.5637  1.0812
17150TIP3    H272942   5.966   3.663  14.075  1.4386 -0.0803 -0.2144
17151TIP3   OH272943   0.186   2.980  12.762 -0.4364  0.3197  0.1653
17151TIP3    H172944   0.131   2.977  12.684 -1.8237 -0.3291  1.1238
17151TIP3    H272945   0.274   3.001  12.729 -0.4024 -2.4534 -1.8555
17152TIP3   OH272946   6.134   5.296   2.420 -0.0499 -0.0621  0.1344
17152TIP3    H172947   6.109   5.387   2.407 -2.5945 -0.5523  0.8510
17152TIP3    H272948   6.210   5.299   2.478 -0.4153  1.6075  0.5755
17153TIP3   OH272949   1.306   3.588  14.386 -0.2487 -0.0876 -0.8814
17153TIP3    H172950   1.241   3.580  14.455 -0.6953  0.7452 -1.1824
17153TIP3    H272951   1.263   3.643  14.320  0.7653  0.4968 -1.0715
17154TIP3   OH272952   1.065   3.660   3.459  0.2744  0.1524 -0.6225
17154TIP3    H172953   1.087   3.615   3.378  0.3632 -0.6455 -0.1659
17154TIP3    H272954   1.104   3.747   3.450 -0.3684  0.3336 -1.7449
17155TIP3   OH272955   6.332   0.892   4.534 -0.1522  0.0394  0.4726
17155TIP3    H172956   6.359   0.800   4.531 -0.6369 -0.1001  0.4216
17155TIP3    H272957   6.306   0.906   4.624  1.0845  0.4644  0.7865
17156TIP3   OH272958   4.797   3.090  17.084  0.3492 -0.1408 -0.1829
17156TIP3    H172959   4.775   3.045  17.166  0.7103 -1.7477 -0.9344
17156TIP3    H272960   4.713   3.120  17.050  0.0719 -0.4469  0.2199
17157TIP3   OH272961   2.480   3.825   5.309 -0.4807  0.3836 -0.2525
17157TIP3    H172962   2.518   3.753   5.360 -0.1679  0.0854 -0.8846
17157TIP3    H272963   2.437   3.880   5.373 -0.4930 -0.2307  0.2782
17158TIP3   OH272964   0.292   2.197   1.078  0.4507 -0.3333  0.6852
17158TIP3    H172965   0.247   2.149   1.148  0.4328 -2.5288 -0.7374
17158TIP3    H272966   0.381   2.161   1.078  1.4201  1.8824  1.5475
17159TIP3   OH272967   5.428   1.791  14.731  0.3635 -0.5761 -0.3326
17159TIP3    H172968   5.468   1.708  14.758  1.6179  0.5087  1.4004
17159TIP3    H272969   5.338   1.785  14.762  0.8884 -0.6758  1.2754
17160TIP3   OH272970   6.493   0.893  12.565 -0.3484 -0.9503  0.5814
17160TIP3    H172971   6.585   0.886  12.588  0.1428  0.5411 -0.6875
17160TIP3    H272972   6.483   0.983  12.534 -2.1684 -1.1684  0.3973
17161TIP3   OH272973   1.430   5.606  14.028 -0.0237  0.1300 -0.0565
17161TIP3    H172974   1.525   5.594  14.028 -0.1881 -1.3033 -0.8444
17161TIP3    H272975   1.396   5.536  13.973 -1.4854  1.1720 -0.5599
17162TIP3   OH272976   1.588   1.390  16.586  0.0766 -0.0755 -0.0920
17162TIP3    H172977   1.609   1.322  16.521 -0.0635 -0.5502  0.3570
17162TIP3    H272978   1.496   1.410  16.571 -1.2392 -3.2030  2.6531
17163TIP3   OH272979   1.645   5.863  12.432  0.8622 -0.0938 -0.0960
17163TIP3    H172980   1.711   5.890  12.496  0.4007 -1.3778  0.9528
17163TIP3    H272981   1.655   5.768  12.425 -2.2657 -0.6961  1.7729
17164TIP3   OH272982   4.207   4.041  14.373 -0.3155  0.2683 -1.4241
17164TIP3    H172983   4.187   3.952  14.344 -0.8684 -0.6282  1.4161
17164TIP3    H272984   4.122   4.080  14.391  0.0124  0.6670 -0.7252
17165TIP3   OH272985   4.220   2.129  10.539  0.1075  0.0111 -0.1095
17165TIP3    H172986   4.172   2.061  10.585 -1.1685  2.5005  2.5275
17165TIP3    H272987   4.164   2.206  10.543  2.6629  2.0346 -0.3603
17166TIP3   OH272988   5.187   4.682  10.878 -0.2674  0.1141  0.3613
17166TIP3    H172989   5.254   4.737  10.837 -1.1669  0.7051 -0.3591
17166TIP3    H272990   5.179   4.716  10.967 -0.9633  1.3147 -0.1415
17167TIP3   OH272991   4.266   2.123   2.012 -0.0296 -0.0441 -0.4313
17167TIP3    H172992   4.332   2.179   1.972 -0.9158  1.0933 -0.3649
17167TIP3    H272993   4.307   2.088   2.092  0.2411  1.2618  0.0150
17168TIP3   OH272994   2.974   1.010  14.290 -0.5084  0.3023  0.1067
17168TIP3    H172995   2.951   0.931  14.340  0.5884  0.0487  0.2499
17168TIP3    H272996   2.935   0.996  14.204  0.0747 -0.6300 -0.0189
17169TIP3   OH272997   5.930   1.195   5.930  0.0656 -0.1267 -0.0695
17169TIP3    H172998   5.855   1.151   5.970  0.5546 -1.3345 -0.4122
17169TIP3    H272999   5.950   1.142   5.853  1.0072  0.4127 -0.2070
17170TIP3   OH273000   6.550   1.899   4.164  0.6754 -0.2749 -0.0065
17170TIP3    H173001   6.637   1.895   4.124  0.9288  0.6842  0.4414
17170TIP3    H273002   6.533   1.808   4.190  0.5087 -0.9493 -2.2295
17171TIP3   OH273003   5.959   5.285  11.830 -0.0514 -0.0398  0.3258
17171TIP3    H173004   5.864   5.291  11.814  0.2147  0.1754 -1.3113
17171TIP3    H273005   5.982   5.197  11.802  0.5480  0.5908 -1.3187
17172TIP3   OH273006   6.705   2.291   0.630  0.4320 -0.3461  0.1949
17172TIP3    H173007   6.656   2.211   0.608  0.2700 -0.6522  1.6109
17172TIP3    H273008   6.638   2.359   0.634  0.4254 -0.3423  0.0480
17173TIP3   OH273009   6.503   4.525   5.477 -0.0617 -0.4025  0.4110
17173TIP3    H173010   6.526   4.436   5.450  0.9254  0.0340 -0.2692
17173TIP3    H273011   6.587   4.565   5.502 -0.7356 -0.2954  2.7263
17174TIP3   OH273012   6.131   2.546  12.637  0.0708  0.7962  0.1890
17174TIP3    H173013   6.150   2.494  12.559 -1.1954  1.0967 -0.3452
17174TIP3    H273014   6.035   2.548  12.641 -0.0136 -1.3577  3.1670
17175TIP3   OH273015   2.374   3.716  13.710 -0.0663  0.3561 -0.4298
17175TIP3    H173016   2.454   3.700  13.761 -0.6005 -0.1363  0.2772
17175TIP3    H273017   2.343   3.801  13.739 -0.9783 -0.3941  0.9490
17176TIP3   OH273018   6.804   0.359   1.975 -0.0687  0.1826 -0.3805
17176TIP3    H173019   6.895   0.331   1.986  0.3199  0.2741 -2.8126
17176TIP3    H273020   6.757   0.281   1.948 -1.1279 -0.2238  2.2622
17177TIP3   OH273021   0.985   0.581   1.356 -0.8157 -0.4358 -0.8778
17177TIP3    H173022   1.048   0.649   1.380  2.8446 -3.6448 -0.3721
17177TIP3    H273023   0.951   0.549   1.440 -1.4653 -0.1953 -1.0405
17178TIP3   OH273024   5.895   5.115  16.737 -0.4390 -0.1672 -0.1087
17178TIP3    H173025   5.930   5.040  16.787  0.0071  0.3404  0.3569
17178TIP3    H273026   5.972   5.169  16.720 -0.8694  0.5309  0.1585
17179TIP3   OH273027   6.185   1.921   6.172 -0.6212 -0.0636  0.4113
17179TIP3    H173028   6.159   1.992   6.113 -1.6229 -0.3402  0.5010
17179TIP3    H273029   6.280   1.913   6.159 -1.0413 -1.5409 -2.7671
17180TIP3   OH273030   6.507   1.498  17.180  0.9396  0.4490 -0.1025
17180TIP3    H173031   6.575   1.464  17.238  0.0086  1.1162  1.4579
17180TIP3    H273032   6.425   1.479  17.225  0.1860  1.2665 -1.0608
17181TIP3   OH273033   2.886   5.803  12.078 -0.0747 -0.6583  0.1594
17181TIP3    H173034   2.842   5.846  12.005 -2.7148  1.1527  2.6310
17181TIP3    H273035   2.978   5.797  12.050 -0.7420  0.9480 -2.7964
17182TIP3   OH273036   5.606   1.295  16.882  0.0657  0.2613 -0.2761
17182TIP3    H173037   5.622   1.342  16.964 -2.2950  0.0239  0.3819
17182TIP3    H273038   5.617   1.203  16.904 -0.9376  0.1710 -0.0891
17183TIP3   OH273039   5.398   6.239  13.931 -0.0990  0.1901 -0.2146
17183TIP3    H173040   5.322   6.283  13.893 -0.9875 -0.8246  0.3067
17183TIP3    H273041   5.429   6.299  13.999 -0.0104  0.9155 -0.8904
17184TIP3   OH273042   3.740   5.276   4.853  0.5445 -0.2203 -0.1734
17184TIP3    H173043   3.694   5.208   4.804 -0.6638  0.8944 -0.6748
17184TIP3    H273044   3.831   5.269   4.825  0.3654 -1.3558 -0.5163
17185TIP3   OH273045   6.715   2.702  12.856  0.7608 -0.5453 -0.6956
17185TIP3    H173046   6.665   2.775  12.819  0.0593 -0.5719  0.1663
17185TIP3    H273047   6.680   2.691  12.944  2.8013 -0.1041  0.2189
17186TIP3   OH273048   0.981   0.013  16.239  0.3982 -0.0052 -0.1492
17186TIP3    H173049   1.001   0.039  16.330  2.8778  0.2275 -0.6764
17186TIP3    H273050   1.005  -0.079  16.234  0.3910  0.0142 -0.5915
17187TIP3   OH273051   6.655   1.925  15.336 -0.0850 -0.3108  0.3893
17187TIP3    H173052   6.638   1.936  15.430 -0.3737 -0.7145  0.3895
17187TIP3    H273053   6.749   1.941  15.327 -0.1442  0.2330  0.6665
17188TIP3   OH273054   6.358   4.569   5.713  0.8530  0.1641 -0.1142
17188TIP3    H173055   6.415   4.549   5.638 -0.2398 -1.0733 -0.6417
17188TIP3    H273056   6.345   4.485   5.757 -1.5837  0.1402 -0.7604
17189TIP3   OH273057   3.381   6.478  12.341  0.2328 -0.1768 -0.4938
17189TIP3    H173058   3.387   6.393  12.385 -1.3154 -0.2254 -0.3102
17189TIP3    H273059   3.418   6.540  12.404 -1.9550 -0.2466  0.9605
17190TIP3   OH273060   2.559   5.884  12.449 -0.6793 -1.2075 -0.2471
17190TIP3    H173061   2.637   5.844  12.411  0.0785 -1.2454  1.2854
17190TIP3    H273062   2.543   5.962  12.395  1.8253  0.1231  0.7723
17191TIP3   OH273063   1.102   3.494  13.566  0.6317 -0.5072  0.3942
17191TIP3    H173064   1.093   3.504  13.661 -0.0157 -0.5345  0.3425
17191TIP3    H273065   1.082   3.581  13.531 -0.8569 -0.8940  0.1915
17192TIP3   OH273066   0.335   0.831  15.754 -0.3097 -0.0056  0.5427
17192TIP3    H173067   0.355   0.923  15.737  0.3573 -0.4082 -1.1153
17192TIP3    H273068   0.239   0.826  15.756 -0.3483  0.6625  0.2762
17193TIP3   OH273069   2.867   3.847   1.076 -0.2043 -0.5182 -0.4105
17193TIP3    H173070   2.778   3.817   1.095 -0.1416 -0.8797 -0.6802
17193TIP3    H273071   2.918   3.767   1.068  0.0887 -0.3203 -0.5385
17194TIP3   OH273072   5.827   3.519  12.662  0.8254 -0.1275  0.1805
17194TIP3    H173073   5.743   3.507  12.617  0.2969 -1.7743  1.4862
17194TIP3    H273074   5.834   3.613  12.674 -0.5585  0.0913 -0.4643
17195TIP3   OH273075   0.444   0.470  13.853 -0.1806  0.5816 -0.1201
17195TIP3    H173076   0.366   0.466  13.798  0.8836  0.8676 -1.7220
17195TIP3    H273077   0.481   0.381  13.848  0.4798  0.8816 -0.7482
17196TIP3   OH273078   2.915   6.679  13.649  0.0269 -0.0113 -0.0162
17196TIP3    H173079   2.976   6.616  13.610 -0.2813  0.4802 -1.3314
17196TIP3    H273080   2.858   6.625  13.704  1.1666 -0.5724  0.6533
17197TIP3   OH273081   4.887   2.427  14.785 -0.8744 -1.0568 -0.6185
17197TIP3    H173082   4.860   2.407  14.696 -1.6865 -0.9709 -0.4011
17197TIP3    H273083   4.805   2.443  14.832 -0.4270 -0.5502  0.0079
17198TIP3   OH273084   0.612   3.324   3.388 -0.3684  0.1402 -0.0386
17198TIP3    H173085   0.612   3.316   3.292 -0.4878 -1.8783  0.0777
17198TIP3    H273086   0.599   3.234   3.419  0.0984  0.6932  1.8854
17199TIP3   OH273087   6.772   2.203   4.635  0.1283  0.1389  0.8298
17199TIP3    H173088   6.781   2.273   4.570  3.1421 -0.5806  0.3500
17199TIP3    H273089   6.700   2.149   4.602 -1.6456  2.4067  0.7253
17200TIP3   OH273090   3.176   5.548   5.301  0.5094  0.4325  0.4010
17200TIP3    H173091   3.176   5.542   5.397  1.2857 -0.1908  0.3761
17200TIP3    H273092   3.235   5.621   5.282  1.2842 -0.1847  0.3796
17201TIP3   OH273093   6.395   3.555  10.638  0.0999 -0.0332  0.0980
17201TIP3    H173094   6.311   3.603  10.634  0.4477  0.5257 -0.9883
17201TIP3    H273095   6.371   3.463  10.627 -0.5187 -0.0620  1.5166
17202TIP3   OH273096   4.962   3.829  16.311 -0.1301 -0.0376 -0.0319
17202TIP3    H173097   4.951   3.736  16.331 -0.1997 -0.4763 -1.9426
17202TIP3    H273098   5.008   3.830  16.227 -0.9543  1.6322 -0.5012
17203TIP3   OH273099   2.910   2.600   5.476  0.0671 -0.0328 -0.1358
17203TIP3    H173100   2.843   2.658   5.511 -0.4973 -1.0839  0.5868
17203TIP3    H273101   2.972   2.590   5.548  2.8735  3.4937 -1.7587
17204TIP3   OH273102   5.443   2.226  13.058  0.0765 -0.0246 -0.2250
17204TIP3    H173103   5.537   2.206  13.057 -0.0452 -0.6072 -0.8905
17204TIP3    H273104   5.418   2.228  12.966  0.0692  3.2882 -0.2496
17205TIP3   OH273105   0.983   1.809  13.901 -0.2508  0.8136 -0.3844
17205TIP3    H173106   0.930   1.868  13.954 -0.4009  0.1528  0.2097
17205TIP3    H273107   1.050   1.776  13.961 -2.3555 -2.4859  0.3740
17206TIP3   OH273108   1.458   0.326   3.010  0.3196 -0.0102  0.5374
17206TIP3    H173109   1.508   0.247   2.989  3.1021  2.0163 -1.2842
17206TIP3    H273110   1.405   0.342   2.932  0.8806  0.6459  0.2764
17207TIP3   OH273111   0.471   4.940   2.607 -0.0035 -0.2978 -0.3547
17207TIP3    H173112   0.561   4.958   2.632 -0.4646 -0.4313  1.5445
17207TIP3    H273113   0.448   5.010   2.546  0.5242  1.3890  1.3029
17208TIP3   OH273114   6.174   0.637  16.184  0.1775 -0.3138  0.5824
17208TIP3    H173115   6.097   0.583  16.166 -1.6068  1.7957  1.4266
17208TIP3    H273116   6.214   0.596  16.261 -0.4208 -1.1253  0.4749
17209TIP3   OH273117   6.174   0.274   0.997 -0.2647  0.4386  0.6813
17209TIP3    H173118   6.169   0.211   0.925 -0.6677  0.4395  0.7063
17209TIP3    H273119   6.252   0.249   1.045  0.4609  0.9240 -0.2105
17210TIP3   OH273120   1.157   6.752  16.755 -0.3509 -0.0597  0.5899
17210TIP3    H173121   1.105   6.709  16.688  0.3060  0.1065 -0.0400
17210TIP3    H273122   1.197   6.827  16.711 -0.6908  0.6273  1.4186
17211TIP3   OH273123   2.557   4.060  16.043 -0.3329 -0.3324 -0.7474
17211TIP3    H173124   2.634   4.004  16.044 -0.6564 -0.7838 -0.9002
17211TIP3    H273125   2.507   4.031  15.967 -0.6204  0.0030 -0.6873
17212TIP3   OH273126   0.935   6.337  14.709  0.2764 -0.0854 -0.0093
17212TIP3    H173127   0.888   6.300  14.634 -0.7565 -0.1745  0.6662
17212TIP3    H273128   0.987   6.264  14.743 -0.1534 -0.3581  0.0648
17213TIP3   OH273129   2.842   3.105   0.503  0.5500  0.1364 -0.0905
17213TIP3    H173130   2.761   3.054   0.498 -0.0192  1.0974 -1.2435
17213TIP3    H273131   2.912   3.041   0.493 -0.0453 -0.7214  0.9527
17214TIP3   OH273132   2.529   2.264   0.102  0.0080 -0.0936  0.0527
17214TIP3    H173133   2.544   2.356   0.127 -0.2498  0.0730 -0.3968
17214TIP3    H273134   2.583   2.251   0.024 -0.4024 -0.1545 -0.2243
17215TIP3   OH273135   0.091   0.684  15.984 -0.9805 -0.1828  0.5088
17215TIP3    H173136   0.064   0.647  16.068  0.8347  0.8525  1.6119
17215TIP3    H273137   0.151   0.619  15.947 -0.2662  0.2145  0.9503
17216TIP3   OH273138   5.513   1.591  12.915 -0.0300  0.2430  0.1806
17216TIP3    H173139   5.568   1.584  12.837 -0.2171 -1.0122  0.1382
17216TIP3    H273140   5.501   1.501  12.944 -1.3442  0.5619  0.6978
17217TIP3   OH273141   5.018   5.512  14.932 -0.0117  0.5492 -0.2916
17217TIP3    H173142   5.027   5.579  14.865  2.3681  0.4390 -0.1551
17217TIP3    H273143   5.074   5.440  14.903 -0.1057 -0.1170  1.0644
17218TIP3   OH273144   4.812   4.898  12.532 -0.3739  0.4148 -0.1422
17218TIP3    H173145   4.904   4.913  12.511 -0.4679  1.0575 -0.1187
17218TIP3    H273146   4.776   4.986  12.549 -1.3634  0.3503 -1.6892
17219TIP3   OH273147   2.085   1.228   1.334  0.2001  0.0840  0.2089
17219TIP3    H173148   2.023   1.270   1.275 -1.9723 -1.0118  1.5905
17219TIP3    H273149   2.090   1.288   1.409 -0.6922 -0.7157  0.9279
17220TIP3   OH273150   5.430   0.823  12.232 -0.0364  0.2478 -0.3398
17220TIP3    H173151   5.391   0.815  12.145 -1.0450  0.4752  0.0791
17220TIP3    H273152   5.461   0.913  12.236  1.0226 -0.0778 -0.8616
17221TIP3   OH273153   1.693   5.036  10.818 -0.2668  0.2907 -0.3022
17221TIP3    H173154   1.604   5.055  10.789 -0.2517  0.0819 -0.4858
17221TIP3    H273155   1.743   5.029  10.737 -0.2663 -0.4997 -0.2329
17222TIP3   OH273156   5.851   2.947  14.409 -0.0584 -0.4677 -0.0589
17222TIP3    H173157   5.817   2.884  14.346 -0.4589  0.1441 -0.4626
17222TIP3    H273158   5.906   3.006  14.358  1.9468 -1.6417  0.6361
17223TIP3   OH273159   3.958   4.990   1.447 -0.7939  0.9928  1.0590
17223TIP3    H173160   3.952   4.976   1.541  1.3633 -2.2172  0.8710
17223TIP3    H273161   4.046   5.022   1.432 -1.5875  2.9120  0.1807
17224TIP3   OH273162   0.605   0.634  14.789  0.2909 -0.2042  0.1070
17224TIP3    H173163   0.609   0.634  14.885  0.1419  1.1897  0.1312
17224TIP3    H273164   0.551   0.710  14.768  1.5732  0.3922 -1.1358
17225TIP3   OH273165   3.372   2.652   1.260 -0.0443  0.6329 -0.1238
17225TIP3    H173166   3.330   2.566   1.261 -0.4854  0.8447  1.0900
17225TIP3    H273167   3.457   2.637   1.220  0.8597 -0.8646  2.1539
17226TIP3   OH273168   5.095   4.178  15.793 -0.2363 -0.1020  0.7170
17226TIP3    H173169   5.127   4.232  15.865 -2.3359  0.2484  1.4655
17226TIP3    H273170   5.084   4.091  15.831 -1.0280  0.0035  0.7464
17227TIP3   OH273171   3.225   2.843   1.987  0.2440  0.1869  0.0286
17227TIP3    H173172   3.143   2.805   1.957  0.4517  0.3986 -0.8444
17227TIP3    H273173   3.229   2.928   1.943  0.9455  0.1617  0.0311
17228TIP3   OH273174   2.238   0.245  16.241  0.3284 -0.2429 -0.8299
17228TIP3    H173175   2.227   0.340  16.240 -0.9783 -0.3688 -0.3852
17228TIP3    H273176   2.297   0.228  16.315 -0.1038  0.1714 -0.3807
17229TIP3   OH273177   2.658   0.552  17.156  0.0310 -0.3559 -0.5243
17229TIP3    H173178   2.702   0.636  17.163  1.1926 -0.8135 -1.8804
17229TIP3    H273179   2.653   0.521  17.247  0.7956  0.5743 -0.1401
17230TIP3   OH273180   5.799   2.704  13.066 -0.2673 -0.4856 -0.0321
17230TIP3    H173181   5.837   2.751  12.992 -0.8118  2.6479  1.5324
17230TIP3    H273182   5.844   2.620  13.066  1.0663  0.1098 -2.7826
17231TIP3   OH273183   5.850   1.240   0.241 -0.5523 -0.4205  0.0147
17231TIP3    H173184   5.768   1.286   0.258  0.5083  0.9229  1.8945
17231TIP3    H273185   5.855   1.174   0.310  0.4483  0.2701  0.6279
17232TIP3   OH273186   4.417   5.403  12.626 -0.3336 -0.0733  0.0359
17232TIP3    H173187   4.461   5.390  12.710 -2.0994 -1.0470  0.8431
17232TIP3    H273188   4.429   5.497  12.607  2.1035 -0.2809  0.1474
17233TIP3   OH273189   3.466   3.065   5.768 -0.0602  0.1552  0.0987
17233TIP3    H173190   3.451   2.982   5.812 -0.7168  0.1702 -0.0822
17233TIP3    H273191   3.493   3.041   5.679 -1.7118  0.1150 -0.4288
17234TIP3   OH273192   6.466   5.278   4.507 -0.2014  0.2555  0.4875
17234TIP3    H173193   6.406   5.339   4.464  2.1652  1.6989 -1.0281
17234TIP3    H273194   6.491   5.322   4.588  0.3952  0.6722  0.0892
17235TIP3   OH273195   0.298   4.258  10.484  0.3839  0.2137 -0.4682
17235TIP3    H173196   0.317   4.347  10.514  0.6764  0.4781 -1.3939
17235TIP3    H273197   0.233   4.270  10.415  1.6122 -0.1268 -1.7306
17236TIP3   OH273198   4.025   2.888  15.285  0.5801  0.7430 -0.0727
17236TIP3    H173199   4.102   2.941  15.305  0.8596  0.0818  0.6730
17236TIP3    H273200   4.016   2.831  15.361 -1.4879  1.7595  0.5181
17237TIP3   OH273201   0.361   6.542  14.586 -0.2510 -0.4130  0.6088
17237TIP3    H173202   0.387   6.584  14.504 -2.2275 -0.9103 -0.3241
17237TIP3    H273203   0.365   6.612  14.651 -0.9366  0.5806 -0.3944
17238TIP3   OH273204   0.466   2.806  11.397  0.0686  0.3402  0.0040
17238TIP3    H173205   0.528   2.818  11.325  0.8509  0.3951  0.6700
17238TIP3    H273206   0.467   2.712  11.414  2.1928  0.6051  1.8809
17239TIP3   OH273207   3.954   5.371  11.424 -0.3080  0.4444  0.5651
17239TIP3    H173208   3.858   5.370  11.426 -0.3313 -1.5429  0.3079
17239TIP3    H273209   3.977   5.330  11.341  0.7629 -0.5314  1.3113
17240TIP3   OH273210   2.088   1.577   6.620  0.4924  0.2528 -0.4709
17240TIP3    H173211   2.005   1.611   6.586  0.1453  0.3868  0.4697
17240TIP3    H273212   2.147   1.577   6.545 -0.0755  1.0719 -0.9328
17241TIP3   OH273213   0.203   1.112   2.657 -0.2065  0.4594  0.0004
17241TIP3    H173214   0.167   1.052   2.722 -0.3299  0.5346  0.0019
17241TIP3    H273215   0.280   1.067   2.622 -0.4965  0.1487 -0.2485
17242TIP3   OH273216   5.012   1.405  16.130 -0.6201  0.4091 -0.0926
17242TIP3    H173217   5.000   1.499  16.123  1.9591  0.9266  1.4385
17242TIP3    H273218   5.081   1.384  16.066  1.6576  0.3116  2.2395
17243TIP3   OH273219   0.421   1.410  16.360  0.6906  0.3187 -0.3495
17243TIP3    H173220   0.363   1.445  16.428 -0.5435 -0.1164 -1.1343
17243TIP3    H273221   0.508   1.413  16.399 -0.1938 -1.7823  2.0266
17244TIP3   OH273222   0.678   3.943  12.326  0.1382 -0.5728  0.1509
17244TIP3    H173223   0.703   3.990  12.246  0.8632 -2.0951 -0.5717
17244TIP3    H273224   0.685   4.008  12.395  0.4026  0.5543 -0.8969
17245TIP3   OH273225   1.729   1.302  13.708  0.2061  0.3582 -0.3906
17245TIP3    H173226   1.718   1.330  13.617  0.2008  0.2312 -0.4289
17245TIP3    H273227   1.721   1.383  13.758 -0.8462  0.2865 -0.4157
17246TIP3   OH273228   3.880   5.351   1.918  0.5010 -0.5966  0.3576
17246TIP3    H173229   3.943   5.405   1.966  1.7468 -0.8920 -0.8798
17246TIP3    H273230   3.795   5.383   1.947  1.1762 -0.6842  2.6352
17247TIP3   OH273231   1.728   4.526  14.762 -0.0279 -0.6243 -0.1736
17247TIP3    H173232   1.820   4.548  14.775  0.2133 -2.0313  0.8012
17247TIP3    H273233   1.685   4.609  14.746  1.4474  0.0422 -0.8938
17248TIP3   OH273234   6.644   0.813   3.058 -0.6626  0.0553 -0.2186
17248TIP3    H173235   6.711   0.879   3.077 -2.0804  2.6632 -3.3875
17248TIP3    H273236   6.693   0.731   3.047  1.4802  1.0387  1.2975
17249TIP3   OH273237   2.232   1.200   2.597  0.1587 -0.2970  0.1792
17249TIP3    H173238   2.316   1.183   2.639  0.3104  0.4783  0.2028
17249TIP3    H273239   2.200   1.114   2.571  0.7465 -0.6388  0.5781
17250TIP3   OH273240   4.878   6.057  11.642  0.4971  0.3473  0.2741
17250TIP3    H173241   4.896   6.131  11.701 -0.3280  0.3992  0.4715
17250TIP3    H273242   4.950   5.996  11.658  1.0184  0.9622  0.3403
17251TIP3   OH273243   2.360   0.529  15.941 -0.0328 -0.0998 -0.2267
17251TIP3    H173244   2.348   0.570  16.026 -0.3364  0.4385 -0.5287
17251TIP3    H273245   2.345   0.599  15.878 -0.5222 -0.6618 -0.7471
17252TIP3   OH273246   6.298   3.981   0.969  0.1841  0.2028 -0.0187
17252TIP3    H173247   6.331   3.974   1.059 -0.6875 -0.0114  0.2991
17252TIP3    H273248   6.300   3.892   0.936 -0.0145  0.1969 -0.0163
17253TIP3   OH273249   2.969   2.915  14.783  0.4715  0.0011 -0.1774
17253TIP3    H173250   2.952   2.877  14.869  1.0399 -4.3224 -1.7493
17253TIP3    H273251   2.883   2.945  14.753 -0.8067 -3.2706 -0.1082
17254TIP3   OH273252   3.729   1.106  16.325  0.3145  0.1155 -0.8142
17254TIP3    H173253   3.825   1.108  16.321  0.2984  0.3537 -1.1302
17254TIP3    H273254   3.707   1.165  16.397  0.4033  0.0980 -0.7720
17255TIP3   OH273255   3.636   2.587  14.086  0.0109  0.4038 -0.6921
17255TIP3    H173256   3.682   2.608  14.004  0.7491 -1.2160 -0.7384
17255TIP3    H273257   3.590   2.506  14.067  2.1813 -1.4028  1.1388
17256TIP3   OH273258   2.461   5.965  10.148  0.1606 -0.6420 -0.1142
17256TIP3    H173259   2.544   5.934  10.184 -0.6368 -1.1984  1.2956
17256TIP3    H273260   2.420   5.887  10.112 -0.7999 -0.8460  1.3471
17257TIP3   OH273261   2.582   4.085   6.239 -0.0380  0.7768 -0.6574
17257TIP3    H173262   2.499   4.080   6.192  1.0234  1.9589 -2.8117
17257TIP3    H273263   2.621   3.998   6.226 -1.2530 -0.0890  1.1215
17258TIP3   OH273264   2.756   5.626   1.580 -0.4858 -0.0972  0.2095
17258TIP3    H173265   2.762   5.699   1.642  1.9657 -0.3076  0.3266
17258TIP3    H273266   2.730   5.666   1.498  0.4443  0.8695  0.3686
17259TIP3   OH273267   6.791   4.410   1.849 -0.1017  0.2772 -0.3702
17259TIP3    H173268   6.761   4.370   1.767  0.4338  0.2515 -0.5528
17259TIP3    H273269   6.767   4.347   1.916 -0.1578  0.1055 -0.5510
17260TIP3   OH273270   5.297   2.944  12.742  0.4570  0.6402  0.4397
17260TIP3    H173271   5.226   2.880  12.736  0.0507  0.8306  2.4708
17260TIP3    H273272   5.267   3.019  12.690  0.6051 -0.4749 -1.3380
17261TIP3   OH273273   2.522   6.676   0.127  0.4099 -0.5919 -0.1104
17261TIP3    H173274   2.452   6.740   0.135  0.1527 -0.6285 -1.7752
17261TIP3    H273275   2.563   6.674   0.213 -0.6882  0.5186  0.4568
17262TIP3   OH273276   6.186   2.989   0.048 -0.0429 -0.2206  0.6169
17262TIP3    H173277   6.241   2.924   0.091  0.4276 -0.1554  0.1235
17262TIP3    H273278   6.234   3.071   0.055 -0.9988  0.2536  1.9268
17263TIP3   OH273279   4.170   2.938   4.206  0.3345  0.5429  0.0085
17263TIP3    H173280   4.203   2.905   4.122 -1.0915 -1.1202  0.0389
17263TIP3    H273281   4.077   2.914   4.205 -0.6265  3.8189  0.4669
17264TIP3   OH273282   4.613   6.279   2.393  0.1429  0.0224 -0.4880
17264TIP3    H173283   4.547   6.348   2.404  0.3967  0.2553 -0.4034
17264TIP3    H273284   4.605   6.225   2.471  1.3768  1.1890  0.5134
17265TIP3   OH273285   2.022   3.967   2.849  0.4257  0.3160 -0.9047
17265TIP3    H173286   1.982   4.037   2.900  0.0072  0.3443 -1.2742
17265TIP3    H273287   1.951   3.931   2.796  0.5225 -0.7265 -0.3508
17266TIP3   OH273288   3.815   3.198   0.525  0.0771  0.0026 -0.2608
17266TIP3    H173289   3.754   3.256   0.480  0.3155 -0.4534 -1.2002
17266TIP3    H273290   3.785   3.110   0.504 -0.8105 -0.2790  1.8629
17267TIP3   OH273291   5.407   1.578  11.593  0.0141 -0.4772  0.4920
17267TIP3    H173292   5.455   1.525  11.530  1.0965  1.1258 -0.0714
17267TIP3    H273293   5.471   1.600  11.661 -0.5063 -0.1531  0.8926
17268TIP3   OH273294   6.662   5.239  13.329  0.1197  0.6433  0.2695
17268TIP3    H173295   6.598   5.231  13.259 -0.1114 -0.2763  0.5840
17268TIP3    H273296   6.633   5.179  13.396  1.6011 -0.2073  0.1986
17269TIP3   OH273297   3.949   3.623  12.024  0.0867  0.4583  0.3367
17269TIP3    H173298   3.966   3.533  12.050 -0.4358  0.5391  1.0003
17269TIP3    H273299   3.855   3.627  12.010  0.2551  0.6301 -0.8075
17270TIP3   OH273300   6.820   0.343  16.955  0.4762 -0.1223 -0.8329
17270TIP3    H173301   6.895   0.291  16.986  0.1708  0.2485  0.6004
17270TIP3    H273302   6.770   0.283  16.900  0.5944 -1.0884  0.0867
17271TIP3   OH273303   1.858   1.744  13.176 -0.2589  0.1550  0.3497
17271TIP3    H173304   1.884   1.805  13.106 -2.2152  1.2737  0.5309
17271TIP3    H273305   1.934   1.740  13.234  1.2201 -0.3794 -1.5106
17272TIP3   OH273306   1.252   5.024  15.590  0.3193 -0.2195  0.4090
17272TIP3    H173307   1.342   4.993  15.585  0.4906  0.3042  0.1935
17272TIP3    H273308   1.202   4.964  15.535  0.8480  0.6264 -1.0415
17273TIP3   OH273309   1.781   0.061  12.966  0.0125  0.2427 -0.0720
17273TIP3    H173310   1.837  -0.017  12.971  0.7993  0.7981 -0.1460
17273TIP3    H273311   1.713   0.045  13.032  1.5997  0.6116  1.7414
17274TIP3   OH273312   6.279   1.493  16.884  0.3176  0.0151 -0.1405
17274TIP3    H173313   6.332   1.420  16.915 -0.2712 -1.1219 -1.6587
17274TIP3    H273314   6.294   1.563  16.947  0.5268 -1.5656  1.6397
17275TIP3   OH273315   0.257   4.920   3.984  0.1279 -0.2835  0.1950
17275TIP3    H173316   0.275   5.012   3.964  0.3552 -0.0520  1.4081
17275TIP3    H273317   0.177   4.922   4.037  0.5938 -0.6981  0.9396
17276TIP3   OH273318   1.104   2.528   1.529 -0.1848 -0.4074 -0.1192
17276TIP3    H173319   1.177   2.576   1.566 -0.6440 -0.0182  0.2968
17276TIP3    H273320   1.144   2.461   1.473  0.4691  0.2753 -0.4782
17277TIP3   OH273321   4.908   4.348  11.426 -0.4329 -0.3622  0.5390
17277TIP3    H173322   4.986   4.403  11.437 -0.9298 -0.0342  3.1884
17277TIP3    H273323   4.849   4.402  11.372  0.1760  0.5052  0.7101
17278TIP3   OH273324   2.075   4.531  14.992  0.0230 -0.5283  0.3422
17278TIP3    H173325   2.034   4.607  15.032 -0.5806  0.1555 -1.4565
17278TIP3    H273326   2.039   4.455  15.038 -1.6984  0.1560  0.1714
17279TIP3   OH273327   6.004   4.071  14.057 -0.8116 -0.2648 -0.2513
17279TIP3    H173328   5.935   4.023  14.012 -1.5973  0.8506 -0.2604
17279TIP3    H273329   6.019   4.021  14.138 -1.1572 -0.8737 -0.5599
17280TIP3   OH273330   2.482   6.135   2.504 -0.1674 -0.2235  0.2570
17280TIP3    H173331   2.568   6.174   2.490  1.8450 -3.7631  1.2686
17280TIP3    H273332   2.456   6.165   2.591  0.9106 -0.3889  0.6579
17281TIP3   OH273333   5.368   4.562   2.811  0.4087 -0.2654  0.0518
17281TIP3    H173334   5.458   4.537   2.831  0.5738  0.2277 -0.0573
17281TIP3    H273335   5.375   4.616   2.732 -0.0821 -0.9957 -0.5025
17282TIP3   OH273336   1.318   2.571   0.415  0.7015  0.2980  0.4367
17282TIP3    H173337   1.266   2.568   0.335  0.2623  0.7555  0.6995
17282TIP3    H273338   1.254   2.581   0.485  1.0639 -0.4035  0.8774
17283TIP3   OH273339   3.326   2.756  11.783 -0.1945  0.0701 -0.5761
17283TIP3    H173340   3.281   2.677  11.752 -0.1245  0.3300 -1.3652
17283TIP3    H273341   3.365   2.793  11.704  1.8730 -0.4276  0.1519
17284TIP3   OH273342   5.154   2.436  14.855 -0.1323 -0.0892  0.0507
17284TIP3    H173343   5.182   2.527  14.851  1.2104 -0.4415  0.9808
17284TIP3    H273344   5.059   2.440  14.845 -0.2607  1.5232  1.5507
17285TIP3   OH273345   0.148   3.022   3.465 -0.1672 -0.0339 -0.0904
17285TIP3    H173346   0.139   3.075   3.386 -0.2651 -0.6080 -0.4693
17285TIP3    H273347   0.099   2.942   3.446 -0.5421 -0.0022  0.7117
17286TIP3   OH273348   4.556   3.174   3.039  0.4080 -0.1622 -0.2694
17286TIP3    H173349   4.525   3.170   3.129  0.7416 -2.3072 -0.1833
17286TIP3    H273350   4.527   3.092   3.000  1.1330  0.2788 -1.8296
17287TIP3   OH273351   2.937   6.736  11.843  0.0780  0.0434 -0.4116
17287TIP3    H173352   2.966   6.768  11.758 -0.9715 -0.7698 -1.0963
17287TIP3    H273353   2.842   6.735  11.837 -0.1078  1.4352  1.3333
17288TIP3   OH273354   3.982   1.566  14.349  0.3814  0.1376 -0.8428
17288TIP3    H173355   3.930   1.637  14.385 -0.1454 -0.5189 -0.2826
17288TIP3    H273356   4.067   1.573  14.393 -0.4627 -1.0738  1.1228
17289TIP3   OH273357   6.749   4.143   0.170  0.2044 -0.0746  0.0407
17289TIP3    H173358   6.786   4.231   0.165 -0.2528  0.0649 -1.0644
17289TIP3    H273359   6.780   4.100   0.090 -1.8077 -0.0269 -0.8206
17290TIP3   OH273360   0.700   0.550   1.186 -0.1522  0.3358 -0.0668
17290TIP3    H173361   0.771   0.540   1.250  0.3127  0.8250 -0.5039
17290TIP3    H273362   0.620   0.551   1.240  0.0929 -1.0987  0.3613
17291TIP3   OH273363   5.014   4.637  11.922 -0.0279 -0.0583 -0.4556
17291TIP3    H173364   4.998   4.543  11.930 -2.5506  0.4035  0.5035
17291TIP3    H273365   5.000   4.672  12.010  2.7077  1.0657 -0.3391
17292TIP3   OH273366   2.778   0.431  12.982 -0.3019  0.0368  0.1658
17292TIP3    H173367   2.812   0.519  12.968  0.8194 -0.3231  0.5559
17292TIP3    H273368   2.734   0.436  13.067 -2.4397  0.8390 -0.9183
17293TIP3   OH273369   1.535   5.630   3.868 -0.2510 -0.4652 -0.2460
17293TIP3    H173370   1.446   5.632   3.902  0.2695 -0.9744  1.2261
17293TIP3    H273371   1.591   5.632   3.945  0.9831 -2.3007 -0.9941
17294TIP3   OH273372   6.117   2.731  11.175  0.0371 -0.2226  0.0529
17294TIP3    H173373   6.097   2.799  11.239  2.8980  0.2084  0.5863
17294TIP3    H273374   6.092   2.769  11.090 -0.7013  0.4713  0.5687
17295TIP3   OH273375   0.873   1.247   5.734  0.6724  0.1146  0.2323
17295TIP3    H173376   0.858   1.165   5.781  0.8469  1.1726  2.2386
17295TIP3    H273377   0.965   1.268   5.750  0.0070  1.9963  2.0373
17296TIP3   OH273378   3.312   3.148  16.524  0.4361  0.7868  0.5830
17296TIP3    H173379   3.308   3.212  16.594 -1.7190  0.7983  0.4992
17296TIP3    H273380   3.305   3.200  16.444 -1.5385  0.4961  0.5192
17297TIP3   OH273381   2.648   3.244   1.762  0.1436  0.1748  0.2872
17297TIP3    H173382   2.706   3.175   1.730  0.6945  1.0102 -0.5922
17297TIP3    H273383   2.686   3.271   1.846  0.1299 -0.3532  0.4617
17298TIP3   OH273384   1.603   5.040  12.360 -0.1422  0.0736  0.1838
17298TIP3    H173385   1.547   5.076  12.429  0.2889  2.6881 -0.7030
17298TIP3    H273386   1.655   4.972  12.403 -1.6064 -0.0695  1.8079
17299TIP3   OH273387   2.092   3.736  15.505  0.4844 -0.2712 -0.0389
17299TIP3    H173388   2.078   3.807  15.442  0.5508 -0.5107 -0.3311
17299TIP3    H273389   2.004   3.702  15.522  0.6050 -1.4240 -1.4600
17300TIP3   OH273390   5.173   4.229  12.170 -0.0983 -0.2888  0.2915
17300TIP3    H173391   5.099   4.240  12.230  1.0977  0.2165  1.7413
17300TIP3    H273392   5.197   4.318  12.145  0.7666 -0.3515  0.8264
17301TIP3   OH273393   5.326   2.926  16.069 -0.1878 -0.4242 -0.2477
17301TIP3    H173394   5.310   2.846  16.119 -1.7850 -0.9580 -1.5366
17301TIP3    H273395   5.403   2.906  16.016 -1.4027 -1.6746 -1.6203
17302TIP3   OH273396   4.722   4.503  12.622  0.6239 -0.1334 -0.2317
17302TIP3    H173397   4.725   4.478  12.714  0.6775 -0.1615 -0.2407
17302TIP3    H273398   4.804   4.471  12.585  1.3151  1.1990  0.0557
17303TIP3   OH273399   6.368   6.560  14.549  0.4426 -0.4453  0.1180
17303TIP3    H173400   6.399   6.647  14.576 -0.0335 -0.4964  0.8421
17303TIP3    H273401   6.415   6.499  14.606  1.0655 -0.7038 -0.6443
17304TIP3   OH273402   3.077   5.442  12.827 -0.6866 -0.4156  0.1305
17304TIP3    H173403   3.128   5.442  12.908  0.6384  0.4066 -0.6688
17304TIP3    H273404   3.104   5.363  12.781  0.6359  0.4971 -0.7248
17305TIP3   OH273405   6.751   2.246   1.451 -0.2073 -0.3533  0.3290
17305TIP3    H173406   6.750   2.267   1.358  0.3171 -1.2307  0.1183
17305TIP3    H273407   6.662   2.264   1.481 -0.2087  0.5602 -0.1903
17306TIP3   OH273408   6.320   4.075   4.094 -0.0821  0.1855  0.0780
17306TIP3    H173409   6.336   4.030   4.011 -1.5043  0.7705 -0.5527
17306TIP3    H273410   6.391   4.138   4.101 -1.1085  1.6812 -1.8612
17307TIP3   OH273411   4.384   4.749   1.482 -0.4735  0.2170  0.4931
17307TIP3    H173412   4.332   4.682   1.437 -2.0531  1.2005  0.7574
17307TIP3    H273413   4.465   4.753   1.432 -1.0750 -0.6217 -0.6308
17308TIP3   OH273414   2.143   3.403   3.529 -0.2797 -0.2153 -0.5799
17308TIP3    H173415   2.126   3.342   3.601 -2.9350  1.3361  0.2645
17308TIP3    H273416   2.213   3.460   3.562  0.9692 -1.6286 -0.6837
17309TIP3   OH273417   4.227   2.305   0.664 -0.0469 -0.1473 -0.5058
17309TIP3    H173418   4.267   2.239   0.608  0.6578 -0.8642  0.7920
17309TIP3    H273419   4.233   2.386   0.614  1.2427 -0.6216 -1.1596
17310TIP3   OH273420   3.300   0.719  16.778 -0.1501  0.4461 -0.3413
17310TIP3    H173421   3.307   0.668  16.859 -0.2166 -0.5393 -0.9469
17310TIP3    H273422   3.361   0.676  16.718  0.8411  1.9196 -0.4455
17311TIP3   OH273423   4.745   3.530  12.667  0.5507  0.0630 -0.3631
17311TIP3    H173424   4.792   3.500  12.745 -0.4938  1.0067  0.6627
17311TIP3    H273425   4.708   3.450  12.630 -2.9991 -0.0526  2.8655
17312TIP3   OH273426   5.996   0.930   3.958 -0.5455  0.2453  0.0754
17312TIP3    H173427   6.011   0.983   4.037  0.7324  1.3116 -0.8482
17312TIP3    H273428   6.072   0.872   3.954 -1.3110 -0.8053  0.3791
17313TIP3   OH273429   2.825   3.712  11.859  0.6340 -0.0496  0.0187
17313TIP3    H173430   2.881   3.635  11.858  1.0000  0.2050 -1.3890
17313TIP3    H273431   2.884   3.785  11.881  0.0332 -0.2902  2.8127
17314TIP3   OH273432   4.351   2.732  11.694 -0.1171  0.2492  0.0151
17314TIP3    H173433   4.386   2.665  11.635  1.2333 -1.2917  2.3998
17314TIP3    H273434   4.375   2.815  11.653  1.0699 -0.7472 -1.4086
17315TIP3   OH273435   4.874   0.738  13.124  0.3069 -0.0461 -0.0980
17315TIP3    H173436   4.888   0.833  13.116 -1.6005  0.2488 -0.4218
17315TIP3    H273437   4.816   0.717  13.051  2.5492 -1.9476 -1.4906
17316TIP3   OH273438   0.210   3.947  14.805  0.7019 -0.3587 -0.0070
17316TIP3    H173439   0.136   3.920  14.859  1.5028 -1.0692  0.7700
17316TIP3    H273440   0.252   4.017  14.856 -0.0324  0.8067 -0.9439
17317TIP3   OH273441   4.027   3.378   1.428  0.0398 -0.2763 -0.8187
17317TIP3    H173442   3.968   3.441   1.386  0.0227 -0.0787 -0.5018
17317TIP3    H273443   3.978   3.295   1.427 -0.6316  0.0853  0.2636
17318TIP3   OH273444   3.684   6.703   4.784  0.1136 -0.0203 -0.1188
17318TIP3    H173445   3.779   6.708   4.793  0.2981  3.5174 -2.1298
17318TIP3    H273446   3.651   6.731   4.870  0.9608  0.5142  0.0548
17319TIP3   OH273447   6.511   6.804   0.403  0.7087  0.3253 -0.0654
17319TIP3    H173448   6.542   6.820   0.314 -0.1229 -0.0999 -0.4385
17319TIP3    H273449   6.494   6.891   0.438  2.2292  0.5678  0.1255
17320TIP3   OH273450   4.835   6.575   0.274  0.4423 -0.4919 -0.4284
17320TIP3    H173451   4.904   6.521   0.312  1.8145  1.1148 -0.5157
17320TIP3    H273452   4.831   6.547   0.183  1.1733 -0.4484 -0.4861
17321TIP3   OH273453   5.742   0.902   1.290 -0.1211 -0.5368 -0.3805
17321TIP3    H173454   5.795   0.829   1.258 -1.1626 -0.9685 -1.1564
17321TIP3    H273455   5.688   0.864   1.360 -0.8769 -0.5946 -0.9832
17322TIP3   OH273456   5.677   0.407  15.256 -0.5867  0.2828 -0.0010
17322TIP3    H173457   5.600   0.442  15.300 -0.5487 -0.8041  0.9638
17322TIP3    H273458   5.725   0.360  15.324  0.3795  0.0252 -0.8267
17323TIP3   OH273459   3.870   0.890  12.092 -0.2606  0.2732 -0.0150
17323TIP3    H173460   3.940   0.937  12.047  0.5768 -0.6893  0.2314
17323TIP3    H273461   3.830   0.955  12.150 -0.2962  1.1125 -0.9516
17324TIP3   OH273462   0.542   6.475   1.919  0.1061  0.0516 -0.1184
17324TIP3    H173463   0.630   6.512   1.918  0.0159  0.2592 -0.3266
17324TIP3    H273464   0.516   6.472   1.828  0.7006 -1.9460 -0.2725
17325TIP3   OH273465   2.336   1.935   4.356  0.2710  0.1775  0.4329
17325TIP3    H173466   2.334   1.957   4.449 -0.9876  1.4735  0.1446
17325TIP3    H273467   2.334   1.840   4.353 -2.4449  0.1008  1.7581
17326TIP3   OH273468   3.095   4.301   2.443 -0.6141  0.0370 -0.8168
17326TIP3    H173469   3.147   4.292   2.523  1.1394  0.1445 -1.8854
17326TIP3    H273470   3.069   4.212   2.422  0.2627 -0.2020 -0.9475
17327TIP3   OH273471   5.430   5.078  17.097 -0.1450 -0.3788  0.2032
17327TIP3    H173472   5.445   5.098  17.004 -0.7486 -2.3868 -0.3787
17327TIP3    H273473   5.349   5.027  17.097  0.2221 -1.0072  1.7687
17328TIP3   OH273474   4.432   0.174  11.890 -0.1507  0.5657  0.0085
17328TIP3    H173475   4.345   0.214  11.888  0.2688  1.9193  2.8480
17328TIP3    H273476   4.480   0.225  11.956  2.8570 -0.0775 -1.5142
17329TIP3   OH273477   1.064   3.856   3.984 -0.8116  0.0805  0.3552
17329TIP3    H173478   1.013   3.930   3.951 -0.8267 -0.0534  0.0796
17329TIP3    H273479   1.010   3.779   3.965 -0.3598 -0.0948 -0.2463
17330TIP3   OH273480   4.069   1.487   6.707 -0.1569 -0.4331  0.5148
17330TIP3    H173481   4.041   1.426   6.776  0.2470 -0.4818  0.6399
17330TIP3    H273482   3.997   1.550   6.701 -0.6893 -1.0530  0.2143
17331TIP3   OH273483   2.095   5.650  11.349  0.1565 -0.0225  0.0465
17331TIP3    H173484   2.170   5.707  11.366 -0.8473  1.6416 -0.8061
17331TIP3    H273485   2.033   5.669  11.419  0.6935 -1.8013  1.0719
17332TIP3   OH273486   1.548   3.280  12.300  0.6116  0.1135  0.5002
17332TIP3    H173487   1.478   3.333  12.263  0.9218 -1.4958 -2.7675
17332TIP3    H273488   1.514   3.250  12.385 -1.0990  2.2624  0.6499
17333TIP3   OH273489   2.729   5.491  14.608 -0.0503  0.0471 -0.7086
17333TIP3    H173490   2.683   5.565  14.648 -0.5823 -1.0465  0.8131
17333TIP3    H273491   2.820   5.501  14.636 -0.1524  0.0490 -0.3764
17334TIP3   OH273492   2.335   0.701  15.486  0.2763  0.4854  0.1827
17334TIP3    H173493   2.250   0.674  15.451  0.9175  0.5056 -1.4774
17334TIP3    H273494   2.385   0.619  15.494  0.3794  0.5679  0.4112
17335TIP3   OH273495   6.070   0.477  12.759 -0.1022  0.2328 -0.0015
17335TIP3    H173496   6.150   0.498  12.711 -0.2026  0.0996 -0.2267
17335TIP3    H273497   6.046   0.558  12.803  1.5828 -0.3325  2.1695
17336TIP3   OH273498   0.082   6.183   1.737 -0.4577  0.3946 -0.3878
17336TIP3    H173499   0.139   6.252   1.703 -0.7739  0.1803 -1.4099
17336TIP3    H273500   0.125   6.102   1.711 -0.8284  0.2246 -0.4823
17337TIP3   OH273501   6.178   1.066   3.775 -0.5588  0.5348 -0.7502
17337TIP3    H173502   6.118   1.029   3.840  0.3990 -0.1483 -0.2417
17337TIP3    H273503   6.155   1.159   3.772 -2.0157  0.2078 -0.9786
17338TIP3   OH273504   6.578   1.173   1.918  0.0720  0.4064  0.0047
17338TIP3    H173505   6.523   1.240   1.960  0.6747  0.8886  0.0512
17338TIP3    H273506   6.613   1.122   1.991 -0.5580 -0.1023 -0.0432
17339TIP3   OH273507   4.615   5.508   0.087  0.4457 -0.4516  0.0091
17339TIP3    H173508   4.606   5.413   0.090  0.3656 -0.5233 -1.4368
17339TIP3    H273509   4.709   5.523   0.087  0.4829 -0.6085 -0.7106
17340TIP3   OH273510   2.196   2.069  14.938 -0.4525 -0.2188  0.4359
17340TIP3    H173511   2.206   1.974  14.945 -0.1653 -0.1378  1.2226
17340TIP3    H273512   2.279   2.104  14.969 -0.2955  0.2789 -0.5258
17341TIP3   OH273513   1.175   3.127   5.076  0.0220  0.3779  0.0551
17341TIP3    H173514   1.140   3.066   5.141 -0.5227 -0.0193 -0.6032
17341TIP3    H273515   1.104   3.189   5.061  0.2834  0.6929  0.1205
17342TIP3   OH273516   0.996   5.429  16.129 -0.3153 -0.0960  0.3968
17342TIP3    H173517   1.025   5.435  16.220  2.3090 -0.3020 -0.3182
17342TIP3    H273518   1.034   5.347  16.098 -1.2849 -0.0940 -0.8561
17343TIP3   OH273519   5.809   6.698   1.490  0.6663  0.5271  0.0415
17343TIP3    H173520   5.848   6.617   1.521 -1.3610 -0.0765  1.1874
17343TIP3    H273521   5.837   6.764   1.553 -0.9314 -0.1046  1.4872
17344TIP3   OH273522   5.400   0.761  14.415 -0.0722 -0.3623  0.3094
17344TIP3    H173523   5.321   0.810  14.434 -1.0661 -2.1237  0.9633
17344TIP3    H273524   5.397   0.685  14.473  2.0344 -0.5638  0.2549
17345TIP3   OH273525   1.447   5.598  13.603 -0.7061  0.6939  0.1372
17345TIP3    H173526   1.418   5.508  13.616 -1.8621  0.9421 -0.5971
17345TIP3    H273527   1.542   5.592  13.597 -0.6292 -0.2702  1.6931
17346TIP3   OH273528   2.102   6.606   4.566  0.0887  0.2064 -0.2815
17346TIP3    H173529   2.129   6.536   4.506 -0.6612 -0.0798 -0.2967
17346TIP3    H273530   2.032   6.567   4.618  1.8266 -0.1131  1.9584
17347TIP3   OH273531   4.686   0.295   3.962  0.2768 -0.2482 -0.5348
17347TIP3    H173532   4.652   0.209   3.985  0.5765  0.2033  1.8682
17347TIP3    H273533   4.609   0.343   3.929 -0.3138 -0.8234 -0.0106
17348TIP3   OH273534   5.935   1.882  13.886  0.2824  0.5130  0.0965
17348TIP3    H173535   5.997   1.810  13.892  1.2308  1.3413  0.6062
17348TIP3    H273536   5.882   1.875  13.965 -0.1153 -0.0530 -0.2175
17349TIP3   OH273537   5.105   0.674  16.941  0.5478 -0.4290 -0.2653
17349TIP3    H173538   5.151   0.720  16.870 -0.7246 -0.3441 -1.0607
17349TIP3    H273539   5.126   0.582  16.927  1.6380 -0.2839  0.2632
17350TIP3   OH273540   6.664   3.027  11.817 -0.4525  0.4306  0.0246
17350TIP3    H173541   6.637   3.083  11.744 -1.3868 -0.0070  0.0214
17350TIP3    H273542   6.654   2.938  11.784  2.6622  0.2084 -0.5566
17351TIP3   OH273543   0.491   2.043   0.834 -0.4302  0.3413  0.2687
17351TIP3    H173544   0.438   2.116   0.804  1.0549  1.2011 -0.3501
17351TIP3    H273545   0.509   2.063   0.926 -0.5228  0.4586  0.2614
17352TIP3   OH273546   2.318   5.337  15.491 -0.1914 -0.1418 -0.0502
17352TIP3    H173547   2.293   5.408  15.551  0.1136 -0.9364  1.0427
17352TIP3    H273548   2.408   5.356  15.467  0.1687 -0.6088  0.9135
17353TIP3   OH273549   2.996   6.644  11.368  0.4064 -0.3509  0.1310
17353TIP3    H173550   3.087   6.619  11.387  0.4142 -0.0721  0.4651
17353TIP3    H273551   2.977   6.603  11.284  0.7286 -0.7030  0.2282
17354TIP3   OH273552   6.305   6.056   3.892  0.4506 -0.2364  0.8505
17354TIP3    H173553   6.221   6.024   3.926  0.6292 -1.7513 -0.0667
17354TIP3    H273554   6.281   6.118   3.824  0.0845 -0.0203  1.1704
17355TIP3   OH273555   1.448   0.148   1.364 -0.2573 -0.1382 -0.5384
17355TIP3    H173556   1.437   0.235   1.325 -2.4991  0.1739  0.5986
17355TIP3    H273557   1.379   0.095   1.324  1.5110 -1.6553 -1.7349
17356TIP3   OH273558   6.200   5.295   1.562  0.1761  0.1430 -0.4931
17356TIP3    H173559   6.139   5.257   1.626 -0.8073  0.9788 -0.9053
17356TIP3    H273560   6.186   5.244   1.483 -2.2618  2.1824 -1.5204
17357TIP3   OH273561   1.599   3.760  13.525 -0.0475  0.3573 -0.2353
17357TIP3    H173562   1.604   3.812  13.444 -0.0602 -0.0573 -0.5062
17357TIP3    H273563   1.570   3.822  13.592  0.7794  0.9100 -0.3693
17358TIP3   OH273564   5.980   6.517   1.182  0.0317  0.5504  0.0335
17358TIP3    H173565   5.961   6.424   1.188 -3.5659  1.2321  1.7714
17358TIP3    H273566   6.062   6.529   1.229 -0.0192 -1.5843  0.7327
17359TIP3   OH273567   1.213   3.567   3.254  0.2351 -0.0860  0.9949
17359TIP3    H173568   1.294   3.518   3.241  0.0957 -0.2069  0.5340
17359TIP3    H273569   1.154   3.534   3.185 -0.3373 -0.2809  1.5687
17360TIP3   OH273570   0.853   6.023   5.411 -0.2203  0.1077 -0.1923
17360TIP3    H173571   0.762   5.993   5.407 -0.1059 -0.3788  0.7002
17360TIP3    H273572   0.847   6.117   5.395 -0.8710  0.0648 -0.2540
17361TIP3   OH273573   5.917   0.183  14.367  0.0147 -0.2942 -0.2932
17361TIP3    H173574   6.000   0.139  14.350  0.3182  0.2210 -0.1634
17361TIP3    H273575   5.895   0.159  14.458  0.0964 -0.3069 -0.2769
17362TIP3   OH273576   4.831   4.308   3.684  0.3651  0.1285  0.1650
17362TIP3    H173577   4.789   4.232   3.643  0.7289 -1.1179  1.9607
17362TIP3    H273578   4.911   4.273   3.723  1.0412  1.6518  0.2179
17363TIP3   OH273579   5.574   3.992  13.394 -0.3242 -0.1390  0.2530
17363TIP3    H173580   5.667   3.970  13.382 -0.0034  0.5197  1.4139
17363TIP3    H273581   5.537   3.915  13.438  0.1482  0.4135  1.6668
17364TIP3   OH273582   6.776   3.357  15.372 -0.5861  0.0365 -0.1503
17364TIP3    H173583   6.696   3.374  15.421 -0.5657  1.0700 -0.4468
17364TIP3    H273584   6.770   3.413  15.295  0.9346  1.0397  0.4101
17365TIP3   OH273585   4.656   4.362   4.540  0.1075  0.2499  0.0817
17365TIP3    H173586   4.591   4.308   4.585  1.4679 -0.0624  1.8194
17365TIP3    H273587   4.733   4.305   4.531 -0.1913  0.1734 -3.1214
17366TIP3   OH273588   6.811   3.497  13.979 -0.2489 -0.0938 -0.2226
17366TIP3    H173589   6.838   3.418  13.933 -0.2431  0.1149 -0.5875
17366TIP3    H273590   6.878   3.562  13.955  0.7528 -0.4449  1.4861
17367TIP3   OH273591   4.112   4.569   3.438 -0.1437 -0.4599 -0.8516
17367TIP3    H173592   4.024   4.580   3.476  0.3978  0.3475  0.2217
17367TIP3    H273593   4.100   4.589   3.345 -1.2089 -0.9538 -0.8366
17368TIP3   OH273594   1.594   1.393   2.426  0.4418 -0.2665 -0.2807
17368TIP3    H173595   1.502   1.373   2.407  0.9217 -2.0923 -0.8560
17368TIP3    H273596   1.636   1.395   2.339  0.7460  1.8135 -0.1331
17369TIP3   OH273597   0.154   4.498   5.710 -0.2504  0.6021  0.2054
17369TIP3    H173598   0.205   4.423   5.738 -2.1007 -1.0911 -0.7148
17369TIP3    H273599   0.212   4.546   5.651  1.0286  0.0159  0.9495
17370TIP3   OH273600   5.560   4.247   4.299  0.5973  0.3270 -0.2320
17370TIP3    H173601   5.515   4.290   4.372 -1.3620 -1.1241 -0.5096
17370TIP3    H273602   5.567   4.156   4.326  1.3572  0.0944 -1.1784
17371TIP3   OH273603   2.692   0.110   5.112  0.0434 -0.2907 -0.1157
17371TIP3    H173604   2.779   0.109   5.152 -0.7746 -2.4027  1.8762
17371TIP3    H273605   2.655   0.194   5.136  1.2844  0.3638 -0.4341
17372TIP3   OH273606   3.457   2.763   6.591  0.2249  0.1517 -0.7667
17372TIP3    H173607   3.379   2.814   6.611  1.6047  2.8222 -1.7567
17372TIP3    H273608   3.449   2.742   6.497 -0.4284 -1.7487 -0.3315
17373TIP3   OH273609   1.055   0.032   0.918 -0.7689 -0.3624 -0.3157
17373TIP3    H173610   0.997   0.061   0.848 -0.8534 -1.1972 -0.6099
17373TIP3    H273611   1.139   0.072   0.899 -1.3812  1.3898  0.4731
17374TIP3   OH273612   1.339   5.700   2.330 -0.0454  0.1051  0.2312
17374TIP3    H173613   1.412   5.709   2.269  0.2284 -0.7069  0.4207
17374TIP3    H273614   1.331   5.786   2.372  1.6499 -0.1424  1.1455
17375TIP3   OH273615   2.187   5.372   0.725  0.0465  0.1737 -0.2918
17375TIP3    H173616   2.172   5.453   0.773 -1.4568 -0.2861  0.0798
17375TIP3    H273617   2.262   5.391   0.668  1.4735  0.9341  1.7326
17376TIP3   OH273618   4.223   4.440   5.265 -0.6935 -0.5848 -0.5516
17376TIP3    H173619   4.215   4.495   5.343 -0.3230  0.0468 -0.9452
17376TIP3    H273620   4.286   4.373   5.289 -0.4547 -0.2950 -0.3520
17377TIP3   OH273621   1.061   6.779   3.891 -0.2191 -0.3099 -0.4670
17377TIP3    H173622   1.127   6.842   3.864 -0.1476  0.9450  2.3060
17377TIP3    H273623   0.982   6.805   3.844  0.3379  0.5220 -0.9681
17378TIP3   OH273624   4.532   3.906  10.939  0.1679  0.3970 -0.1302
17378TIP3    H173625   4.489   3.992  10.945 -0.9109 -0.0901 -0.6680
17378TIP3    H273626   4.626   3.927  10.935  0.0531  1.4644  1.5744
17379TIP3   OH273627   2.886   2.453  11.530  0.3744  0.2495  0.1310
17379TIP3    H173628   2.880   2.443  11.625  0.4392 -0.8922  0.0248
17379TIP3    H273629   2.832   2.530  11.510 -1.5873 -0.8536  0.8504
17380TIP3   OH273630   4.091   2.029  11.008  0.3364 -0.1486  0.9247
17380TIP3    H173631   4.130   1.952  11.049  0.3218 -0.5134  0.2613
17380TIP3    H273632   4.155   2.098  11.022  0.5835 -0.4045  1.0673
17381TIP3   OH273633   0.089   5.935  11.434 -0.3099 -1.0292 -0.0589
17381TIP3    H173634   0.066   5.972  11.519  1.8267 -0.3866  0.2955
17381TIP3    H273635   0.152   5.997  11.397 -0.2220 -1.9501 -1.5386
17382TIP3   OH273636   5.087   2.958   3.323 -0.4301  0.2211  0.5510
17382TIP3    H173637   5.023   2.952   3.252  1.3026  0.8143 -1.1414
17382TIP3    H273638   5.087   2.871   3.362 -0.7746 -0.3991 -0.7686
17383TIP3   OH273639   5.322   3.318   3.699 -0.1763 -0.0444 -0.2529
17383TIP3    H173640   5.372   3.269   3.634  0.0467 -0.9793  0.6078
17383TIP3    H273641   5.233   3.283   3.691 -0.4401  0.7427 -0.9201
17384TIP3   OH273642   6.496   6.612  12.586  0.0886  0.2736  0.5208
17384TIP3    H173643   6.491   6.532  12.534 -2.2325  0.6068  0.1220
17384TIP3    H273644   6.472   6.584  12.674 -0.2607  0.4426  0.4795
17385TIP3   OH273645   3.836   3.222  11.563  0.1179 -0.5455  0.3228
17385TIP3    H173646   3.757   3.222  11.510  0.8619  0.3177 -0.8492
17385TIP3    H273647   3.898   3.277  11.515  1.0907 -0.3300  1.7223
17386TIP3   OH273648   5.394   2.059   6.101  0.4269  0.5088  0.0458
17386TIP3    H173649   5.401   1.972   6.141  0.5227  0.1425 -0.7519
17386TIP3    H273650   5.444   2.116   6.159  2.8194 -0.4807 -0.9547
17387TIP3   OH273651   6.562   5.225   1.439 -0.0471 -0.4210 -0.2373
17387TIP3    H173652   6.507   5.172   1.382 -0.7928  1.0455 -0.9363
17387TIP3    H273653   6.501   5.268   1.499  0.5106 -0.1556  0.1540
17388TIP3   OH273654   0.647   4.198   4.963 -0.0178 -0.2830  0.3157
17388TIP3    H173655   0.667   4.136   4.893 -1.5681  0.2554 -0.6567
17388TIP3    H273656   0.728   4.249   4.973  1.9747 -3.4826  2.3835
17389TIP3   OH273657   4.787   2.673   6.254 -0.7705  0.3280 -0.2174
17389TIP3    H173658   4.770   2.741   6.319 -3.8617 -0.7479  0.2710
17389TIP3    H273659   4.824   2.600   6.303 -0.3607  0.5614 -0.1834
17390TIP3   OH273660   4.159   2.419   3.120 -0.0083 -0.6829 -0.6677
17390TIP3    H173661   4.223   2.356   3.154  0.3567  0.5964  1.1505
17390TIP3    H273662   4.187   2.434   3.029  3.4864  1.1663  0.5169
17391TIP3   OH273663   2.263   5.894  11.426 -0.4296  0.6302 -0.2698
17391TIP3    H173664   2.348   5.916  11.386  1.5979 -0.1258  3.1940
17391TIP3    H273665   2.233   5.976  11.464  1.5028  0.0052  2.9551
17392TIP3   OH273666   6.677   4.563   1.475  0.3098 -0.3740 -0.0746
17392TIP3    H173667   6.667   4.632   1.410 -1.3341 -2.5975 -2.3752
17392TIP3    H273668   6.601   4.571   1.532 -0.9881 -1.3923 -1.5725
17393TIP3   OH273669   3.496   4.486  14.765  0.3773  0.2202 -0.5312
17393TIP3    H173670   3.480   4.420  14.833 -1.5836 -2.1233 -3.0700
17393TIP3    H273671   3.413   4.532  14.758  0.9561  1.2914 -0.5576
17394TIP3   OH273672   3.829   2.195  12.270  0.5107  0.3485 -0.4920
17394TIP3    H173673   3.822   2.285  12.303  0.1253  0.1581 -0.0334
17394TIP3    H273674   3.904   2.158  12.316 -1.0026 -0.4416  1.5035
17395TIP3   OH273675   3.653   2.949   6.654  0.0944 -0.1652 -0.1292
17395TIP3    H173676   3.603   2.878   6.613 -3.4914 -0.3627  3.8652
17395TIP3    H273677   3.737   2.909   6.676 -0.7062 -2.2545 -0.6311
17396TIP3   OH273678   2.448   2.969  14.223  0.4502 -0.4685  0.0476
17396TIP3    H173679   2.359   2.981  14.256  0.3158 -0.9279 -0.1410
17396TIP3    H273680   2.488   3.056  14.230 -0.5990  0.1888 -1.6605
17397TIP3   OH273681   5.126   0.170   4.003 -0.1521  0.2383 -0.5584
17397TIP3    H173682   5.123   0.082   3.965 -0.3689  0.1210 -0.2714
17397TIP3    H273683   5.038   0.185   4.038  0.0564  0.3253 -0.0583
17398TIP3   OH273684   0.375   5.487  17.179  0.3664 -0.2997 -0.0121
17398TIP3    H173685   0.464   5.480  17.214  0.0655 -1.0408  0.6210
17398TIP3    H273686   0.328   5.413  17.217 -0.4919  0.0030 -0.4549
17399TIP3   OH273687   2.631   2.987  12.970  0.4771 -0.6153  0.5808
17399TIP3    H173688   2.540   3.002  12.993  0.5623  0.3965  0.3199
17399TIP3    H273689   2.629   2.917  12.905 -0.4596  1.5977 -1.9875
17400TIP3   OH273690   3.530   1.245  17.030  0.1056  0.0779  0.3604
17400TIP3    H173691   3.620   1.279  17.037  0.1361  0.7568 -2.1294
17400TIP3    H273692   3.536   1.178  16.961 -1.2749  0.1030  0.2021
17401TIP3   OH273693   2.909   4.143  13.953  0.1387  0.0190 -0.5014
17401TIP3    H173694   2.986   4.129  14.009  1.0100 -1.3102 -1.9467
17401TIP3    H273695   2.859   4.062  13.961 -1.4290  1.0629  0.8144
17402TIP3   OH273696   5.367   4.650  11.292  0.0751  0.5153 -0.0161
17402TIP3    H173697   5.428   4.592  11.247 -0.6194  2.1399 -3.3665
17402TIP3    H273698   5.423   4.720  11.327  0.4345  0.3918 -0.3303
17403TIP3   OH273699   4.155   4.022  14.685  0.1668 -0.6009 -0.4509
17403TIP3    H173700   4.083   4.060  14.736  0.4271  0.0383 -0.5512
17403TIP3    H273701   4.155   4.072  14.603  3.0954  2.0728  0.9794
17404TIP3   OH273702   4.081   1.602  12.134  0.5415 -0.0463  0.3221
17404TIP3    H173703   4.025   1.545  12.082 -0.1562  2.2800 -1.6799
17404TIP3    H273704   4.113   1.667  12.072  3.8159 -0.0142  1.8342
17405TIP3   OH273705   4.156   6.127  14.608  0.2645 -0.2347  0.1608
17405TIP3    H173706   4.171   6.167  14.523 -4.9889 -0.2280 -1.0889
17405TIP3    H273707   4.195   6.040  14.601 -0.1660 -0.2823 -2.3810
17406TIP3   OH273708   2.920   4.908   2.962 -0.0191  0.1448 -0.3630
17406TIP3    H173709   2.929   4.851   3.038  1.4285 -0.1013 -0.6780
17406TIP3    H273710   2.829   4.938   2.964 -0.5861 -1.4942  0.2881
17407TIP3   OH273711   5.981   6.504   1.599 -0.4831  0.7593  0.3126
17407TIP3    H173712   5.983   6.493   1.694  3.1018 -3.4802  0.0719
17407TIP3    H273713   6.060   6.554   1.579 -0.9942  1.2593 -0.5191
17408TIP3   OH273714   4.106   0.937   0.345 -0.4989 -0.0117  0.1230
17408TIP3    H173715   4.139   0.849   0.361  0.4987  0.3237 -0.0036
17408TIP3    H273716   4.018   0.924   0.311 -0.4350 -0.9462  0.2861
17409TIP3   OH273717   2.688   0.468  15.084 -0.1597 -0.1939 -0.1069
17409TIP3    H173718   2.669   0.461  15.178 -0.3565  1.4594  0.0059
17409TIP3    H273719   2.751   0.539  15.077 -1.4199  0.8633 -1.3560
17410TIP3   OH273720   3.928   3.204   3.664 -0.4413 -0.0404  0.6668
17410TIP3    H173721   3.855   3.217   3.603 -0.0306  1.8305  0.5015
17410TIP3    H273722   3.903   3.252   3.742 -0.5146 -1.5869  1.6281
17411TIP3   OH273723   3.543   3.300   5.294  0.2704  0.4665  0.1007
17411TIP3    H173724   3.539   3.394   5.276  1.5991  0.4013 -0.7168
17411TIP3    H273725   3.546   3.294   5.389  0.5741  1.2817  0.1504
17412TIP3   OH273726   4.123   2.782   2.409  0.2229  0.6215  0.1147
17412TIP3    H173727   4.182   2.786   2.484  0.5705  1.2264 -0.1795
17412TIP3    H273728   4.079   2.867   2.409 -2.7972 -0.7908  2.0045
17413TIP3   OH273729   1.525   2.740  14.776  0.3145 -0.0531  0.3634
17413TIP3    H173730   1.547   2.781  14.693 -1.3748  1.2242  0.4951
17413TIP3    H273731   1.594   2.768  14.836  1.1336 -0.3692 -0.4083
17414TIP3   OH273732   4.949   3.290   4.001  0.0495  0.5308  0.6021
17414TIP3    H173733   4.957   3.288   4.097 -0.6385  0.9557  0.6782
17414TIP3    H273734   4.916   3.203   3.979 -0.4476  0.6579  0.8240
17415TIP3   OH273735   3.827   1.849  16.547  0.1543  0.2025 -0.0632
17415TIP3    H173736   3.881   1.905  16.603  0.8534 -0.4897 -0.0210
17415TIP3    H273737   3.827   1.764  16.592  1.4997 -0.6368 -1.5523
17416TIP3   OH273738   4.700   6.768   3.904 -0.1547  0.3710  0.1532
17416TIP3    H173739   4.661   6.683   3.885  0.2136  0.1181  0.5005
17416TIP3    H273740   4.626   6.824   3.927 -0.2401 -0.4343  2.0504
17417TIP3   OH273741   4.000   3.201  13.516  0.5502 -0.6584 -0.3499
17417TIP3    H173742   4.084   3.194  13.561  0.1053  1.2108  0.8702
17417TIP3    H273743   4.015   3.267  13.448 -0.5796  1.7695  1.6421
17418TIP3   OH273744   2.127   5.334  13.101  0.1203  0.3331  0.0358
17418TIP3    H173745   2.178   5.415  13.090 -1.0485  1.2096  0.8758
17418TIP3    H273746   2.150   5.282  13.024  0.4545  1.6993 -0.8382
17419TIP3   OH273747   3.604   1.146  11.760 -0.3025  0.0438  0.4019
17419TIP3    H173748   3.569   1.056  11.764  0.3868 -0.1748  2.2474
17419TIP3    H273749   3.527   1.201  11.774 -0.7941 -0.2044 -1.0899
17420TIP3   OH273750   1.060   1.839   2.598 -0.0163  0.7205  0.3028
17420TIP3    H173751   1.030   1.805   2.514  0.4142  2.1708 -0.4620
17420TIP3    H273752   1.101   1.764   2.641  0.4913  0.1479 -1.1315
17421TIP3   OH273753   0.267   0.438  11.616 -0.3798 -0.4056 -0.3514
17421TIP3    H173754   0.261   0.406  11.526 -0.2415 -0.7163 -0.2539
17421TIP3    H273755   0.319   0.517  11.611  0.6114 -1.0464 -0.3999
17422TIP3   OH273756   0.934   4.906   2.667  0.2314 -0.3217  0.0867
17422TIP3    H173757   0.976   4.831   2.625 -1.1148 -0.1767 -1.6058
17422TIP3    H273758   0.874   4.940   2.601 -0.2177  1.4023  1.3221
17423TIP3   OH273759   4.950   5.247  13.805 -0.3922 -0.4313  0.3564
17423TIP3    H173760   4.983   5.168  13.848 -1.4683 -0.4884  1.1001
17423TIP3    H273761   4.960   5.229  13.712  0.6144 -0.8963  0.5349
17424TIP3   OH273762   1.174   1.151  15.492  0.1923  0.0679  0.2741
17424TIP3    H173763   1.083   1.180  15.489  0.6007  1.4220  0.4400
17424TIP3    H273764   1.170   1.062  15.528 -1.0196  0.2892  0.7144
17425TIP3   OH273765   0.837   5.546   1.637 -0.5362 -0.2018  0.3366
17425TIP3    H173766   0.913   5.604   1.641 -1.3137  1.0941 -2.0208
17425TIP3    H273767   0.798   5.553   1.724  1.1182  0.3492  1.0826
17426TIP3   OH273768   5.657   0.964  17.025 -0.1925  0.4089  0.1908
17426TIP3    H173769   5.690   1.007  17.104 -0.7854  0.4311  0.4339
17426TIP3    H273770   5.596   0.898  17.058  0.1926 -0.1545 -0.2134
17427TIP3   OH273771   6.608   4.976  14.321 -0.5718 -0.3572 -0.1984
17427TIP3    H173772   6.557   4.919  14.380  0.8996 -0.7397  0.7719
17427TIP3    H273773   6.599   4.936  14.235  0.6408 -2.3069  0.5020
17428TIP3   OH273774   2.184   5.229  11.305 -0.4702 -0.1407 -0.3141
17428TIP3    H173775   2.167   5.296  11.371 -0.0307 -1.0026  0.7296
17428TIP3    H273776   2.231   5.274  11.235 -1.1694  0.8524 -0.1560
17429TIP3   OH273777   4.925   4.255   5.489 -0.1725 -0.2474 -0.2039
17429TIP3    H173778   4.890   4.215   5.569 -1.8473  0.6914 -0.4149
17429TIP3    H273779   5.017   4.230   5.488 -0.7054 -2.5654  0.6001
17430TIP3   OH273780   0.965   0.692  16.205  0.5689  0.3104  0.1668
17430TIP3    H173781   0.987   0.721  16.116 -1.1667  0.1700 -0.3445
17430TIP3    H273782   1.047   0.658  16.240  1.3462  0.6114 -1.2945
17431TIP3   OH273783   4.597   5.640  16.897  0.1467  0.2202 -0.0167
17431TIP3    H173784   4.527   5.703  16.912 -0.3249  0.0582 -1.4061
17431TIP3    H273785   4.552   5.560  16.871  0.8218  0.4137 -1.9836
17432TIP3   OH273786   6.067   2.114   6.432 -0.0145  0.4777  0.4323
17432TIP3    H173787   6.056   2.185   6.370  0.8034  0.4034  0.1874
17432TIP3    H273788   6.116   2.047   6.384  0.9397  0.5628  1.2366
17433TIP3   OH273789   5.196   2.068  11.106 -0.0434  0.0935 -0.1055
17433TIP3    H173790   5.169   2.121  11.031 -1.5956 -1.0172 -0.3682
17433TIP3    H273791   5.288   2.091  11.119 -0.5459  2.5383 -0.4341
17434TIP3   OH273792   4.497   1.855  12.418 -0.4227  0.1271  1.3397
17434TIP3    H173793   4.472   1.947  12.427  0.8551  1.1326 -2.8730
17434TIP3    H273794   4.585   1.850  12.455  0.2392  1.1456 -0.0088
17435TIP3   OH273795   1.374   0.573  15.079  0.1280  0.9695 -0.1905
17435TIP3    H173796   1.438   0.570  15.007 -0.6852 -1.9046 -0.9048
17435TIP3    H273797   1.422   0.539  15.155 -0.4834 -1.2203 -0.7345
17436TIP3   OH273798   3.765   6.701  12.627 -0.2057 -0.2789  0.6368
17436TIP3    H173799   3.696   6.685  12.691 -0.0738 -1.8060  0.4177
17436TIP3    H273800   3.823   6.625  12.633  1.9318  1.3015  1.3671
17437TIP3   OH273801   4.098   6.327   0.906 -0.3890 -0.0981  0.3414
17437TIP3    H173802   4.158   6.350   0.835 -1.8946  0.3367 -0.8444
17437TIP3    H273803   4.089   6.232   0.900  0.5395 -0.2282  0.8462
17438TIP3   OH273804   3.757   0.662  17.165  0.2843  0.7388  0.2497
17438TIP3    H173805   3.684   0.719  17.189 -1.8767 -0.8490 -2.0094
17438TIP3    H273806   3.820   0.721  17.124 -0.7083  1.8967  0.3285
17439TIP3   OH273807   1.713   6.182  11.805 -0.1635 -0.3196  0.3765
17439TIP3    H173808   1.808   6.186  11.821 -0.1477  0.1332  0.1810
17439TIP3    H273809   1.706   6.174  11.710 -0.2778 -2.2439  0.5075
17440TIP3   OH273810   0.254   0.897   0.027  0.1204  0.5858  0.1524
17440TIP3    H173811   0.274   0.807   0.055 -1.2579  0.0352 -0.5779
17440TIP3    H273812   0.340   0.936   0.010  0.7061 -0.9414 -0.5694
17441TIP3   OH273813   3.841   5.700   0.347  0.0925 -0.9585  0.0231
17441TIP3    H173814   3.753   5.711   0.311  0.6357  0.0498 -1.0651
17441TIP3    H273815   3.840   5.749   0.429 -0.6947 -1.9425  0.6183
17442TIP3   OH273816   2.110   4.544  15.522 -0.0048 -0.4979  0.7855
17442TIP3    H173817   2.143   4.621  15.568  1.3383 -0.3609 -0.3587
17442TIP3    H273818   2.058   4.498  15.587  0.7747  0.3651  2.0580
17443TIP3   OH273819   6.019   3.091   1.088  0.3403  0.4587  0.2379
17443TIP3    H173820   6.049   3.131   1.169 -0.9336  0.1682  0.8711
17443TIP3    H273821   5.965   3.017   1.116  0.0039  0.2647 -0.8728
17444TIP3   OH273822   5.045   2.931  15.165 -0.1550  0.4278  0.3872
17444TIP3    H173823   4.958   2.899  15.189 -0.2496  0.5075  0.1511
17444TIP3    H273824   5.089   2.855  15.126 -0.3716  0.5779 -0.1524
17445TIP3   OH273825   1.416   1.452  12.889  0.5880 -0.1281  0.5445
17445TIP3    H173826   1.424   1.491  12.976  0.6177 -0.5056  0.7086
17445TIP3    H273827   1.327   1.418  12.886  1.1232 -1.6549  1.0657
17446TIP3   OH273828   5.998   6.462   5.527 -0.6185 -0.1254  0.4076
17446TIP3    H173829   6.092   6.456   5.543 -0.6668 -2.5835  0.1185
17446TIP3    H273830   5.962   6.506   5.604  0.8437  1.8754  0.0278
17447TIP3   OH273831   0.984   0.959   1.895 -0.4421  0.0549  0.4997
17447TIP3    H173832   0.945   0.883   1.938 -0.6138  0.9933  2.0998
17447TIP3    H273833   1.078   0.952   1.914 -0.2294 -0.5778 -0.7157
17448TIP3   OH273834   4.942   1.854   5.311 -0.1732  0.1595  0.2273
17448TIP3    H173835   5.032   1.865   5.280  0.0304 -1.5166  0.1159
17448TIP3    H273836   4.927   1.928   5.369  0.9670  0.9580 -0.4594
17449TIP3   OH273837   4.321   3.661   4.049  0.2298  0.3862  0.5225
17449TIP3    H173838   4.226   3.672   4.045  0.2559  0.8364  1.0594
17449TIP3    H273839   4.341   3.662   4.142  0.7008 -0.2999  0.4392
17450TIP3   OH273840   2.438   2.146  15.553 -0.1829  0.4566  0.4831
17450TIP3    H173841   2.400   2.132  15.640 -0.2395  0.1674  0.4135
17450TIP3    H273842   2.431   2.061  15.510 -0.2699  0.6306  0.1486
17451TIP3   OH273843   6.286   6.260  14.970 -0.0904  0.0033  0.1448
17451TIP3    H173844   6.281   6.166  14.957 -1.2037  0.0191  0.3581
17451TIP3    H273845   6.352   6.290  14.908 -1.1848 -0.6522 -1.3762
17452TIP3   OH273846   5.137   2.365   2.497 -0.6291  0.6250 -0.8372
17452TIP3    H173847   5.157   2.320   2.579  2.1773 -0.0895 -1.8001
17452TIP3    H273848   5.079   2.437   2.522 -0.6760 -0.1729  1.5791
17453TIP3   OH273849   6.094   3.135   2.403 -0.1744  0.9178 -0.4625
17453TIP3    H173850   6.103   3.095   2.317 -2.7730  0.3073 -0.5467
17453TIP3    H273851   6.020   3.196   2.393  0.6409  2.1859  0.8919
17454TIP3   OH273852   3.634   0.958  16.613  0.4425  0.1526 -0.3538
17454TIP3    H173853   3.633   1.026  16.681  0.8602 -2.7482  2.8265
17454TIP3    H273854   3.595   0.882  16.655  0.2935 -1.7556 -3.6107
17455TIP3   OH273855   1.179   6.657   1.413 -0.1494 -0.0940  0.3860
17455TIP3    H173856   1.166   6.666   1.508 -1.1737 -0.3552  0.2739
17455TIP3    H273857   1.235   6.731   1.390  0.4186 -0.2262  1.2450
17456TIP3   OH273858   4.816   3.837   5.705  0.2471 -0.3763  0.5255
17456TIP3    H173859   4.888   3.877   5.754  1.5901  0.0970 -1.7432
17456TIP3    H273860   4.848   3.750   5.680  0.0373 -0.1778 -0.4670
17457TIP3   OH273861   2.221   6.006   0.019  0.1432  0.1183  0.2620
17457TIP3    H173862   2.232   6.009   0.115  1.8785  0.1300  0.1032
17457TIP3    H273863   2.311   6.003  -0.014 -0.3957  1.5199 -1.4292
17458TIP3   OH273864   3.777   3.968   4.072 -0.0421 -0.1816  0.1988
17458TIP3    H173865   3.794   3.880   4.105  1.2840  0.0681  0.2405
17458TIP3    H273866   3.705   3.957   4.009  0.6245 -1.4216 -0.3853
17459TIP3   OH273867   2.723   3.610  13.586 -0.2332 -0.5104  0.4514
17459TIP3    H173868   2.677   3.597  13.503 -0.4908  1.9975  0.0968
17459TIP3    H273869   2.814   3.588  13.567 -0.3410 -0.2453 -0.4316
17460TIP3   OH273870   2.316   2.711   2.940 -0.3148 -0.1361  0.5423
17460TIP3    H173871   2.290   2.765   2.866  2.3149  1.2272  0.5215
17460TIP3    H273872   2.313   2.621   2.905  0.1994  0.4116 -1.0174
17461TIP3   OH273873   4.866   2.546  13.146 -0.5480 -0.1723 -0.4862
17461TIP3    H173874   4.800   2.534  13.077 -1.2488 -1.8312  0.4276
17461TIP3    H273875   4.926   2.612  13.110 -2.2461  0.8067 -1.6741
17462TIP3   OH273876   5.711   1.204  14.555  0.5407 -0.4554 -0.7329
17462TIP3    H173877   5.665   1.120  14.553  3.0977 -1.9799 -0.1990
17462TIP3    H273878   5.777   1.197  14.487  1.2767  0.8535 -0.2016
17463TIP3   OH273879   0.227   0.736   2.474  0.1451  0.1454 -0.3053
17463TIP3    H173880   0.198   0.768   2.389  0.0380 -0.5130 -0.5243
17463TIP3    H273881   0.182   0.652   2.485 -2.4282  1.6454  1.8523
17464TIP3   OH273882   4.060   4.406  11.549 -0.0680  0.0286  0.0653
17464TIP3    H173883   3.983   4.415  11.493  0.1335  0.9671 -0.0759
17464TIP3    H273884   4.026   4.413  11.638 -0.0123  1.8193 -0.0162
17465TIP3   OH273885   0.679   4.994   1.897  0.3459 -0.3158  0.2713
17465TIP3    H173886   0.748   4.954   1.950  0.5238 -0.9053 -0.3962
17465TIP3    H273887   0.722   5.019   1.815 -0.5162 -2.0324 -0.7499
17466TIP3   OH273888   6.285   2.342   3.061 -0.0037 -0.3596 -0.9451
17466TIP3    H173889   6.344   2.313   3.131 -2.2863 -3.2027 -0.0163
17466TIP3    H273890   6.323   2.425   3.031  1.7782  0.3952  2.7994
17467TIP3   OH273891   5.981   5.205   5.876  0.2303 -0.4365  0.1112
17467TIP3    H173892   5.953   5.115   5.893  2.1065 -1.6461 -2.5173
17467TIP3    H273893   5.902   5.250   5.845 -0.4058 -1.6207 -0.0150
17468TIP3   OH273894   2.118   3.326   1.966  0.1586 -0.2604 -0.0331
17468TIP3    H173895   2.084   3.403   2.013  0.3339 -0.3922  0.3162
17468TIP3    H273896   2.194   3.359   1.918  0.2549 -0.2237  0.1442
17469TIP3   OH273897   1.493   2.478  15.363 -0.2930  0.5408 -0.2250
17469TIP3    H173898   1.455   2.517  15.442 -0.6602 -0.8041  0.2764
17469TIP3    H273899   1.430   2.500  15.294  0.5552  2.6513 -0.4014
17470TIP3   OH273900   6.546   5.988   6.297  0.5296 -0.0378  0.7311
17470TIP3    H173901   6.459   5.949   6.291  0.4394  0.1949  0.5015
17470TIP3    H273902   6.531   6.078   6.325  0.7323 -0.1410  1.1799
17471TIP3   OH273903   0.554   5.066   5.993 -0.0564  0.3103  0.3026
17471TIP3    H173904   0.502   4.990   6.020 -1.0588  0.9047  0.0513
17471TIP3    H273905   0.539   5.131   6.061 -0.2867  0.7786 -0.1959
17472TIP3   OH273906   0.569   6.811  16.363 -0.1222 -0.0240 -0.1248
17472TIP3    H173907   0.568   6.882  16.427 -0.8672 -0.7421  0.6852
17472TIP3    H273908   0.481   6.813  16.325 -0.0640 -0.3533 -0.2775
17473TIP3   OH273909   3.094   2.285   2.978  0.1497 -0.2440  0.4875
17473TIP3    H173910   3.035   2.340   3.029  1.8894  0.0675  2.2825
17473TIP3    H273911   3.141   2.346   2.922 -1.7964 -0.5905 -1.6903
17474TIP3   OH273912   2.740   6.594   1.208 -0.6396 -0.5993 -0.5403
17474TIP3    H173913   2.799   6.566   1.138  1.7858  0.7758  0.8495
17474TIP3    H273914   2.664   6.537   1.199  0.9853 -2.6476 -2.2571
17475TIP3   OH273915   3.522   4.840   1.071 -0.3552  0.0219 -0.6442
17475TIP3    H173916   3.496   4.759   1.027 -0.9642 -0.3896  0.4370
17475TIP3    H273917   3.604   4.819   1.114 -1.4193 -0.6349  1.1822
17476TIP3   OH273918   4.586   3.128   4.873  0.2436 -0.0187  0.1116
17476TIP3    H173919   4.662   3.102   4.925 -0.2886 -0.9251  0.4563
17476TIP3    H273920   4.623   3.159   4.790  0.9529 -1.5005 -0.1668
17477TIP3   OH273921   4.075   3.194   5.734  0.2796  0.4780 -0.3708
17477TIP3    H173922   4.118   3.280   5.727  0.1468  0.5128 -0.7719
17477TIP3    H273923   4.140   3.139   5.778  1.7165 -0.1046 -3.0398
17478TIP3   OH273924   1.689   4.910  13.716 -0.4016 -0.5390  0.1912
17478TIP3    H173925   1.729   4.971  13.777 -0.7033  0.2486 -0.3803
17478TIP3    H273926   1.631   4.964  13.662 -0.0292 -1.1834 -0.8871
17479TIP3   OH273927   0.855   4.078   2.496 -0.1600  0.6377 -0.3504
17479TIP3    H173928   0.784   4.135   2.525 -0.7177 -0.6096  0.8361
17479TIP3    H273929   0.893   4.043   2.576 -0.6675 -1.6204 -1.0260
17480TIP3   OH273930   4.061   1.344   1.531 -0.2715 -0.2895  0.0470
17480TIP3    H173931   3.989   1.286   1.556 -0.3492 -0.2905 -0.1734
17480TIP3    H273932   4.102   1.301   1.456 -0.3254 -0.0640 -0.1135
17481TIP3   OH273933   0.856   0.875  16.450 -0.0550 -0.1820 -0.1027
17481TIP3    H173934   0.934   0.907  16.404  1.3809  0.2331  2.4304
17481TIP3    H273935   0.888   0.800  16.502 -1.9716 -1.7277 -1.0176
17482TIP3   OH273936   1.086   3.737  15.389  0.1062  0.2059  0.1458
17482TIP3    H173937   1.100   3.766  15.299 -0.9256  0.0098 -0.0940
17482TIP3    H273938   1.002   3.777  15.415 -0.5594 -1.2418  0.3491
17483TIP3   OH273939   6.060   5.582  13.641  0.5362 -0.5856 -0.2158
17483TIP3    H173940   6.077   5.656  13.700  1.5024 -1.1483  0.2254
17483TIP3    H273941   6.008   5.620  13.570  2.9580  1.0857 -1.2363
17484TIP3   OH273942   2.076   6.331  10.843  0.6047 -0.4533 -0.1575
17484TIP3    H173943   2.145   6.397  10.831 -1.9039  2.5116  0.2286
17484TIP3    H273944   2.046   6.312  10.755  1.0265 -0.7283 -0.2451
17485TIP3   OH273945   1.119   4.965  15.899 -0.1758 -0.4416  0.0438
17485TIP3    H173946   1.155   5.052  15.884  1.8589 -1.5382 -2.1715
17485TIP3    H273947   1.040   4.962  15.845  1.5341 -0.9365 -2.6245
17486TIP3   OH273948   2.208   3.649  12.821 -0.0851  0.6880  0.3445
17486TIP3    H173949   2.234   3.731  12.778  1.2636 -0.7082 -1.6849
17486TIP3    H273950   2.290   3.615  12.857  0.3426 -1.7410 -2.5105
17487TIP3   OH273951   3.533   5.225   4.456  0.0194 -0.0257  0.3570
17487TIP3    H173952   3.501   5.207   4.368  0.0968 -2.0717  0.6969
17487TIP3    H273953   3.622   5.260   4.443  0.2246 -0.7972 -0.3633
17488TIP3   OH273954   1.342   4.753  11.978 -0.2839  0.2823 -0.4781
17488TIP3    H173955   1.283   4.796  12.041  1.7768 -0.2939  2.0420
17488TIP3    H273956   1.428   4.757  12.020  0.6096 -3.3475 -1.5688
17489TIP3   OH273957   3.618   6.381  15.713  0.5793 -0.5061 -0.4440
17489TIP3    H173958   3.698   6.330  15.714  0.5019 -0.6243 -0.2404
17489TIP3    H273959   3.624   6.434  15.634  0.6935 -0.7735 -0.6144
17490TIP3   OH273960   4.580   1.245  13.716 -0.7241 -0.1472 -0.0460
17490TIP3    H173961   4.495   1.202  13.730 -1.0057 -0.0407 -1.2722
17490TIP3    H273962   4.558   1.331  13.682 -0.1355  0.6407  1.4967
17491TIP3   OH273963   3.651   2.835  14.345 -0.2888 -0.1245  0.2353
17491TIP3    H173964   3.577   2.888  14.375  0.4097  1.7016 -1.0678
17491TIP3    H273965   3.654   2.848  14.251  0.8255 -1.3310  0.0745
17492TIP3   OH273966   2.211   5.673   1.921 -0.2578 -0.1043 -0.2627
17492TIP3    H173967   2.152   5.598   1.932  0.3043 -0.8172 -1.6793
17492TIP3    H273968   2.163   5.748   1.956 -1.1563 -1.0029  0.4790
17493TIP3   OH273969   2.915   0.631  15.593 -0.1652 -0.4884  0.1434
17493TIP3    H173970   2.885   0.711  15.551 -1.0450 -1.4786 -1.1983
17493TIP3    H273971   2.911   0.650  15.687 -1.5217  0.6279 -0.1108
17494TIP3   OH273972   4.633   3.024  14.131 -0.2937  0.5315  0.3905
17494TIP3    H173973   4.660   2.968  14.059 -0.0724  1.7157 -0.4711
17494TIP3    H273974   4.558   2.978  14.170 -2.1964  1.1079 -2.2743
17495TIP3   OH273975   6.257   5.619  16.859 -0.0673  0.2201 -0.0436
17495TIP3    H173976   6.296   5.573  16.933  2.1512  0.8967 -0.7340
17495TIP3    H273977   6.216   5.550  16.807 -0.3310 -0.4392  1.0128
17496TIP3   OH273978   4.287   4.413  14.812 -0.0246 -0.1728  0.1496
17496TIP3    H173979   4.357   4.411  14.746  0.2528 -1.4997  0.4656
17496TIP3    H273980   4.207   4.417  14.760  0.1598 -1.8456 -0.3345
17497TIP3   OH273981   0.040   0.224   0.214  0.4933 -0.0282 -0.1822
17497TIP3    H173982   0.039   0.271   0.131  0.0628 -1.8754 -1.2782
17497TIP3    H273983  -0.028   0.157   0.205  0.2742 -0.1374  1.7627
17498TIP3   OH273984   6.410   1.370   0.465 -0.5434 -0.2753  0.1731
17498TIP3    H173985   6.333   1.315   0.451 -0.8497 -0.0241  0.8013
17498TIP3    H273986   6.480   1.310   0.489 -0.4007 -0.5569 -0.9224
17499TIP3   OH273987   5.989   3.646   5.004  0.1960 -0.3292  0.3654
17499TIP3    H173988   5.974   3.615   5.093 -0.9773  0.7744  0.5777
17499TIP3    H273989   6.016   3.737   5.015 -0.1817 -0.1202 -0.4243
17500TIP3   OH273990   2.718   2.441  13.698  0.3510 -0.7313  0.1553
17500TIP3    H173991   2.703   2.501  13.771  0.6490  0.3411 -0.6455
17500TIP3    H273992   2.792   2.388  13.727 -0.0832 -0.9150  0.9812
17501TIP3   OH273993   1.333   6.093   1.496 -0.2815  0.6429 -0.0032
17501TIP3    H173994   1.394   6.044   1.441  1.2169  0.7643  1.4792
17501TIP3    H273995   1.304   6.165   1.440  1.1005  0.6935 -0.7053
17502TIP3   OH273996   3.667   3.848   0.036 -0.4005 -0.4187  0.4064
17502TIP3    H173997   3.620   3.929   0.020  2.1855  0.9902 -0.6765
17502TIP3    H273998   3.688   3.815  -0.051 -0.2787 -1.5586  0.8532
17503TIP3   OH273999   6.538   1.593  10.456  0.1817  0.2545  0.0624
17503TIP3    H174000   6.548   1.635  10.542 -0.9843 -2.2530  1.5411
17503TIP3    H274001   6.604   1.525  10.454 -0.9504 -0.8824 -0.2157
17504TIP3   OH274002   3.233   2.530  13.095 -0.3716  0.0072  0.2295
17504TIP3    H174003   3.238   2.597  13.163  1.7413 -0.8874  1.0331
17504TIP3    H274004   3.165   2.470  13.126 -1.0947  0.8512  0.3272
17505TIP3   OH274005   0.691   0.458   2.979  0.2701  0.9313 -0.0113
17505TIP3    H174006   0.634   0.432   2.907 -1.2216 -2.6264  2.1646
17505TIP3    H274007   0.775   0.417   2.960  0.6838  2.1007 -0.8441
17506TIP3   OH274008   3.005   5.041   3.929 -0.2956 -0.1344 -0.1439
17506TIP3    H174009   3.051   5.068   4.008 -0.3339 -0.2065 -0.0974
17506TIP3    H274010   3.028   5.108   3.864 -0.2648 -0.0756 -0.0720
17507TIP3   OH274011   1.361   4.329   1.499  0.0805 -0.3108  0.0071
17507TIP3    H174012   1.319   4.365   1.577  1.0994 -0.1461  0.4906
17507TIP3    H274013   1.331   4.239   1.494 -1.7945  0.3079 -0.7065
17508TIP3   OH274014   1.925   1.534  11.321 -0.5603 -0.2106 -0.1257
17508TIP3    H174015   1.888   1.619  11.298  0.3899 -0.1404 -1.5802
17508TIP3    H274016   1.913   1.481  11.242  3.4541  0.2215 -1.2872
17509TIP3   OH274017   2.451   1.769   3.095 -0.2087 -0.3155 -0.4930
17509TIP3    H174018   2.358   1.765   3.075 -0.0561 -0.8347 -1.1436
17509TIP3    H274019   2.473   1.862   3.091 -0.3720 -0.3179 -1.9753
17510TIP3   OH274020   2.799   0.366   0.934  0.0256  0.5292  0.5244
17510TIP3    H174021   2.832   0.279   0.911  1.7658  0.5113  2.7524
17510TIP3    H274022   2.718   0.350   0.982 -0.5199  0.2642 -0.4591
17511TIP3   OH274023   5.232   3.390  11.541 -0.0114 -0.1007  0.2625
17511TIP3    H174024   5.303   3.447  11.514 -0.4368  0.3909  0.1685
17511TIP3    H274025   5.274   3.324  11.597  0.1852  1.5356  2.1309
17512TIP3   OH274026   1.369   3.140  14.504 -0.0013 -0.3402  0.1458
17512TIP3    H174027   1.371   3.216  14.446 -0.0659 -0.3239  0.1653
17512TIP3    H274028   1.459   3.134  14.538  0.2765 -0.9005 -0.6694
17513TIP3   OH274029   4.137   5.077  15.657 -0.0198  0.1363  0.5304
17513TIP3    H174030   4.065   5.058  15.598 -0.0174  3.0351 -0.5748
17513TIP3    H274031   4.096   5.117  15.734  0.1937 -1.2154  1.3782
17514TIP3   OH274032   0.403   2.850  16.596 -0.0570 -0.5715 -0.0426
17514TIP3    H174033   0.328   2.893  16.637 -0.4269 -1.6927  0.4891
17514TIP3    H274034   0.375   2.832  16.506 -1.3124 -2.9788  0.7516
17515TIP3   OH274035   3.765   3.153  15.584 -0.5732  0.7930 -0.4177
17515TIP3    H174036   3.725   3.200  15.511 -1.3143 -1.3413 -1.5035
17515TIP3    H274037   3.695   3.144  15.648 -1.9697 -2.5884 -2.1467
17516TIP3   OH274038   6.667   5.980  16.303  0.3445  0.0560 -0.1519
17516TIP3    H174039   6.658   6.025  16.387 -0.1010 -2.2684  1.1302
17516TIP3    H274040   6.607   6.026  16.245  0.2555  1.3746  0.9293
17517TIP3   OH274041   1.351   2.492  12.655 -0.3656 -0.4238 -0.0393
17517TIP3    H174042   1.340   2.549  12.731 -0.7448 -1.4170  0.6828
17517TIP3    H274043   1.425   2.436  12.678  0.9459  0.7182 -1.3570
17518TIP3   OH274044   0.778   0.477  16.258  0.1120 -0.2509  0.2072
17518TIP3    H174045   0.811   0.435  16.338 -0.2607 -1.1298 -0.0875
17518TIP3    H274046   0.838   0.549  16.242 -0.0208  0.1708  1.4888
17519TIP3   OH274047   0.077   2.429   3.327 -0.1700 -0.1349 -0.0911
17519TIP3    H174048   0.059   2.358   3.387 -1.3338 -1.1238 -1.5302
17519TIP3    H274049   0.172   2.426   3.314 -0.0092 -0.3841  1.0907
17520TIP3   OH274050   1.807   2.472  12.350  0.1369  0.3419 -0.0598
17520TIP3    H174051   1.725   2.517  12.369  0.5836  0.5308  1.6259
17520TIP3    H274052   1.872   2.520  12.401  1.3087  0.1986 -1.3674
17521TIP3   OH274053   0.297   2.851   5.555 -0.1872  0.0080  0.1622
17521TIP3    H174054   0.366   2.912   5.530 -0.8218  0.6648 -0.0217
17521TIP3    H274055   0.280   2.800   5.475 -1.7667  1.6709 -0.6341
17522TIP3   OH274056   2.229   4.024   5.604 -0.1624  0.5548  0.1170
17522TIP3    H174057   2.221   4.020   5.700 -0.8409 -0.9763  0.0289
17522TIP3    H274058   2.323   4.029   5.588 -0.0910  1.9856  0.8804
17523TIP3   OH274059   4.683   2.828  11.972 -0.2127  0.3177 -0.1981
17523TIP3    H174060   4.673   2.839  11.878 -1.5955 -1.4661 -0.3144
17523TIP3    H274061   4.627   2.895  12.010  1.1656  1.7396 -0.5852
17524TIP3   OH274062   5.956   5.332   3.041  0.6089  0.4352 -0.4838
17524TIP3    H174063   6.020   5.303   3.105  0.0498  0.5438  0.1369
17524TIP3    H274064   5.989   5.416   3.010  1.7019 -0.3470 -1.5318
17525TIP3   OH274065   0.585   6.443  17.257  0.1767 -0.1193 -0.0934
17525TIP3    H174066   0.640   6.518  17.280 -1.0371 -0.0122  2.9446
17525TIP3    H274067   0.496   6.470  17.281 -0.3868 -2.2683  0.4445
17526TIP3   OH274068   4.066   2.118  11.377 -0.3460  0.1614 -0.4812
17526TIP3    H174069   4.162   2.114  11.384 -0.3339 -2.5819 -1.1777
17526TIP3    H274070   4.050   2.186  11.311  1.1771 -0.1273 -1.1891
17527TIP3   OH274071   1.774   2.026   4.794  0.3160  0.5696 -0.5172
17527TIP3    H174072   1.729   2.068   4.868 -1.3366 -1.5550 -0.1942
17527TIP3    H274073   1.865   2.017   4.822 -0.0908  0.6478  0.8866
17528TIP3   OH274074   2.453   2.519  14.236 -0.1550 -0.1466 -0.0285
17528TIP3    H174075   2.427   2.512  14.144  0.1711  0.1602 -0.1462
17528TIP3    H274076   2.376   2.555  14.280  0.2089  1.1988 -0.4543
17529TIP3   OH274077   5.349   5.549  14.776 -0.0708 -0.0947  0.3807
17529TIP3    H174078   5.381   5.540  14.687  1.2245  0.1907  0.8006
17529TIP3    H274079   5.317   5.639  14.782  0.7963  0.2203  0.4804
17530TIP3   OH274080   2.650   4.897   2.971 -0.8663 -0.4701  0.1495
17530TIP3    H174081   2.616   4.971   2.922 -1.0642 -0.9359 -0.4285
17530TIP3    H274082   2.580   4.873   3.032 -0.5169  0.2784  0.8599
17531TIP3   OH274083   1.096   2.387   3.887  0.0135 -0.2059  0.2905
17531TIP3    H174084   1.055   2.423   3.808 -0.9668  0.4918  1.0947
17531TIP3    H274085   1.056   2.434   3.959  0.6534 -1.0625  1.2439
17532TIP3   OH274086   4.726   6.739  11.452 -0.2207  0.3327  0.3517
17532TIP3    H174087   4.752   6.822  11.493 -0.8723  0.4535  0.5464
17532TIP3    H274088   4.751   6.672  11.515  1.0542  0.2971 -0.1606
17533TIP3   OH274089   4.926   3.744   6.035  0.3455 -0.5653 -0.1213
17533TIP3    H174090   4.848   3.737   6.090  0.4707  0.6628  0.2349
17533TIP3    H274091   4.947   3.654   6.013  0.0922 -1.0760  1.5645
17534TIP3   OH274092   5.166   0.686   5.404 -0.0221  0.6395 -0.0584
17534TIP3    H174093   5.200   0.771   5.376 -1.7604  1.9735  1.6178
17534TIP3    H274094   5.133   0.647   5.323  1.2778  1.2860 -0.9509
17535TIP3   OH274095   4.970   0.224   3.260 -0.0577  0.0256 -0.3480
17535TIP3    H174096   4.988   0.153   3.198  0.4985  0.2061 -0.4074
17535TIP3    H274097   4.999   0.303   3.215 -0.2096  0.2315 -0.0904
17536TIP3   OH274098   0.039   5.123  14.126  0.3336  0.0874  0.2688
17536TIP3    H174099   0.014   5.174  14.048 -1.6149 -0.2723  0.6122
17536TIP3    H274100   0.016   5.033  14.104 -0.3153 -0.0076  1.2652
17537TIP3   OH274101   1.583   0.912  13.446 -0.0475 -0.1351 -0.2116
17537TIP3    H174102   1.602   0.893  13.538 -1.3748 -0.1738  0.0653
17537TIP3    H274103   1.604   0.831  13.400  0.3229 -0.2160  0.0897
17538TIP3   OH274104   0.445   4.491   2.075 -0.2883  0.1747  0.1181
17538TIP3    H174105   0.362   4.467   2.117 -1.1183  1.4389 -0.7204
17538TIP3    H274106   0.441   4.451   1.989  0.8168 -1.2836  0.7038
17539TIP3   OH274107   2.206   0.840  14.722  0.3983 -0.6000 -0.0073
17539TIP3    H174108   2.149   0.791  14.782  0.0913  1.0051  1.0902
17539TIP3    H274109   2.153   0.914  14.694  0.9238 -0.7379 -1.4589
17540TIP3   OH274110   5.013   4.475   4.295  0.2530  0.6231  0.5009
17540TIP3    H174111   5.081   4.527   4.338  2.6333 -0.4840 -1.6676
17540TIP3    H274112   5.018   4.499   4.203 -2.4512  0.5624  0.2625
17541TIP3   OH274113   0.041   3.435   0.144  0.3226 -0.2935  0.5129
17541TIP3    H174114  -0.026   3.443   0.212  0.3147  3.9601  0.2860
17541TIP3    H274115   0.000   3.472   0.066  1.6861 -1.3452 -0.7656
17542TIP3   OH274116   5.615   4.364   0.564 -0.6099  0.4120  0.2030
17542TIP3    H174117   5.530   4.351   0.606 -1.3153  1.5683 -0.8199
17542TIP3    H274118   5.637   4.279   0.527 -0.9126 -0.1093  1.1679
17543TIP3   OH274119   1.007   4.711  13.289  0.0662 -0.0963 -0.2513
17543TIP3    H174120   0.925   4.691  13.335  0.2192  1.1366  0.6091
17543TIP3    H274121   1.007   4.652  13.214 -1.3586 -0.4903  0.0200
17544TIP3   OH274122   2.285   5.349   3.155  0.2196 -0.1462 -0.5117
17544TIP3    H174123   2.337   5.311   3.084  1.0153  0.3956 -0.2298
17544TIP3    H274124   2.304   5.443   3.152  1.1474 -0.2446  1.1072
17545TIP3   OH274125   1.183   6.159   0.021 -0.3509  0.5797 -0.8228
17545TIP3    H174126   1.126   6.232  -0.004 -0.2794  0.5270 -1.1495
17545TIP3    H274127   1.236   6.142  -0.057  0.2348  0.7384 -0.4709
17546TIP3   OH274128   4.668   3.752  17.143  0.0255 -0.2188 -0.2373
17546TIP3    H174129   4.622   3.727  17.223  0.1666  0.7757  0.1599
17546TIP3    H274130   4.756   3.715  17.153  0.0316 -0.1218  0.0465
17547TIP3   OH274131   5.072   1.267   2.106 -0.5199 -0.1310 -0.2883
17547TIP3    H174132   5.001   1.330   2.093 -0.1348  0.5734  0.8434
17547TIP3    H274133   5.151   1.320   2.115  0.0353 -0.8581 -0.6811
17548TIP3   OH274134   6.109   4.675   2.811 -0.2748  0.0510 -0.5416
17548TIP3    H174135   6.066   4.629   2.738  0.2014 -1.5835  0.1510
17548TIP3    H274136   6.058   4.754   2.823 -0.9190 -0.0948 -2.0577
17549TIP3   OH274137   3.013   3.688   3.258  0.0296  0.6240 -0.4702
17549TIP3    H174138   3.091   3.735   3.228 -0.6161  0.0042 -3.4498
17549TIP3    H274139   2.946   3.708   3.192 -1.1622 -1.9993 -0.1886
17550TIP3   OH274140   6.571   1.336   3.034  0.1664 -0.0561 -0.3366
17550TIP3    H174141   6.503   1.273   3.011  0.2846 -0.2191 -0.2394
17550TIP3    H274142   6.578   1.331   3.129 -0.6033  0.9077 -0.2185
17551TIP3   OH274143   0.292   0.090  12.316  0.2354  0.1242  0.4093
17551TIP3    H174144   0.385   0.101  12.294 -0.1267 -1.1220 -2.1152
17551TIP3    H274145   0.276   0.156  12.384  3.0280  0.0918  1.2466
17552TIP3   OH274146   3.005   4.516   4.398 -0.2086 -0.0590  0.5208
17552TIP3    H174147   3.063   4.566   4.456 -2.5434  4.3622 -0.4489
17552TIP3    H274148   2.949   4.467   4.458  1.4954 -0.7748  1.6159
17553TIP3   OH274149   1.028   3.881  15.131 -0.2458 -0.2551 -0.0414
17553TIP3    H174150   1.088   3.950  15.102 -0.6820  0.4940  0.8019
17553TIP3    H274151   0.947   3.927  15.152 -0.8592 -1.1567 -0.3803
17554TIP3   OH274152   3.305   1.704   0.051  0.3062 -0.4118 -1.0343
17554TIP3    H174153   3.270   1.652   0.123  0.7096  1.4879  0.6207
17554TIP3    H274154   3.324   1.640  -0.018 -1.2281 -2.1497  0.0568
17555TIP3   OH274155   1.132   3.035   4.066  0.3786  0.4421  0.1505
17555TIP3    H174156   1.160   2.944   4.066 -0.4605  0.1682  0.2715
17555TIP3    H274157   1.037   3.031   4.052  0.2317  1.2599  0.7791
17556TIP3   OH274158   0.114   0.169   0.839 -0.0320 -0.2789 -0.0737
17556TIP3    H174159   0.084   0.254   0.871 -0.1906 -0.0375 -0.8463
17556TIP3    H274160   0.182   0.142   0.902 -0.3839  0.1452  0.4977
17557TIP3   OH274161   2.626   0.418  15.556 -0.2869  0.0858 -0.2980
17557TIP3    H174162   2.652   0.487  15.495 -1.8857  1.0738  0.0737
17557TIP3    H274163   2.612   0.464  15.639  1.3490 -1.1468  0.7218
17558TIP3   OH274164   4.810   0.956  13.569  0.0601 -0.1542 -0.1311
17558TIP3    H174165   4.765   1.031  13.530  0.2682 -0.6533 -1.3778
17558TIP3    H274166   4.792   0.964  13.663  1.0753  2.1059 -0.0738
17559TIP3   OH274167   6.114   2.790  17.111 -0.1754  0.0805 -0.2573
17559TIP3    H174168   6.107   2.858  17.177 -1.6793  0.0976 -0.4050
17559TIP3    H274169   6.145   2.713  17.159 -2.0875 -0.1611  0.6978
17560TIP3   OH274170   5.570   6.180  13.737  0.3197 -0.3907 -0.0619
17560TIP3    H174171   5.543   6.089  13.744 -0.2232 -0.1288  1.4846
17560TIP3    H274172   5.536   6.222  13.816  1.9053  0.8193  0.0328
17561TIP3   OH274173   2.035   0.518   0.716  0.1099 -0.4191 -0.7154
17561TIP3    H174174   1.983   0.583   0.668 -0.7893 -0.2839  0.4083
17561TIP3    H274175   2.125   0.534   0.688 -0.1660  0.9331 -0.8941
17562TIP3   OH274176   3.810   1.748  14.001 -0.1637 -0.3380 -0.1330
17562TIP3    H174177   3.880   1.755  14.066 -0.3601 -0.3811  0.0825
17562TIP3    H274178   3.854   1.716  13.922  0.2686  0.7129 -0.3375
17563TIP3   OH274179   4.622   0.056  11.097  0.7677 -0.1163  0.1095
17563TIP3    H174180   4.542   0.021  11.057  1.7465 -2.5245  0.0954
17563TIP3    H274181   4.649   0.127  11.038 -0.0710 -0.8350 -1.1940
17564TIP3   OH274182   0.640   1.316   0.152 -0.1871 -0.4430  0.1254
17564TIP3    H174183   0.641   1.411   0.141  0.2609 -0.4245  0.2816
17564TIP3    H274184   0.724   1.297   0.195 -0.6308 -0.8177  0.8467
17565TIP3   OH274185   5.339   3.110   2.432  0.6344 -0.0519  0.1721
17565TIP3    H174186   5.395   3.063   2.493  0.9274  2.0055  1.5732
17565TIP3    H274187   5.399   3.165   2.381  0.1231  0.2964 -0.0689
17566TIP3   OH274188   4.204   1.770  13.621 -0.8434 -0.2436 -0.3415
17566TIP3    H174189   4.265   1.792  13.551 -0.5638  1.1054  0.2924
17566TIP3    H274190   4.154   1.695  13.587  0.7204 -0.9791 -1.1147
17567TIP3   OH274191   4.379   4.952  16.516 -0.3416 -0.0077 -0.0531
17567TIP3    H174192   4.297   4.917  16.481 -0.2413  0.4843 -0.7869
17567TIP3    H274193   4.446   4.921  16.456 -0.1734  0.8886 -0.3358
17568TIP3   OH274194   4.089   4.087  16.581  0.0993  0.1468 -0.0950
17568TIP3    H174195   4.015   4.027  16.573  0.2180 -0.2099  1.2092
17568TIP3    H274196   4.056   4.160  16.632  0.6873 -0.1141  0.6797
17569TIP3   OH274197   6.049   6.730  12.068 -0.3497 -0.0341 -0.2951
17569TIP3    H174198   6.059   6.662  12.001  0.4882 -0.2114  0.0013
17569TIP3    H274199   5.954   6.737  12.080 -0.4941 -0.3529 -1.1380
17570TIP3   OH274200   0.050   3.916   0.857 -0.5636  0.6419 -0.1375
17570TIP3    H174201   0.055   3.992   0.798  2.3031  0.0008 -0.8379
17570TIP3    H274202   0.095   3.846   0.810  1.2525 -0.0967  2.5052
17571TIP3   OH274203   1.839   1.745   1.857  0.1303  0.3018  0.3585
17571TIP3    H174204   1.757   1.703   1.883  0.0970 -0.3077 -0.6588
17571TIP3    H274205   1.856   1.810   1.925 -0.4656 -0.5245  1.3115
17572TIP3   OH274206   6.438   4.616   1.738  0.9983  0.2789 -0.5093
17572TIP3    H174207   6.510   4.614   1.801 -0.0727  0.8238  0.7802
17572TIP3    H274208   6.391   4.533   1.752 -0.0080  0.9739  0.3703
17573TIP3   OH274209   0.423   5.865  11.141  0.1395  0.7105 -0.7927
17573TIP3    H174210   0.502   5.901  11.182  0.1002 -0.5206  0.4119
17573TIP3    H274211   0.358   5.865  11.211 -0.1638 -0.6941 -1.0570
17574TIP3   OH274212   5.688   6.733  16.148 -0.0026 -0.0404  0.2927
17574TIP3    H174213   5.759   6.710  16.208 -0.8419 -1.1323  0.9100
17574TIP3    H274214   5.728   6.728  16.061  0.6238 -0.8859  0.6109
17575TIP3   OH274215   5.349   3.849  13.704  0.4609  0.0740  0.1890
17575TIP3    H174216   5.356   3.857  13.608  0.6340  2.2590  0.3335
17575TIP3    H274217   5.256   3.837  13.720  0.3763  0.1537 -0.2255
17576TIP3   OH274218   2.418   3.360   5.220  0.1160  0.1725 -0.3782
17576TIP3    H174219   2.470   3.383   5.143  0.6398  2.3669  0.5632
17576TIP3    H274220   2.363   3.437   5.235  0.1746 -0.1209  1.5435
17577TIP3   OH274221   0.520   3.704   1.580  0.3448  0.3446 -0.1870
17577TIP3    H174222   0.481   3.666   1.501 -0.5851  1.3263 -0.2253
17577TIP3    H274223   0.591   3.644   1.603  0.3528 -0.1889 -1.5157
17578TIP3   OH274224   3.490   1.777   1.541 -0.1820  0.1666  0.1016
17578TIP3    H174225   3.575   1.807   1.510 -0.5914  0.1945 -1.0422
17578TIP3    H274226   3.509   1.730   1.622  0.6677  2.0688  1.0674
17579TIP3   OH274227   1.403   3.794  12.590  0.4012 -0.4891  0.4613
17579TIP3    H174228   1.422   3.721  12.649 -2.4076 -1.1873  0.6480
17579TIP3    H274229   1.336   3.845  12.636 -0.1745  0.2664 -1.1257
17580TIP3   OH274230   5.387   3.647   4.776 -0.0524 -0.0120 -0.4074
17580TIP3    H174231   5.428   3.711   4.834 -0.0477 -0.2788 -0.1107
17580TIP3    H274232   5.353   3.699   4.703  1.0935  0.1756 -0.8182
17581TIP3   OH274233   5.409   1.732  16.132  0.2910  0.3233  0.8016
17581TIP3    H174234   5.384   1.800  16.069  0.8660  1.2476  1.5362
17581TIP3    H274235   5.358   1.656  16.106 -2.4817  1.7766  1.5245
17582TIP3   OH274236   4.688   0.573   3.699 -0.4650  0.5188  0.6621
17582TIP3    H174237   4.626   0.524   3.645  0.4638  0.1029 -0.0634
17582TIP3    H274238   4.772   0.528   3.686 -0.0483  0.9099  1.8207
17583TIP3   OH274239   6.545   6.203   3.058 -0.1140 -0.4051  0.1973
17583TIP3    H174240   6.566   6.115   3.089 -1.0234 -1.3666 -1.7611
17583TIP3    H274241   6.630   6.248   3.055  0.2469 -0.8488  2.0922
17584TIP3   OH274242   3.817   0.131   5.133 -0.0586  0.0935  0.4730
17584TIP3    H174243   3.825   0.140   5.228 -0.3853 -0.6250  0.5737
17584TIP3    H274244   3.723   0.130   5.117 -0.0048  0.1219  0.1503
17585TIP3   OH274245   6.448   5.260  11.909  0.3674  0.0058  0.4528
17585TIP3    H174246   6.537   5.274  11.876 -0.3824  0.9230 -1.3281
17585TIP3    H274247   6.449   5.296  11.998  1.4245  1.3236 -0.0579
17586TIP3   OH274248   5.058   5.623  11.592 -0.0168 -0.2380 -0.4532
17586TIP3    H174249   4.996   5.695  11.583 -0.0836 -0.0277  1.4643
17586TIP3    H274250   5.137   5.662  11.628  0.7630 -0.7551 -1.5416
17587TIP3   OH274251   0.502   6.084   1.698  0.3474  0.4967 -0.1704
17587TIP3    H174252   0.591   6.068   1.729  1.2838  2.8179 -1.3842
17587TIP3    H274253   0.448   6.083   1.777  1.4558 -0.7183  0.6132
17588TIP3   OH274254   6.548   5.055  13.486 -0.2037 -0.4655  0.1428
17588TIP3    H174255   6.464   5.023  13.453 -0.7686  1.7384 -0.7600
17588TIP3    H274256   6.541   5.048  13.581 -1.7681  0.4079  0.1355
17589TIP3   OH274257   2.134   2.633  14.059 -0.2789 -0.3739  0.8347
17589TIP3    H174258   2.049   2.673  14.042 -0.3789 -1.0163 -0.2541
17589TIP3    H274259   2.191   2.665  13.989 -0.6320 -2.8659 -0.7122
17590TIP3   OH274260   5.230   2.310  15.443 -0.0694 -0.0009 -0.3180
17590TIP3    H174261   5.244   2.321  15.349  0.9244 -2.0447 -0.4662
17590TIP3    H274262   5.225   2.215  15.456  1.0016  0.1730  1.8362
17591TIP3   OH274263   3.130   5.537  15.053 -0.0409 -0.2482  0.3417
17591TIP3    H174264   3.209   5.493  15.020  0.9405  1.8285 -0.2858
17591TIP3    H274265   3.082   5.563  14.974  0.3259  1.3160  0.5919
17592TIP3   OH274266   0.482   1.338   3.288 -0.0572 -0.1864 -0.5351
17592TIP3    H174267   0.577   1.337   3.274  0.0687 -0.1823  0.2593
17592TIP3    H274268   0.467   1.270   3.353 -0.6768 -0.5682 -1.0728
17593TIP3   OH274269   0.813   5.212   0.205 -0.1615  0.5490  0.5837
17593TIP3    H174270   0.788   5.159   0.131  0.3992  0.7572  0.2365
17593TIP3    H274271   0.843   5.295   0.167  1.1462  0.2770  0.9426
17594TIP3   OH274272   0.983   3.488   0.612  0.1216 -0.2352 -0.1873
17594TIP3    H174273   0.989   3.424   0.541 -1.1348  0.2683 -0.7615
17594TIP3    H274274   1.028   3.565   0.578 -0.4909  0.0101 -0.4513
17595TIP3   OH274275   5.033   4.703  12.782 -0.3564  0.4058 -0.3516
17595TIP3    H174276   5.053   4.662  12.866 -1.4411 -0.3786 -0.4635
17595TIP3    H274277   4.947   4.743  12.794 -0.4249  0.4741 -1.0291
17596TIP3   OH274278   5.585   6.645  13.437 -0.0845  0.2867  0.1682
17596TIP3    H174279   5.567   6.551  13.437 -1.1004  0.4691  0.3994
17596TIP3    H274280   5.659   6.656  13.376 -0.0519 -0.6350  0.0334
17597TIP3   OH274281   2.255   3.162  13.291 -0.1538 -0.3046  0.2007
17597TIP3    H174282   2.225   3.252  13.303  0.3216  0.0145 -0.9198
17597TIP3    H274283   2.343   3.170  13.254 -0.2550 -1.2291 -0.2788
17598TIP3   OH274284   0.248   2.467  16.321 -0.1104  0.1396 -0.6207
17598TIP3    H174285   0.303   2.546  16.330  0.6381 -0.4268 -0.0673
17598TIP3    H274286   0.179   2.493  16.260  0.8304  0.8489 -1.4307
17599TIP3   OH274287   2.543   2.134  13.986  0.4953  0.1872  0.4632
17599TIP3    H174288   2.604   2.117  13.914 -0.4459  0.7346 -0.4935
17599TIP3    H274289   2.596   2.126  14.065  2.1355  1.8711 -0.3819
17600TIP3   OH274290   1.807   0.196  12.544 -0.6491  0.3829  0.1748
17600TIP3    H174291   1.784   0.204  12.452 -0.2219 -1.5803 -0.1467
17600TIP3    H274292   1.723   0.189  12.589 -0.9947  3.5627  0.2955
17601TIP3   OH274293   5.617   4.397  13.428 -0.2541 -0.1526  0.1306
17601TIP3    H174294   5.676   4.346  13.373  1.6690  2.9430 -0.9278
17601TIP3    H274295   5.659   4.399  13.514  1.3472  2.0459 -0.6200
17602TIP3   OH274296   4.068   5.679   5.224  0.1070  0.5637  0.0978
17602TIP3    H174297   4.088   5.686   5.131  2.5394 -1.2267  0.3779
17602TIP3    H274298   4.148   5.709   5.268  0.0835 -1.2532  1.5052
17603TIP3   OH274299   4.109   3.041  12.209  0.0800  0.0900 -0.0300
17603TIP3    H174300   4.107   3.095  12.130  1.0045  0.3467  0.1160
17603TIP3    H274301   4.198   3.007  12.213 -0.0710 -0.2402  0.6964
17604TIP3   OH274302   4.971   5.764  10.572  0.4006 -0.2070  0.8726
17604TIP3    H174303   4.882   5.754  10.606  1.0429  0.2438  2.8393
17604TIP3    H274304   5.027   5.764  10.651  2.1088 -0.1362 -0.2827
17605TIP3   OH274305   2.878   4.795  15.295 -0.2290 -0.2278  0.0414
17605TIP3    H174306   2.791   4.813  15.258  0.9430  2.5939 -1.6990
17605TIP3    H274307   2.899   4.873  15.346  1.2560 -0.8847  0.4977
17606TIP3   OH274308   1.329   0.777  12.643  0.1519 -0.1038 -0.6019
17606TIP3    H174309   1.298   0.821  12.563 -1.2506 -1.5653 -0.9175
17606TIP3    H274310   1.334   0.847  12.708  0.7994  1.0298 -1.7925
17607TIP3   OH274311   3.044   1.545  15.537  0.5737  0.1955  0.4607
17607TIP3    H174312   3.035   1.452  15.515 -2.0090  0.4514  0.0719
17607TIP3    H274313   3.070   1.545  15.629 -1.0762 -0.9776  0.9773
17608TIP3   OH274314   4.065   4.669   4.749 -0.1253 -0.1068 -0.0865
17608TIP3    H174315   3.972   4.689   4.754  0.2039  1.8085 -0.9261
17608TIP3    H274316   4.072   4.599   4.684 -0.7267  2.0122 -2.5629
17609TIP3   OH274317   3.562   2.096   2.017  0.1177 -0.7651 -0.2244
17609TIP3    H174318   3.495   2.153   2.053 -1.6410 -1.5648 -2.0201
17609TIP3    H274319   3.642   2.149   2.017 -0.9566  0.9186  0.1319
17610TIP3   OH274320   6.282   3.034   5.516 -0.0408  0.2383 -0.0717
17610TIP3    H174321   6.349   3.016   5.582  1.6544 -0.7141 -1.9293
17610TIP3    H274322   6.318   3.106   5.464 -1.2306  0.8126 -0.1265
17611TIP3   OH274323   5.611   0.926   4.790 -0.5529  0.3088  0.1087
17611TIP3    H174324   5.674   0.917   4.718 -0.7728 -1.1603  0.0707
17611TIP3    H274325   5.623   1.016   4.821  0.0143  0.7474 -1.3200
17612TIP3   OH274326   4.574   0.742  12.523 -0.0492  0.2689  0.7906
17612TIP3    H174327   4.572   0.817  12.582 -0.6158  0.1116  0.9817
17612TIP3    H274328   4.603   0.669  12.577  2.2351  0.6782  0.1951
17613TIP3   OH274329   2.958   0.022  11.553 -0.8063  0.0233  0.3588
17613TIP3    H174330   2.881   0.069  11.523  0.5192  1.4887 -0.8931
17613TIP3    H274331   2.964  -0.055  11.496  0.3834  1.5802 -1.7762
17614TIP3   OH274332   2.177   5.424   1.139 -0.3904 -0.6312 -0.7958
17614TIP3    H174333   2.234   5.358   1.098  1.8486  2.2015 -2.6287
17614TIP3    H274334   2.223   5.448   1.219  1.0085  1.4625 -2.1398
17615TIP3   OH274335   1.418   5.203  14.709 -0.3212  1.0086  0.1088
17615TIP3    H174336   1.452   5.206  14.799  0.6879  1.2922 -0.2690
17615TIP3    H274337   1.489   5.239  14.656  0.7570 -2.7438 -1.3163
17616TIP3   OH274338   1.256   6.265   1.292  0.2954 -0.2944  0.6066
17616TIP3    H174339   1.233   6.356   1.310 -1.8521 -0.5255 -0.5432
17616TIP3    H274340   1.280   6.264   1.199 -1.0194 -1.0764  0.2483
17617TIP3   OH274341   1.482   3.652  12.976 -0.0725 -0.3270 -0.4938
17617TIP3    H174342   1.562   3.610  12.946  0.6131  0.5732  0.0059
17617TIP3    H274343   1.509   3.742  12.996 -1.0390 -0.2325  0.4493
17618TIP3   OH274344   1.701   1.764   0.562  0.6372 -0.4670  0.5811
17618TIP3    H174345   1.713   1.703   0.488 -1.1222 -1.9776  1.4715
17618TIP3    H274346   1.674   1.846   0.521  2.8748 -0.2333 -0.6348
17619TIP3   OH274347   2.423   4.148  14.786 -0.4451  0.1211  0.0299
17619TIP3    H174348   2.510   4.187  14.780 -0.4011  0.0054 -0.1026
17619TIP3    H274349   2.403   4.146  14.879 -0.6146  0.8269  0.0162
17620TIP3   OH274350   5.211   2.920  13.289  0.8094  0.4807  0.3118
17620TIP3    H174351   5.270   2.955  13.356  1.0489  1.1294 -0.2273
17620TIP3    H274352   5.258   2.932  13.207 -0.6244  2.3621 -0.3165
17621TIP3   OH274353   1.151   3.223   1.266 -0.5229  0.6535  1.1201
17621TIP3    H174354   1.078   3.165   1.288 -1.1490  0.8560 -0.3209
17621TIP3    H274355   1.180   3.193   1.179 -0.6291  2.2377  0.5054
17622TIP3   OH274356   6.397   4.365   3.289  0.5390 -0.6038  0.2503
17622TIP3    H174357   6.412   4.364   3.383  1.3914 -0.0630  0.1334
17622TIP3    H274358   6.434   4.282   3.258  2.2553  0.1649  0.1323
17623TIP3   OH274359   5.148   0.019   4.510 -0.4630 -0.3855  0.4452
17623TIP3    H174360   5.059   0.048   4.532 -0.2068  0.1077  0.8615
17623TIP3    H274361   5.202   0.097   4.524 -0.0102 -0.5981 -0.1123
17624TIP3   OH274362   5.051   6.164  14.380  0.3050 -0.1650  0.4110
17624TIP3    H174363   5.132   6.192  14.422  1.3148 -0.6905 -1.1296
17624TIP3    H274364   4.999   6.126  14.451  1.6376 -0.3436  1.3169
17625TIP3   OH274365   0.468   3.430  12.706  0.4678  0.3202  0.1129
17625TIP3    H174366   0.542   3.369  12.701  1.3401  1.1485  1.9116
17625TIP3    H274367   0.394   3.375  12.731  0.6731 -0.3719 -0.7459
17626TIP3   OH274368   1.854   5.141  13.190 -0.3582 -0.2732 -0.4937
17626TIP3    H174369   1.765   5.146  13.227  0.5412 -1.8584  2.1916
17626TIP3    H274370   1.869   5.047  13.178  1.6225 -0.2286  1.0577
17627TIP3   OH274371   2.339   6.062   0.590  0.0310  0.0611  0.0680
17627TIP3    H174372   2.313   6.018   0.671  1.8788 -1.0604  0.1030
17627TIP3    H274373   2.376   5.992   0.536  0.9929  1.2040 -0.7919
17628TIP3   OH274374   0.711   3.241   0.238 -0.0871  0.6161 -0.2331
17628TIP3    H174375   0.792   3.255   0.189  1.0239 -0.1232  1.3338
17628TIP3    H274376   0.677   3.159   0.204  1.4655 -0.6834  1.1665
17629TIP3   OH274377   1.704   1.535  13.846 -0.1687  0.6156  0.5844
17629TIP3    H174378   1.795   1.557  13.864 -0.1358  0.1229  1.0551
17629TIP3    H274379   1.666   1.517  13.932 -1.5639  3.9055  0.7827
17630TIP3   OH274380   0.280   0.809   5.567  0.3160  0.4472 -0.6253
17630TIP3    H174381   0.259   0.862   5.490 -1.6207  0.6454 -0.0060
17630TIP3    H274382   0.195   0.780   5.600  1.0718  0.6669  1.6609
17631TIP3   OH274383   4.910   2.982  15.541  0.1892 -0.8152 -0.2856
17631TIP3    H174384   4.891   2.965  15.449  1.3505  1.5322 -1.0444
17631TIP3    H274385   5.000   3.014  15.541  0.0128 -0.2020  1.5809
17632TIP3   OH274386   5.844   4.722   6.038 -0.0005  0.4357  0.2700
17632TIP3    H174387   5.785   4.735   6.112  0.1006  0.8452  0.2840
17632TIP3    H274388   5.929   4.704   6.077 -0.0841 -0.0092  0.2500
17633TIP3   OH274389   2.700   3.715  12.511 -0.0715 -0.0561 -0.0712
17633TIP3    H174390   2.771   3.652  12.520 -0.0087  0.2233  1.7382
17633TIP3    H274391   2.744   3.799  12.497 -0.1521 -0.4502 -3.9334
17634TIP3   OH274392   4.074   0.380  12.474 -0.4262 -0.4799  0.7847
17634TIP3    H174393   4.028   0.446  12.526 -0.8836 -0.5110  0.4279
17634TIP3    H274394   4.112   0.321  12.539 -1.4304 -0.8121  1.0913
17635TIP3   OH274395   3.535   4.575  13.851 -0.0697 -0.3411  0.2870
17635TIP3    H174396   3.570   4.644  13.795  0.0744  0.0531  0.8514
17635TIP3    H274397   3.477   4.524  13.794 -0.3238  0.3555 -0.0864
17636TIP3   OH274398   5.295   0.552   2.238  0.4936  0.1293 -0.0036
17636TIP3    H174399   5.250   0.471   2.214 -0.8229  0.6710  0.5696
17636TIP3    H274400   5.314   0.594   2.154 -0.1816 -0.0504 -0.2546
17637TIP3   OH274401   6.427   0.088   0.781  0.1449  0.9469 -0.0045
17637TIP3    H174402   6.412   0.105   0.874 -0.2862  1.7012 -0.1958
17637TIP3    H274403   6.522   0.093   0.771  0.3975 -1.3658  0.7759
17638TIP3   OH274404   4.281   2.826   1.230  0.2144  0.2597  0.5315
17638TIP3    H174405   4.332   2.746   1.235 -0.9465 -0.4864  0.6445
17638TIP3    H274406   4.194   2.803   1.263 -0.3744  1.3587 -0.1568
17639TIP3   OH274407   5.177   4.379   6.209  0.1698 -0.3100 -0.4702
17639TIP3    H174408   5.149   4.369   6.118  0.3129  0.0002 -0.5506
17639TIP3    H274409   5.240   4.451   6.207 -1.0034  0.7571  0.1160
17640TIP3   OH274410   3.569   3.267  13.328 -0.1538 -0.1214  0.2254
17640TIP3    H174411   3.647   3.212  13.335 -1.0447 -1.5087 -0.2206
17640TIP3    H274412   3.563   3.289  13.235 -0.5845 -0.4906  0.1602
17641TIP3   OH274413   3.513   0.362   5.444 -0.1805 -0.6898 -0.1689
17641TIP3    H174414   3.598   0.391   5.477 -0.7280 -0.9152  1.5487
17641TIP3    H274415   3.529   0.337   5.353  1.1753  1.0631 -0.4626
17642TIP3   OH274416   6.196   3.153   4.330  0.0045  0.1790 -0.2835
17642TIP3    H174417   6.290   3.156   4.312  0.3497 -1.5438  1.0428
17642TIP3    H274418   6.156   3.197   4.255  1.8017  0.1088 -1.3331
17643TIP3   OH274419   1.297   2.183  13.217 -0.2676  0.1896  0.3588
17643TIP3    H174420   1.257   2.122  13.155 -0.6180  1.1833 -0.4293
17643TIP3    H274421   1.333   2.127  13.287 -2.0864 -0.8078  0.5555
17644TIP3   OH274422   6.698   3.057  16.908  0.4743  0.0468 -0.1143
17644TIP3    H174423   6.670   2.982  16.855 -3.2958  1.3635 -0.3222
17644TIP3    H274424   6.701   3.023  16.997  0.7332 -0.7927 -0.4313
17645TIP3   OH274425   5.048   3.034  11.667  0.1119  0.1121 -0.4964
17645TIP3    H174426   5.138   3.065  11.677  0.1761  0.1463 -1.1748
17645TIP3    H274427   4.995   3.114  11.671 -0.1274 -0.0695  2.3074
17646TIP3   OH274428   3.472   4.841   3.958  0.2136 -0.1761  0.8203
17646TIP3    H174429   3.504   4.931   3.961  0.4451 -0.2259 -0.0171
17646TIP3    H274430   3.379   4.850   3.938  0.2869 -0.1331  0.5000
17647TIP3   OH274431   6.236   2.062  14.112 -0.2284  0.3976  0.1762
17647TIP3    H174432   6.262   1.975  14.143 -0.3572  1.3335  3.3535
17647TIP3    H274433   6.140   2.058  14.110 -0.2045  0.1016 -1.0242
17648TIP3   OH274434   2.437   5.607  13.897 -0.2623 -0.0178  0.2305
17648TIP3    H174435   2.514   5.625  13.842 -0.8227  0.0579 -0.5405
17648TIP3    H274436   2.409   5.694  13.927 -0.1915 -0.0228  0.3101
17649TIP3   OH274437   1.670   0.904   2.537  0.0568 -0.1679 -0.5217
17649TIP3    H174438   1.649   0.960   2.612 -0.6797  1.5832 -1.9628
17649TIP3    H274439   1.761   0.879   2.551  0.8079  2.3608 -0.3617
17650TIP3   OH274440   4.508   2.203  11.543  0.1555 -0.3676  0.3037
17650TIP3    H174441   4.564   2.155  11.604  0.6009 -0.3325 -0.0728
17650TIP3    H274442   4.457   2.134  11.499 -1.1480 -0.3191  1.6398
17651TIP3   OH274443   5.100   4.520   4.030 -0.1618 -0.1439 -0.3025
17651TIP3    H174444   5.033   4.473   3.980 -0.9278  1.0898 -0.4609
17651TIP3    H274445   5.086   4.612   4.008  0.3155  0.3108  1.2146
17652TIP3   OH274446   6.144   0.067   4.563 -0.1210 -0.3044  0.6919
17652TIP3    H174447   6.052   0.071   4.589  0.0625 -0.1946  1.3380
17652TIP3    H274448   6.144   0.012   4.485 -0.8851  0.6222  0.0031
17653TIP3   OH274449   2.159   4.866  10.428 -0.2670  0.5321 -0.3425
17653TIP3    H174450   2.236   4.876  10.373 -0.0183  0.0896 -0.0795
17653TIP3    H274451   2.166   4.777  10.463 -0.6750  0.6373  0.0140
17654TIP3   OH274452   5.192   6.614  11.536  0.2539 -0.3217 -0.3149
17654TIP3    H174453   5.107   6.633  11.496  1.0099  1.1111 -1.3074
17654TIP3    H274454   5.256   6.638  11.469  1.4722 -0.7053  0.6812
17655TIP3   OH274455   2.053   5.776   4.115 -0.0992 -0.2644  0.6373
17655TIP3    H174456   1.963   5.793   4.088  0.4844  0.3920 -1.0028
17655TIP3    H274457   2.071   5.842   4.182 -0.4098  0.4923 -0.0054
17656TIP3   OH274458   3.151   1.358   3.552  0.1980  0.6370 -0.6481
17656TIP3    H174459   3.106   1.402   3.480 -0.0905  1.3353 -0.0555
17656TIP3    H274460   3.226   1.413   3.572 -1.4740  2.3016  1.7053
17657TIP3   OH274461   1.196   5.161  12.175  0.7898  0.0475  0.0735
17657TIP3    H174462   1.258   5.212  12.228  1.2122 -0.3568 -0.0275
17657TIP3    H274463   1.111   5.175  12.218  0.5918  2.1819 -0.9258
17658TIP3   OH274464   3.405   5.475   3.941  0.6524 -0.6331 -0.0327
17658TIP3    H174465   3.392   5.559   3.986 -0.2602 -0.7139 -0.1121
17658TIP3    H274466   3.480   5.435   3.984  0.8734  0.0715  0.2433
17659TIP3   OH274467   1.218   0.826   0.843 -0.4179  0.3097  0.1494
17659TIP3    H174468   1.313   0.818   0.833 -0.3756 -0.8140  1.1619
17659TIP3    H274469   1.203   0.919   0.860  0.4413  0.5769 -0.4800
17660TIP3   OH274470   0.777   3.756   3.591  0.6123  0.8040 -0.4469
17660TIP3    H174471   0.858   3.749   3.540  0.4942  0.6553 -0.6177
17660TIP3    H274472   0.748   3.665   3.602  1.7378  0.6355  1.6811
17661TIP3   OH274473   1.797   5.954  13.064  0.5631 -0.4666  0.4880
17661TIP3    H174474   1.772   5.864  13.085 -1.6416 -0.0594 -0.1149
17661TIP3    H274475   1.723   6.007  13.095  1.6371  1.1091  0.4716
17662TIP3   OH274476   5.489   1.855  16.363  0.7123 -0.6804 -0.4261
17662TIP3    H174477   5.445   1.805  16.294  1.3364  0.3201 -1.5973
17662TIP3    H274478   5.582   1.852  16.338  1.0819 -1.1146  0.9274
17663TIP3   OH274479   5.613   4.403  15.309  0.6800 -0.1912  0.1274
17663TIP3    H174480   5.671   4.425  15.382  0.7556 -0.5839  0.1894
17663TIP3    H274481   5.581   4.315  15.330  0.5957 -0.2511 -0.2464
17664TIP3   OH274482   1.821   5.011  12.890  0.2648 -0.1750  0.4633
17664TIP3    H174483   1.800   4.950  12.960  0.1174 -0.4081  0.2202
17664TIP3    H274484   1.737   5.052  12.868  0.6124  1.3147  1.7167
17665TIP3   OH274485   0.221   1.133  11.500  0.1992  0.2670 -0.5789
17665TIP3    H174486   0.164   1.066  11.463 -1.5632  1.8487 -0.8498
17665TIP3    H274487   0.300   1.130  11.445 -1.0200  0.3280 -2.4124
17666TIP3   OH274488   3.151   2.137  11.526 -0.2978 -0.0356  0.3200
17666TIP3    H174489   3.188   2.225  11.531 -0.1880  0.1307 -2.1702
17666TIP3    H274490   3.224   2.078  11.544  0.7831  0.3382 -2.4150
17667TIP3   OH274491   3.501   4.862  12.729  0.2494 -0.2003  0.0948
17667TIP3    H174492   3.552   4.909  12.663 -0.1801 -1.3551 -1.1006
17667TIP3    H274493   3.413   4.858  12.692  0.0133 -0.8953  0.7149
17668TIP3   OH274494   5.445   0.584   5.388  0.2563 -0.1040  0.6603
17668TIP3    H174495   5.355   0.607   5.411  0.3434  1.9828 -0.7810
17668TIP3    H274496   5.446   0.586   5.292  1.7701 -0.3519  0.6455
17669TIP3   OH274497   0.500   6.306  16.828  0.3803 -0.5416 -0.0253
17669TIP3    H174498   0.453   6.340  16.904 -1.2283 -0.2116 -1.1096
17669TIP3    H274499   0.431   6.283  16.765  1.6633 -0.0710 -1.6914
17670TIP3   OH274500   0.710   1.701  14.802 -0.1384 -0.2774  0.2159
17670TIP3    H174501   0.786   1.671  14.852 -0.5836  0.2091  1.2017
17670TIP3    H274502   0.635   1.666  14.850 -0.5477 -0.7558 -0.7507
17671TIP3   OH274503   0.527   2.172  15.759 -0.1570  0.0600 -0.1424
17671TIP3    H174504   0.545   2.109  15.829 -0.3170  0.6804  0.4651
17671TIP3    H274505   0.613   2.203  15.732 -0.0422 -0.8385 -0.8446
17672TIP3   OH274506   4.503   4.215  13.218  0.7013  0.4535  0.0768
17672TIP3    H174507   4.526   4.213  13.311  2.9093  1.6239 -0.3952
17672TIP3    H274508   4.552   4.142  13.179  0.1414  0.2488 -0.2667
17673TIP3   OH274509   2.575   2.547   5.070  0.1219  0.2569  0.1630
17673TIP3    H174510   2.530   2.489   5.009 -0.8915 -0.7172  1.7734
17673TIP3    H274511   2.589   2.493   5.148  0.0741  1.8855  1.3358
17674TIP3   OH274512   6.491   2.038  13.630 -0.3813  0.7527 -0.1787
17674TIP3    H174513   6.502   2.089  13.550 -1.2240  0.6220 -0.3873
17674TIP3    H274514   6.554   2.076  13.692  0.4237  0.7159 -0.9604
17675TIP3   OH274515   4.247   1.083  12.681 -0.3433 -0.2554 -0.3548
17675TIP3    H174516   4.230   1.164  12.730 -1.1829 -0.0390 -0.9908
17675TIP3    H274517   4.264   1.111  12.592  2.3367 -0.5556 -0.0224
17676TIP3   OH274518   6.022   0.781   3.590  0.5650 -1.0748  0.0504
17676TIP3    H174519   5.971   0.724   3.647  0.0073 -0.5054  0.1253
17676TIP3    H274520   6.084   0.824   3.648 -0.8252  0.4449  0.4552
17677TIP3   OH274521   6.472   1.072   5.623 -0.8075  0.0640  0.2092
17677TIP3    H174522   6.384   1.095   5.594 -0.7082 -0.3489 -0.4328
17677TIP3    H274523   6.460   1.040   5.713 -1.5658 -1.6150 -0.4522
17678TIP3   OH274524   3.002   0.950  13.119 -0.5733 -0.1808  0.0713
17678TIP3    H174525   3.098   0.955  13.116 -0.5860  2.0072  1.4847
17678TIP3    H274526   2.982   0.929  13.210 -1.4376  0.3660  0.0150
17679TIP3   OH274527   3.850   6.591  14.097  0.0251 -0.0262  0.7329
17679TIP3    H174528   3.787   6.638  14.042  0.0553  1.1842  1.6946
17679TIP3    H274529   3.928   6.647  14.098  1.0388 -1.3522 -0.1850
17680TIP3   OH274530   3.091   5.165  14.530 -0.1794 -0.1348 -0.3858
17680TIP3    H174531   3.130   5.077  14.527  0.7739  0.2940 -2.0454
17680TIP3    H274532   3.151   5.215  14.584  0.1467 -0.1403 -0.7327
17681TIP3   OH274533   0.647   1.960  14.766  0.1039 -0.0297 -0.4168
17681TIP3    H174534   0.625   1.946  14.674 -1.3050 -0.8574  0.0154
17681TIP3    H274535   0.690   1.879  14.793 -0.0310 -0.0279 -0.1915
17682TIP3   OH274536   2.069   5.717  10.875  0.1296 -0.5941 -0.1505
17682TIP3    H174537   2.093   5.649  10.938  1.4744 -0.3982 -0.4263
17682TIP3    H274538   2.099   5.799  10.915 -1.5454 -0.1302  0.2119
17683TIP3   OH274539   6.686   2.143   3.314  0.1035 -0.5145 -0.1850
17683TIP3    H174540   6.703   2.058   3.353  0.5746 -0.6271 -0.6282
17683TIP3    H274541   6.725   2.206   3.375  3.1812 -0.8079 -1.6789
17684TIP3   OH274542   2.359   1.132   0.838 -0.3125 -0.2521 -0.2881
17684TIP3    H174543   2.316   1.193   0.898 -1.8685 -0.0249 -1.5495
17684TIP3    H274544   2.293   1.065   0.820  0.1909 -0.4556 -1.5210
17685TIP3   OH274545   5.807   3.765  13.358  0.0525 -0.1608  0.9459
17685TIP3    H174546   5.833   3.739  13.447  2.2965  0.6636  0.5982
17685TIP3    H274547   5.881   3.815  13.325 -1.3076  0.7544 -0.9111
17686TIP3   OH274548   2.556   0.675  11.981 -0.1804 -0.3514 -0.0217
17686TIP3    H174549   2.549   0.768  11.958  0.7598 -0.8594 -2.7148
17686TIP3    H274550   2.594   0.675  12.069  2.1696  1.8476 -0.9118
17687TIP3   OH274551   6.144   5.817  13.798  0.2847 -0.6556  0.4047
17687TIP3    H174552   6.079   5.887  13.800  0.4461 -0.5171  1.2333
17687TIP3    H274553   6.208   5.846  13.732 -1.0433 -1.3232 -1.2457
17688TIP3   OH274554   1.725   2.209   4.575  0.1006  0.7083 -0.2254
17688TIP3    H174555   1.727   2.134   4.634  1.2046  0.1379 -0.9621
17688TIP3    H274556   1.685   2.279   4.627  0.3666  0.0204  0.9472
17689TIP3   OH274557   3.342   6.363   0.633 -0.5334  0.2399 -0.0598
17689TIP3    H174558   3.335   6.458   0.635 -0.2262  0.2583  0.1837
17689TIP3    H274559   3.294   6.337   0.554  1.5724  0.8053 -1.6111
17690TIP3   OH274560   1.121   5.405   1.374  0.6519  0.4666 -0.4665
17690TIP3    H174561   1.075   5.400   1.291 -1.7573 -0.0094  0.8230
17690TIP3    H274562   1.142   5.498   1.384 -3.3015  1.4485  0.4737
17691TIP3   OH274563   5.392   4.083  11.913 -0.0705  0.0913  0.0505
17691TIP3    H174564   5.480   4.120  11.917  0.3843 -0.9752  0.3187
17691TIP3    H274565   5.402   4.003  11.862 -0.6724 -0.6010  0.9803
17692TIP3   OH274566   4.698   5.399  16.197 -1.0801 -0.4914 -0.0933
17692TIP3    H174567   4.778   5.428  16.153 -1.2837  0.7062  0.3030
17692TIP3    H274568   4.729   5.349  16.272 -0.6633  0.8294  0.6459
17693TIP3   OH274569   3.999   1.490   1.773  0.9670  0.0360 -0.0626
17693TIP3    H174570   4.037   1.576   1.755 -1.3231  1.1720  0.1051
17693TIP3    H274571   4.007   1.442   1.691  0.0096  1.3579 -0.9611
17694TIP3   OH274572   6.452   0.878  11.597  0.1502  0.1512  0.4657
17694TIP3    H174573   6.509   0.803  11.610 -1.2407 -1.3992 -1.5653
17694TIP3    H274574   6.488   0.923  11.520 -0.8229 -0.3628 -0.3195
17695TIP3   OH274575   5.046   0.515   5.225  0.0177 -0.1119 -0.4535
17695TIP3    H174576   5.006   0.477   5.303 -0.4279  0.2523 -0.4944
17695TIP3    H274577   5.074   0.440   5.173 -0.6617 -0.3875 -0.4363
17696TIP3   OH274578   3.242   2.549   2.015 -0.0602 -0.2289  0.1589
17696TIP3    H174579   3.227   2.523   2.106 -1.1214 -1.8361 -0.4277
17696TIP3    H274580   3.256   2.643   2.019 -2.3617  0.1291  1.7572
17697TIP3   OH274581   5.250   6.737   4.201  0.4355  0.3114  0.0004
17697TIP3    H174582   5.262   6.826   4.233 -0.2379  0.0101  1.1588
17697TIP3    H274583   5.204   6.692   4.272  1.0006 -1.0299 -0.4462
17698TIP3   OH274584   2.543   3.452   0.420  0.6542  0.3037 -0.0876
17698TIP3    H174585   2.618   3.413   0.376 -0.0622 -1.7325  0.4229
17698TIP3    H274586   2.475   3.385   0.418 -0.7620  1.6355  0.5576
17699TIP3   OH274587   1.273   4.832  12.420 -0.2757  0.2166 -0.0095
17699TIP3    H174588   1.217   4.907  12.442 -1.4822 -0.7151  0.2026
17699TIP3    H274589   1.343   4.836  12.484  2.2666  3.6810 -2.5840
17700TIP3   OH274590   5.110   1.717   3.662 -0.1294  0.5041 -0.1252
17700TIP3    H174591   5.114   1.737   3.756  0.1840 -1.3136  0.2925
17700TIP3    H274592   5.154   1.632   3.654 -0.3239  0.5371 -1.8982
17701TIP3   OH274593   5.805   5.963   0.600 -0.3453  0.2450 -0.4218
17701TIP3    H174594   5.765   5.989   0.683  0.8729 -0.7533  0.5154
17701TIP3    H274595   5.731   5.949   0.541 -1.3408 -0.7745  1.0120
17702TIP3   OH274596   2.441   1.562   6.060  0.3572  0.6574  0.2345
17702TIP3    H174597   2.482   1.581   6.144  0.0325  1.1309  0.2928
17702TIP3    H274598   2.389   1.640   6.041  0.5070  0.5963 -0.4532
17703TIP3   OH274599   0.097   1.703  11.274  0.6063 -0.2093 -0.2167
17703TIP3    H174600   0.147   1.758  11.334 -1.2486  0.4322  0.8182
17703TIP3    H274601   0.066   1.764  11.207 -0.3705 -0.2231  0.2134
17704TIP3   OH274602   1.028   5.254  14.421 -0.2047  0.7248  0.4489
17704TIP3    H174603   1.037   5.211  14.336  1.1510  1.9524 -0.0800
17704TIP3    H274604   0.936   5.244  14.445 -0.2596 -1.0549 -0.3806
17705TIP3   OH274605   2.584   2.777  12.703 -0.5492  0.0118 -0.2537
17705TIP3    H174606   2.504   2.753  12.655 -0.8749 -1.3457  0.9140
17705TIP3    H274607   2.590   2.713  12.773  1.0973  0.6509  0.2289
17706TIP3   OH274608   6.583   2.153  12.215 -0.2604  0.3054 -0.0897
17706TIP3    H174609   6.596   2.185  12.126  2.5593 -1.1840 -0.3058
17706TIP3    H274610   6.534   2.072  12.204 -1.5856  1.0587 -0.0554
17707TIP3   OH274611   2.691   4.492  15.346  0.1787  0.4147  0.1041
17707TIP3    H174612   2.740   4.574  15.355 -1.3834  1.3056  0.8298
17707TIP3    H274613   2.633   4.506  15.271  1.2944 -0.8168 -1.0624
17708TIP3   OH274614   2.845   3.054  17.128  0.0993 -0.4328  0.5994
17708TIP3    H174615   2.780   3.024  17.063  0.9154 -1.6610  0.2998
17708TIP3    H274616   2.837   3.149  17.128 -1.9331 -0.5627  0.8237
17709TIP3   OH274617   3.885   3.648  12.467 -0.4326 -0.0968 -0.0878
17709TIP3    H174618   3.968   3.633  12.422 -0.9325 -1.0730 -0.7296
17709TIP3    H274619   3.858   3.561  12.496 -0.9345  0.2990  0.6517
17710TIP3   OH274620   1.856   6.290  11.503  0.2153 -0.4346  0.2024
17710TIP3    H174621   1.819   6.377  11.485 -2.4685 -1.1620  1.5736
17710TIP3    H274622   1.888   6.260  11.418 -1.4524  0.7607 -0.9262
17711TIP3   OH274623   6.723   0.339   4.405  0.1526 -0.1442  0.6095
17711TIP3    H174624   6.644   0.285   4.400 -0.0448  0.2295 -0.7020
17711TIP3    H274625   6.720   0.377   4.493 -1.4500  0.3380  0.3879
17712TIP3   OH274626   3.050   3.447  10.829 -1.3838 -0.7763 -0.0327
17712TIP3    H174627   3.143   3.431  10.817 -0.9166  1.3278  0.3414
17712TIP3    H274628   3.025   3.501  10.754 -1.5479  1.2390  1.4061
17713TIP3   OH274629   6.619   0.698  14.859 -0.6991  1.2479 -0.1881
17713TIP3    H174630   6.555   0.630  14.838 -0.2973  1.2217 -1.3667
17713TIP3    H274631   6.609   0.763  14.789  2.5394 -0.1312 -2.1729
17714TIP3   OH274632   5.937   0.622   3.251 -0.0826 -0.2047  0.1992
17714TIP3    H174633   5.874   0.681   3.294 -0.6517  0.1536 -1.0883
17714TIP3    H274634   5.965   0.563   3.321 -1.0241  0.3260  1.0562
17715TIP3   OH274635   3.600   5.011  12.526  0.5769 -0.3291 -0.1217
17715TIP3    H174636   3.687   5.024  12.489  0.6464 -0.8165 -0.1308
17715TIP3    H274637   3.543   5.003  12.450  0.9282 -2.8421 -0.2076
17716TIP3   OH274638   6.772   0.010   4.069  0.6373 -0.1698 -0.5842
17716TIP3    H174639   6.855   0.058   4.068  0.3515  0.4426  1.1029
17716TIP3    H274640   6.706   0.078   4.085 -0.0414 -0.8166 -0.5999
17717TIP3   OH274641   4.463   1.064   1.541 -0.8001 -0.2394  0.4170
17717TIP3    H174642   4.398   0.993   1.536  0.3949 -1.2988 -3.5838
17717TIP3    H274643   4.494   1.075   1.452  2.2972  2.4147  1.6032
17718TIP3   OH274644   6.725   0.298   2.983 -0.2133  0.2388  0.2026
17718TIP3    H174645   6.709   0.312   2.889  0.3005  1.1315  0.2355
17718TIP3    H274646   6.657   0.236   3.010 -1.2285  1.0298 -0.4658
17719TIP3   OH274647   4.208   5.456  11.539 -0.0721 -0.2684 -0.0719
17719TIP3    H174648   4.165   5.422  11.461 -0.9749  0.7946 -0.0524
17719TIP3    H274649   4.210   5.551  11.527  1.6958 -0.2288  0.2351
17720TIP3   OH274650   2.065   0.421  15.106 -0.4959  0.1113  0.1280
17720TIP3    H174651   2.060   0.415  15.011 -0.4930 -1.0884  0.1860
17720TIP3    H274652   1.976   0.401  15.136 -0.1080 -1.2644  0.4256
17721TIP3   OH274653   5.163   6.220   0.261  0.4561 -0.0858 -0.0430
17721TIP3    H174654   5.150   6.186   0.173  1.4924  1.5099 -0.8726
17721TIP3    H274655   5.258   6.233   0.268  0.3544  0.1313  1.1754
17722TIP3   OH274656   4.473   4.375  11.783  0.4567  0.2022  0.6342
17722TIP3    H174657   4.513   4.453  11.743 -0.9773 -0.0799 -1.5094
17722TIP3    H274658   4.530   4.303  11.756 -1.1333 -0.1487 -2.0860
17723TIP3   OH274659   5.936   6.020   3.263  0.0256  0.5822  0.9574
17723TIP3    H174660   5.948   6.025   3.168  0.8590 -1.0408  0.9370
17723TIP3    H274661   5.918   6.110   3.290  1.5057  1.3766 -0.5278
17724TIP3   OH274662   0.220   0.854   4.621 -0.0173 -0.4473 -0.3463
17724TIP3    H174663   0.192   0.763   4.631  0.9913 -0.8641 -1.1957
17724TIP3    H274664   0.226   0.868   4.527 -0.4611  0.6070 -0.2390
17725TIP3   OH274665   1.570   1.232  13.148  0.1343 -0.3766  0.5302
17725TIP3    H174666   1.516   1.154  13.160 -1.3826  0.5687  0.1009
17725TIP3    H274667   1.659   1.202  13.168 -0.5116 -1.9943  1.2235
17726TIP3   OH274668   1.322   4.397  13.141  0.1548 -0.3077 -0.6403
17726TIP3    H174669   1.407   4.361  13.165 -0.2425  0.2582  1.8525
17726TIP3    H274670   1.339   4.446  13.060  2.8204  1.8923  1.0932
17727TIP3   OH274671   2.508   2.834  15.380  0.0390 -0.3421 -0.3388
17727TIP3    H174672   2.517   2.749  15.423 -1.8950 -1.0817 -1.2967
17727TIP3    H274673   2.598   2.859  15.359  0.9248 -0.6617  2.6562
17728TIP3   OH274674   4.560   6.584   2.325  0.0604 -0.5662  0.4740
17728TIP3    H174675   4.606   6.516   2.275  0.6679  0.6766 -0.7005
17728TIP3    H274676   4.479   6.598   2.276 -0.0816 -0.4699  0.7375
17729TIP3   OH274677   2.953   2.867   3.633 -0.3593  0.6800 -0.1079
17729TIP3    H174678   2.954   2.864   3.537 -1.3518 -2.5788 -0.1470
17729TIP3    H274679   2.860   2.861   3.656 -0.3351  3.5386  1.1712
17730TIP3   OH274680   3.180   2.409  11.033 -0.2735  0.2930  0.4205
17730TIP3    H174681   3.170   2.481  11.096  0.2808  0.2351  0.5755
17730TIP3    H274682   3.219   2.338  11.084 -2.0637 -0.6205  0.6264
17731TIP3   OH274683   1.358   4.811   1.653  0.2387 -0.5051 -0.5561
17731TIP3    H174684   1.278   4.780   1.612  0.3461 -1.2319 -0.2324
17731TIP3    H274685   1.427   4.794   1.589  0.2349 -0.5585 -0.5464
17732TIP3   OH274686   3.471   0.295  16.875  0.3047 -0.1581  0.5005
17732TIP3    H174687   3.525   0.311  16.797 -0.5419  1.2217  0.1662
17732TIP3    H274688   3.528   0.319  16.948  0.1344  1.3898  0.1487
17733TIP3   OH274689   3.528   4.389   2.344  0.0094 -0.2243  0.0078
17733TIP3    H174690   3.571   4.356   2.422  1.0911 -0.5822 -0.7183
17733TIP3    H274691   3.510   4.481   2.364 -0.0375 -0.3983  0.7976
17734TIP3   OH274692   2.089   0.780   2.364 -0.4558 -0.1213 -0.0329
17734TIP3    H174693   2.040   0.703   2.393  0.2679 -0.2026  1.0730
17734TIP3    H274694   2.095   0.835   2.442  3.5936 -1.4204  0.8579
17735TIP3   OH274695   1.820   3.393   6.165  0.1543 -0.3708  0.7556
17735TIP3    H174696   1.847   3.426   6.251 -0.5985 -1.5385  1.4772
17735TIP3    H274697   1.847   3.301   6.166 -0.2832 -0.5135 -0.0681
17736TIP3   OH274698   3.052   3.892  14.120  0.2834  0.2409  0.5379
17736TIP3    H174699   3.075   3.883  14.027 -1.3076  1.4357 -0.0157
17736TIP3    H274700   3.056   3.802  14.154  3.2803  0.0713 -0.0289
17737TIP3   OH274701   1.413   6.086   0.803 -0.1673 -0.2481 -0.4690
17737TIP3    H174702   1.431   6.087   0.710 -0.2941  0.3782 -0.4879
17737TIP3    H274703   1.396   5.993   0.823 -1.7142 -0.1962 -1.3807
17738TIP3   OH274704   6.077   2.734   1.403 -0.0030 -0.6093 -0.2226
17738TIP3    H174705   6.080   2.772   1.315  1.8702 -1.1400 -0.4313
17738TIP3    H274706   6.033   2.650   1.392 -1.1598 -0.0099 -0.3489
17739TIP3   OH274707   5.646   5.769  14.438  0.2635 -0.2494 -0.9607
17739TIP3    H174708   5.677   5.719  14.514 -1.6462  2.1277  1.6194
17739TIP3    H274709   5.722   5.821  14.411  0.5730  0.0868  0.4474
17740TIP3   OH274710   3.251   0.050  16.306  0.3206  0.2772 -0.4546
17740TIP3    H174711   3.247  -0.024  16.366  1.1720  0.2656 -0.4032
17740TIP3    H274712   3.184   0.031  16.240  0.2267 -0.3137 -0.1951
17741TIP3   OH274713   0.715   0.798   0.627  0.3491  0.1633 -0.2868
17741TIP3    H174714   0.651   0.820   0.559 -0.7453 -1.0738  0.2947
17741TIP3    H274715   0.794   0.776   0.579 -0.5440 -1.1524 -1.2145
17742TIP3   OH274716   3.361   0.212   1.706 -0.4472 -0.6174  0.1235
17742TIP3    H174717   3.290   0.151   1.688 -1.7852  0.4484  1.5467
17742TIP3    H274718   3.390   0.190   1.794 -0.7564  0.5686  0.5396
17743TIP3   OH274719   3.936   2.079  12.699 -0.1730 -0.0467 -0.8424
17743TIP3    H174720   3.923   2.075  12.604  0.0508 -0.2241 -0.8676
17743TIP3    H274721   3.999   2.150  12.712 -0.4920  0.2253 -0.7960
17744TIP3   OH274722   4.356   0.026  16.742  0.0215  0.0653 -0.7013
17744TIP3    H174723   4.380  -0.049  16.796 -1.0089  0.6082  0.5637
17744TIP3    H274724   4.273   0.056  16.778 -2.4332 -1.4361 -4.5266
17745TIP3   OH274725   5.738   5.659   2.768 -0.1643  0.0825 -0.2391
17745TIP3    H174726   5.686   5.616   2.836 -1.0665  0.8875 -0.3939
17745TIP3    H274727   5.803   5.594   2.742 -1.1665 -0.9968 -0.1105
17746TIP3   OH274728   3.688   6.496   3.696  0.2956  0.1158  0.4132
17746TIP3    H174729   3.769   6.447   3.707 -0.2304 -0.7622  0.5630
17746TIP3    H274730   3.695   6.570   3.756  0.7913 -0.2077  0.7580
17747TIP3   OH274731   1.318   4.832   2.222  0.4884 -0.1378  0.5952
17747TIP3    H174732   1.241   4.882   2.195  0.0868  0.7321  3.0894
17747TIP3    H274733   1.393   4.888   2.199  0.2128  0.1714  0.4461
17748TIP3   OH274734   3.701   3.667   4.420 -0.3787 -0.0994 -0.1143
17748TIP3    H174735   3.645   3.649   4.496 -1.5000  0.1417 -0.8449
17748TIP3    H274736   3.775   3.607   4.429 -1.6440 -1.7145 -0.0289
17749TIP3   OH274737   1.729   0.761   2.235 -0.0827  0.6387  0.2156
17749TIP3    H174738   1.711   0.766   2.141  1.6245 -1.7381 -0.3485
17749TIP3    H274739   1.817   0.797   2.245  0.8997 -1.6418  0.3735
17750TIP3   OH274740   0.750   5.748  10.379  0.6637 -0.2067  0.1054
17750TIP3    H174741   0.761   5.842  10.372  0.1394 -0.2138 -0.9954
17750TIP3    H274742   0.702   5.736  10.462  2.2446  0.3318  1.1476
17751TIP3   OH274743   6.679   3.683  12.181  0.2306 -0.1055 -0.4359
17751TIP3    H174744   6.695   3.694  12.274  2.9204  0.6202 -0.9065
17751TIP3    H274745   6.633   3.762  12.155 -0.2406 -0.1616  0.2043
17752TIP3   OH274746   0.388   4.344   3.518  0.1707  0.2699 -0.0540
17752TIP3    H174747   0.431   4.289   3.584 -0.5029 -0.7399 -0.4312
17752TIP3    H274748   0.427   4.317   3.435 -0.0310  0.4919 -0.2217
17753TIP3   OH274749   0.354   6.170  13.574 -0.2707  0.3101 -0.3778
17753TIP3    H174750   0.355   6.256  13.534 -0.0110 -0.3477 -1.8372
17753TIP3    H274751   0.441   6.160  13.612 -0.3812  0.7765  0.0039
17754TIP3   OH274752   6.395   3.521   5.029 -0.5938  0.1822  0.3560
17754TIP3    H174753   6.306   3.555   5.033 -0.3800  1.0094 -1.1803
17754TIP3    H274754   6.450   3.598   5.015  0.1845 -0.4773 -0.3491
17755TIP3   OH274755   2.504   2.201  14.420 -0.5109 -0.1215 -0.4882
17755TIP3    H174756   2.538   2.153  14.344 -1.6522 -2.1755  0.2096
17755TIP3    H274757   2.537   2.290  14.409  3.3168 -1.4022 -0.9154
17756TIP3   OH274758   0.000   2.323   6.042 -0.0394 -0.4503 -0.1927
17756TIP3    H174759   0.069   2.383   6.014 -0.8124  0.3474 -0.4165
17756TIP3    H274760  -0.010   2.340   6.136  1.4350 -1.9891  0.2917
17757TIP3   OH274761   4.062   1.850   3.867 -0.1019 -0.3227  0.3459
17757TIP3    H174762   3.990   1.799   3.902 -2.3573  1.4392 -1.3329
17757TIP3    H274763   4.133   1.840   3.930 -1.0785 -3.7642  1.0709
17758TIP3   OH274764   6.522   4.313   5.763  0.2078 -0.0021 -0.1163
17758TIP3    H174765   6.508   4.356   5.848  1.0660  1.0777 -0.5098
17758TIP3    H274766   6.544   4.222   5.786 -1.7707 -0.3226  0.7156
17759TIP3   OH274767   6.429   1.551  12.986 -0.3225 -0.1346  0.0126
17759TIP3    H174768   6.375   1.522  13.061 -0.4788  1.9502  0.7625
17759TIP3    H274769   6.470   1.470  12.955 -2.7423 -1.6134  0.2973
17760TIP3   OH274770   3.360   3.697   6.285 -0.4947  0.1620  0.1591
17760TIP3    H174771   3.411   3.626   6.246 -0.7512 -0.7010  1.3605
17760TIP3    H274772   3.381   3.774   6.231  1.1590 -0.4292 -0.0854
17761TIP3   OH274773   1.492   0.452  15.282  0.0578 -0.0525  0.0762
17761TIP3    H174774   1.588   0.459  15.286 -0.0167  0.4118  1.6346
17761TIP3    H274775   1.475   0.358  15.278  0.5590 -0.2594  1.8642
17762TIP3   OH274776   0.848   4.267  13.517  0.5158 -0.0286  0.2512
17762TIP3    H174777   0.753   4.275  13.505  0.4474 -0.9568  0.0915
17762TIP3    H274778   0.864   4.172  13.517  1.4622  0.1233  0.1256
17763TIP3   OH274779   2.543   6.757   3.946 -0.1475  0.2142  0.6051
17763TIP3    H174780   2.540   6.688   4.012 -0.7199 -0.1675  0.1922
17763TIP3    H274781   2.636   6.765   3.924 -0.1516 -0.9888  0.0831
17764TIP3   OH274782   1.105   1.113  12.552  0.1459  0.2866 -0.2646
17764TIP3    H174783   1.163   1.125  12.478 -0.5172  1.2576 -0.6556
17764TIP3    H274784   1.051   1.038  12.529 -1.9335  2.1782 -2.0915
17765TIP3   OH274785   1.124   4.464  12.808 -0.1372 -0.4795  0.0571
17765TIP3    H174786   1.105   4.373  12.833 -1.1153  0.0103  1.1555
17765TIP3    H274787   1.144   4.459  12.714 -0.1757 -1.8253  0.1014
17766TIP3   OH274788   2.431   0.556   5.480 -0.5867 -0.4928 -0.0990
17766TIP3    H174789   2.411   0.636   5.432  1.5270 -0.1288 -0.4702
17766TIP3    H274790   2.433   0.488   5.413  2.3420  0.0118 -0.6493
17767TIP3   OH274791   0.701   2.211  12.046 -0.5566  0.0729 -0.6137
17767TIP3    H174792   0.738   2.173  12.126 -0.3000 -2.2299 -1.7309
17767TIP3    H274793   0.732   2.301  12.046 -0.1568  0.0049  1.6272
17768TIP3   OH274794   3.213   4.039  14.309  0.0956  0.8543 -0.3006
17768TIP3    H174795   3.150   4.026  14.238 -0.9111  1.9419  0.3471
17768TIP3    H274796   3.236   3.950  14.338 -1.7746  0.4196 -0.0330
17769TIP3   OH274797   2.475   3.410  15.723  0.5038 -0.5732  0.2662
17769TIP3    H174798   2.521   3.378  15.801 -0.7937 -2.0437  0.4752
17769TIP3    H274799   2.383   3.410  15.748  0.1984  0.3767 -0.7972
17770TIP3   OH274800   0.612   1.443   1.782  0.0152 -0.0845  0.1517
17770TIP3    H174801   0.681   1.435   1.715  0.5097 -2.8123  0.8598
17770TIP3    H274802   0.531   1.447   1.732  0.2892 -3.1774 -0.7240
17771TIP3   OH274803   1.720   1.372  13.444 -0.0300 -0.5243 -0.0655
17771TIP3    H174804   1.776   1.417  13.381  0.3118  1.2751  1.4161
17771TIP3    H274805   1.744   1.280  13.437  0.5253 -0.2648 -1.9859
17772TIP3   OH274806   4.106   4.279   1.331  0.0572 -0.2934  0.7953
17772TIP3    H174807   4.115   4.196   1.283 -1.3016 -0.5229  0.9096
17772TIP3    H274808   4.084   4.252   1.421  2.2015  0.1386  1.5340
17773TIP3   OH274809   2.911   0.378  16.182 -0.1095 -0.2858  0.3757
17773TIP3    H174810   2.893   0.285  16.197  1.4895 -0.9345 -1.3060
17773TIP3    H274811   2.938   0.412  16.267  1.0639 -1.8254  0.6659
17774TIP3   OH274812   4.936   0.060  12.933 -0.6384 -0.1866 -0.2113
17774TIP3    H174813   4.910  -0.022  12.893 -1.4738 -0.9564  1.7744
17774TIP3    H274814   5.029   0.049  12.952 -0.5486 -0.3286 -0.7218
17775TIP3   OH274815   6.745   1.095  16.823  1.4036  0.1379  0.0130
17775TIP3    H174816   6.837   1.093  16.849  1.6981  1.4697 -0.7907
17775TIP3    H274817   6.698   1.122  16.902  1.7273 -0.3051  0.3611
17776TIP3   OH274818   3.002   1.272  12.288  0.3985 -0.1521  0.5832
17776TIP3    H174819   2.941   1.314  12.228  0.5456 -2.1791 -1.1081
17776TIP3    H274820   3.047   1.206  12.235  4.5106  1.5495  1.6075
17777TIP3   OH274821   4.512   5.894  11.935  0.3164  0.0147 -0.0294
17777TIP3    H174822   4.444   5.936  11.882  0.6816 -0.3864 -0.8228
17777TIP3    H274823   4.497   5.928  12.024 -0.3853  0.5847 -0.3552
17778TIP3   OH274824   0.183   1.643   1.807  0.0019  0.1739  0.5260
17778TIP3    H174825   0.130   1.584   1.753  0.2947  1.3990 -1.2030
17778TIP3    H274826   0.136   1.649   1.890 -0.1813 -2.2208  0.6473
17779TIP3   OH274827   3.946   1.642   0.150  0.8190  0.3751  0.3204
17779TIP3    H174828   3.987   1.589   0.219  0.2021  0.8472  1.0671
17779TIP3    H274829   3.990   1.727   0.156  1.1751  0.2374 -0.2712
17780TIP3   OH274830   4.991   2.952  15.914 -0.2211  0.5373  0.0198
17780TIP3    H174831   5.073   2.954  15.865  1.5747  0.5300  2.7918
17780TIP3    H274832   4.964   3.044  15.920 -0.4523  0.5382 -0.9069
17781TIP3   OH274833   6.018   3.934  12.337  1.0097 -0.4126  0.6415
17781TIP3    H174834   5.976   3.973  12.414  0.3309 -2.5917  1.4422
17781TIP3    H274835   5.981   3.981  12.262 -1.0302 -0.6152  1.4660
17782TIP3   OH274836   4.255   6.328   1.169  0.1939 -0.2428 -0.4917
17782TIP3    H174837   4.185   6.282   1.122  1.0193  0.0594 -2.1167
17782TIP3    H274838   4.334   6.306   1.120  1.0008  0.7118  0.3384
17783TIP3   OH274839   2.200   4.274   0.501  0.1738  0.5785 -0.3122
17783TIP3    H174840   2.190   4.203   0.437  2.7521 -0.3506  0.2061
17783TIP3    H274841   2.112   4.312   0.508 -0.9380 -1.4894 -1.8400
17784TIP3   OH274842   3.804   1.614  11.451 -0.0050 -0.2125 -0.0838
17784TIP3    H174843   3.782   1.544  11.513 -0.7329  0.3905  0.3673
17784TIP3    H274844   3.891   1.644  11.479  0.0852 -0.5881  0.0452
17785TIP3   OH274845   3.424   5.256  14.430 -0.1165 -0.6813  0.0181
17785TIP3    H174846   3.459   5.261  14.519 -0.6450  0.5900  0.1645
17785TIP3    H274847   3.418   5.162  14.412  0.5026 -0.9439  1.1150
17786TIP3   OH274848   3.407   1.846   4.996  0.3179  0.0036 -0.3499
17786TIP3    H174849   3.351   1.916   5.030  0.6869  0.8140 -1.4046
17786TIP3    H274850   3.345   1.782   4.961 -0.0118 -0.1322  0.4494
17787TIP3   OH274851   3.758   5.697  11.953  0.4168  0.4323 -0.7269
17787TIP3    H174852   3.768   5.720  12.045 -0.4980 -1.0249 -0.2192
17787TIP3    H274853   3.845   5.672  11.924  0.4287 -0.7592  0.2598
17788TIP3   OH274854   6.179   2.605  14.665  0.2400 -0.6640  0.1164
17788TIP3    H174855   6.205   2.514  14.679  1.3948 -0.3353  0.1933
17788TIP3    H274856   6.216   2.653  14.739  0.6018  0.0350 -0.5002
17789TIP3   OH274857   0.252   2.535  13.752 -0.6858 -0.1049 -0.5012
17789TIP3    H174858   0.345   2.531  13.772 -0.4622 -0.4287 -1.5530
17789TIP3    H274859   0.218   2.604  13.809 -0.0369 -0.7556  0.7161
17790TIP3   OH274860   6.256   1.766  16.581  0.0644  0.2378  0.2233
17790TIP3    H174861   6.243   1.672  16.590 -0.8959  0.4783  1.5875
17790TIP3    H274862   6.271   1.779  16.487 -1.6793 -1.0566 -0.2812
17791TIP3   OH274863   5.154   6.534  17.177  0.1793  0.5743 -0.0755
17791TIP3    H174864   5.193   6.554  17.092 -1.4297  1.9110 -0.5485
17791TIP3    H274865   5.216   6.570  17.240  1.1441  0.0161 -0.6674
17792TIP3   OH274866   3.205   2.011   1.198  0.4248  0.2039 -0.3559
17792TIP3    H174867   3.157   1.928   1.203 -1.4249  1.1542 -1.3459
17792TIP3    H274868   3.294   1.989   1.226  0.1445 -2.2255 -1.1568
17793TIP3   OH274869   5.718   1.232  15.290 -0.2976 -0.3815  0.9494
17793TIP3    H174870   5.806   1.222  15.325 -0.3054  0.6938  1.2997
17793TIP3    H274871   5.713   1.323  15.261 -1.1272 -0.5660  0.4661
17794TIP3   OH274872   4.430   3.821  11.549 -0.1890  0.1721 -0.2818
17794TIP3    H174873   4.343   3.789  11.574 -1.2065  3.3656  0.7236
17794TIP3    H274874   4.416   3.912  11.523  2.9135  0.9759  0.3812
17795TIP3   OH274875   1.219   6.125   0.318 -0.6601  0.0657  0.5484
17795TIP3    H174876   1.146   6.136   0.379 -1.4069 -1.7917  0.0796
17795TIP3    H274877   1.177   6.121   0.231 -0.4282 -3.4631  0.4327
17796TIP3   OH274878   3.184   2.565  14.561  0.3765 -0.5981 -0.4963
17796TIP3    H174879   3.121   2.500  14.592 -1.4305 -1.0159 -4.5229
17796TIP3    H274880   3.131   2.642  14.540  1.9983  0.9482  0.7461
17797TIP3   OH274881   3.474   6.491  16.480 -0.3069  0.7252  0.2023
17797TIP3    H174882   3.566   6.516  16.482  0.3162 -1.4226  2.0515
17797TIP3    H274883   3.460   6.458  16.391  0.3113  2.2226 -0.4923
17798TIP3   OH274884   1.791   5.404   1.866  0.1122 -0.3288  0.0972
17798TIP3    H174885   1.819   5.491   1.896 -1.7207  0.7252 -1.0437
17798TIP3    H274886   1.695   5.411   1.860  0.1248 -1.4364 -2.8727
17799TIP3   OH274887   0.508   3.433   0.156  0.0213 -0.0858 -0.1337
17799TIP3    H174888   0.554   3.359   0.196  1.0292  0.3788 -0.4031
17799TIP3    H274889   0.459   3.394   0.084  2.2396 -0.2514 -1.6489
17800TIP3   OH274890   5.106   4.979  12.988  0.1121  0.4306 -0.2185
17800TIP3    H174891   5.151   4.929  13.055  0.0283  0.1919 -0.3373
17800TIP3    H274892   5.176   5.013  12.932  0.1968  0.8859  0.1687
17801TIP3   OH274893   0.249   0.626   0.154  0.6426  0.6878 -0.4892
17801TIP3    H174894   0.159   0.623   0.187  1.2067  0.6701  1.1672
17801TIP3    H274895   0.257   0.549   0.098 -0.6179  1.1654 -1.3680
17802TIP3   OH274896   0.422   0.217  15.202  0.3472 -0.1023  0.1129
17802TIP3    H174897   0.433   0.271  15.280 -1.4059  1.2618 -0.4980
17802TIP3    H274898   0.380   0.276  15.139  1.9970 -1.0344 -2.0089
17803TIP3   OH274899   3.604   1.856   4.359 -0.0711 -0.1027  1.1915
17803TIP3    H174900   3.597   1.942   4.317  0.1571  0.1965  1.7602
17803TIP3    H274901   3.677   1.865   4.420 -1.0730 -0.1927  2.4403
17804TIP3   OH274902   2.583   2.493  10.767 -0.6618  0.1502  0.1690
17804TIP3    H174903   2.569   2.411  10.814 -2.3575 -0.8889 -1.9652
17804TIP3    H274904   2.501   2.541  10.777 -0.0032  1.2362  0.6406
17805TIP3   OH274905   0.693   6.536   5.032  0.3687 -0.3569  0.2419
17805TIP3    H174906   0.758   6.465   5.029  1.4400  0.5000  1.8518
17805TIP3    H274907   0.622   6.506   4.975  0.8725 -2.6236  0.7134
17806TIP3   OH274908   2.777   2.362  11.242 -0.1718 -0.1569 -0.2817
17806TIP3    H174909   2.868   2.366  11.271 -0.1449 -0.4167 -0.3313
17806TIP3    H274910   2.774   2.420  11.165 -0.1187  0.0907 -0.0980
17807TIP3   OH274911   0.939   1.766  12.378 -0.2184  0.1006 -0.4880
17807TIP3    H174912   1.005   1.782  12.311  1.9215 -1.0356  1.2089
17807TIP3    H274913   0.921   1.672  12.373 -0.6857  0.1567  0.0007
17808TIP3   OH274914   6.064   1.519  14.744  0.3226 -0.4879 -0.1100
17808TIP3    H174915   6.124   1.459  14.789  0.3488 -1.7196 -1.7329
17808TIP3    H274916   6.047   1.478  14.660 -2.6115 -0.0353  0.1662
17809TIP3   OH274917   4.883   2.170   4.087 -0.6740  0.2453  0.0896
17809TIP3    H174918   4.867   2.200   4.176  0.5828 -2.0898  1.1958
17809TIP3    H274919   4.824   2.223   4.033 -0.0695  3.1415  2.0053
17810TIP3   OH274920   6.513   3.897  12.070 -0.2765  0.7981  0.4875
17810TIP3    H174921   6.465   3.975  12.098  0.3652  2.0728 -1.7765
17810TIP3    H274922   6.451   3.847  12.017 -1.4034 -1.4875  3.6096
17811TIP3   OH274923   4.458   3.755  16.409  0.0167  0.2752 -0.5751
17811TIP3    H174924   4.381   3.765  16.352  0.3941  0.3278 -1.0832
17811TIP3    H274925   4.439   3.811  16.484 -1.1851 -0.9924  0.1171
17812TIP3   OH274926   4.182   4.441   3.006 -0.3655  0.3259 -0.2426
17812TIP3    H174927   4.124   4.513   3.030  0.3590  0.9591 -0.3464
17812TIP3    H274928   4.166   4.427   2.913 -1.5307 -0.6047  0.0867
17813TIP3   OH274929   4.576   3.611  10.945 -0.6056 -0.7103  0.6033
17813TIP3    H174930   4.575   3.659  11.028 -2.1596  0.4883 -0.0645
17813TIP3    H274931   4.605   3.675  10.881  0.8152 -1.6921  0.2211
17814TIP3   OH274932   2.789   2.433   3.239  0.1056  0.3646 -0.0765
17814TIP3    H174933   2.715   2.447   3.180  0.8066  0.7829 -0.8941
17814TIP3    H274934   2.861   2.483   3.199  1.0583 -0.6944  0.2439
17815TIP3   OH274935   1.748   0.301  12.854 -0.3907  0.3447  0.5789
17815TIP3    H174936   1.746   0.301  12.758 -0.4330  0.1299  0.5779
17815TIP3    H274937   1.772   0.211  12.877 -0.2435  0.4320  0.7675
17816TIP3   OH274938   6.111   3.379  11.432 -0.1204 -0.5718  0.0280
17816TIP3    H174939   6.146   3.290  11.433 -0.8197 -0.8634  1.7076
17816TIP3    H274940   6.122   3.410  11.522  0.8393  1.3620 -0.6924
17817TIP3   OH274941   0.964   5.895  14.454 -0.3154  0.4377 -0.0929
17817TIP3    H174942   1.052   5.869  14.428 -0.4119  0.0435 -0.0305
17817TIP3    H274943   0.954   5.863  14.544 -0.9711 -0.6523 -0.5308
17818TIP3   OH274944   1.333   3.120   1.014 -0.0193  0.5407  0.2135
17818TIP3    H174945   1.401   3.133   0.948 -1.7588  1.5005 -1.4892
17818TIP3    H274946   1.322   3.025   1.018  1.0199  0.4074  0.0791
17819TIP3   OH274947   2.944   6.059   3.690 -0.5921 -0.7153 -0.4635
17819TIP3    H174948   2.920   6.066   3.598 -0.9224 -0.4009 -0.3543
17819TIP3    H274949   2.860   6.066   3.737 -0.4019 -0.6706 -0.1314
17820TIP3   OH274950   4.322   3.181   4.790  0.4457 -0.0722  0.4485
17820TIP3    H174951   4.405   3.146   4.822 -0.7964 -2.4527  1.3365
17820TIP3    H274952   4.296   3.120   4.721  0.4420  1.8958 -1.3695
17821TIP3   OH274953   4.188   5.086   5.309 -0.0077 -0.1697  0.2416
17821TIP3    H174954   4.210   5.170   5.267 -0.7392 -0.4378 -0.7098
17821TIP3    H274955   4.258   5.026   5.281 -0.3885 -0.2982 -0.4605
17822TIP3   OH274956   0.267   3.881  13.348 -0.4215 -0.2538 -0.5629
17822TIP3    H174957   0.211   3.928  13.286  1.0983 -0.6702 -2.3286
17822TIP3    H274958   0.242   3.789  13.337 -2.0245 -0.1368  1.4744
17823TIP3   OH274959   2.235   0.094  14.770 -0.2591  0.6202  0.5428
17823TIP3    H174960   2.210   0.147  14.695 -1.1486  0.9179  1.0378
17823TIP3    H274961   2.310   0.140  14.808  2.7141 -1.4797 -2.2684
17824TIP3   OH274962   0.783   2.864   4.187 -0.0813 -0.0636 -0.2827
17824TIP3    H174963   0.766   2.959   4.188  1.5153  0.2712  1.2322
17824TIP3    H274964   0.810   2.844   4.277 -0.3984 -1.9702 -0.5837
17825TIP3   OH274965   3.950   6.366  15.643  0.0159  0.1791 -0.1694
17825TIP3    H174966   4.027   6.320  15.608  1.0691  0.2140  1.9203
17825TIP3    H274967   3.880   6.346  15.582  1.9859  1.3555 -2.9979
17826TIP3   OH274968   4.291   2.808   0.385 -0.6577  0.3416  0.7973
17826TIP3    H174969   4.256   2.753   0.456 -0.0161  0.9294  1.5933
17826TIP3    H274970   4.386   2.797   0.391 -0.5497  1.1222  0.6365
17827TIP3   OH274971   6.815   1.083   4.239 -0.1979  0.4148 -0.0654
17827TIP3    H174972   6.871   1.112   4.168 -2.3149 -0.6405 -2.2973
17827TIP3    H274973   6.800   0.990   4.222 -1.3337  0.3036  1.3430
17828TIP3   OH274974   0.048   6.280   0.750 -0.2090 -0.2926 -0.3910
17828TIP3    H174975   0.038   6.211   0.816  2.2632 -0.8005 -0.4549
17828TIP3    H274976   0.102   6.239   0.682  1.5668  1.7542 -0.3012
17829TIP3   OH274977   6.061   1.235   3.422 -0.3179  0.5614  0.0248
17829TIP3    H174978   6.039   1.178   3.348 -1.1554 -0.9897  1.4063
17829TIP3    H274979   5.986   1.295   3.429 -0.1977  0.7682 -0.4236
17830TIP3   OH274980   3.139   0.388   4.735 -0.4485 -0.7166 -0.4708
17830TIP3    H174981   3.066   0.416   4.680 -0.2104 -0.9306 -0.8974
17830TIP3    H274982   3.170   0.469   4.777 -2.3064 -0.8923  1.4305
17831TIP3   OH274983   3.227   5.689   4.319  0.2264 -0.3880  0.5015
17831TIP3    H174984   3.298   5.632   4.291  0.1519 -1.0336  1.5656
17831TIP3    H274985   3.259   5.778   4.303  1.1665 -0.6782  0.7483
17832TIP3   OH274986   0.287   4.240  17.236 -0.0697 -0.6373 -0.7477
17832TIP3    H174987   0.344   4.211  17.307 -1.4138  0.9880  1.1267
17832TIP3    H274988   0.301   4.335  17.231 -2.0427 -0.2978 -0.6784
17833TIP3   OH274989   6.657   2.195   4.245 -0.0399  0.2088 -0.1070
17833TIP3    H174990   6.580   2.189   4.189  0.2342 -2.2528 -0.3231
17833TIP3    H274991   6.724   2.235   4.189 -0.3897 -0.1628 -0.8011
17834TIP3   OH274992   0.327   1.698  16.309  0.2750  0.2973  0.3846
17834TIP3    H174993   0.320   1.793  16.314  0.6879  0.4083 -0.8816
17834TIP3    H274994   0.244   1.666  16.343 -0.1378  1.1342  0.1848
17835TIP3   OH274995   6.166   2.287   1.027  0.0661  0.4995  0.5806
17835TIP3    H174996   6.133   2.371   0.994 -0.3071 -0.2836 -1.2005
17835TIP3    H274997   6.087   2.238   1.050  0.2003  0.1868  0.3915
17836TIP3   OH274998   6.665   5.765  15.747 -0.1719  0.3493  0.2345
17836TIP3    H174999   6.569   5.764  15.746 -0.2400 -2.6031 -0.8493
17836TIP3    H275000   6.690   5.762  15.655  0.8672 -0.6888  0.5180
17837TIP3   OH275001   0.900   5.816  13.428  0.1953  0.3922 -0.2011
17837TIP3    H175002   0.873   5.775  13.511  0.3713  0.5541 -0.0612
17837TIP3    H275003   0.966   5.881  13.454  0.3424  0.3583 -0.4807
17838TIP3   OH275004   3.853   2.468   1.794 -0.2585  0.4828  0.4437
17838TIP3    H175005   3.833   2.532   1.861 -0.9633  2.0443 -1.1689
17838TIP3    H275006   3.791   2.487   1.723  1.1762 -0.3456 -1.1178
17839TIP3   OH275007   3.695   3.096   4.679  0.7431  0.2054 -0.7663
17839TIP3    H175008   3.682   3.084   4.773  2.6767  1.0189 -0.3477
17839TIP3    H275009   3.616   3.141   4.649 -0.6166 -1.4588  0.1110
17840TIP3   OH275010   3.257   6.272   0.382  0.0716  0.4243 -0.3913
17840TIP3    H175011   3.173   6.280   0.428  0.9863  2.3073  1.1006
17840TIP3    H275012   3.233   6.256   0.291 -1.8526 -0.8435  0.2630
17841TIP3   OH275013   0.822   2.465   2.860  0.1811  0.4058 -0.4666
17841TIP3    H175014   0.739   2.420   2.876  0.2744  0.0570 -0.9522
17841TIP3    H275015   0.861   2.419   2.787  0.2320  1.3474 -1.0517
17842TIP3   OH275016   5.269   0.030   5.832 -0.6932 -0.0884 -0.1115
17842TIP3    H175017   5.332   0.070   5.892 -2.4867  0.3780  1.5359
17842TIP3    H275018   5.184   0.055   5.866 -1.8440 -2.3344 -1.1404
17843TIP3   OH275019   0.787   4.004  10.399 -0.0793 -0.6527  0.1207
17843TIP3    H175020   0.849   3.992  10.327  1.7520 -0.9285  1.6909
17843TIP3    H275021   0.775   3.917  10.435  0.4684 -0.2625  1.2912
17844TIP3   OH275022   1.756   5.521   3.724  0.3557  0.2845 -0.1828
17844TIP3    H175023   1.673   5.556   3.757  0.8242  0.4261  0.9109
17844TIP3    H275024   1.805   5.599   3.695 -0.3961  0.0867 -2.1118
17845TIP3   OH275025   2.090   4.556  11.924 -0.5213  0.1094 -0.3637
17845TIP3    H175026   2.159   4.567  11.991 -1.7870  2.9771  0.6453
17845TIP3    H275027   2.088   4.641  11.879 -2.6141 -0.2895 -1.1018
17846TIP3   OH275028   1.700   1.865  16.767  0.3427  0.1635  0.4639
17846TIP3    H175029   1.619   1.862  16.716  0.3832  0.3122  0.3920
17846TIP3    H275030   1.760   1.807  16.719 -0.2230 -1.2444  1.3913
17847TIP3   OH275031   2.978   4.497  13.807  0.0361  0.3141  0.7080
17847TIP3    H175032   3.062   4.534  13.833 -0.3224  0.3947  1.7828
17847TIP3    H275033   2.921   4.573  13.794  0.4782  0.3471 -1.3943
17848TIP3   OH275034   1.100   4.720   1.565  0.0805  0.2011 -0.2484
17848TIP3    H175035   1.034   4.674   1.617 -0.5027  0.9671 -0.2864
17848TIP3    H275036   1.063   4.808   1.553 -0.1407 -0.1519 -2.5576
17849TIP3   OH275037   1.288   4.060  13.061 -0.2096  0.9259 -0.3561
17849TIP3    H175038   1.332   4.141  13.083  0.4899  0.6715 -0.8054
17849TIP3    H275039   1.211   4.058  13.119  0.9614  0.8195  1.2597
17850TIP3   OH275040   1.213   3.035  15.483 -0.4336  0.0703  0.1172
17850TIP3    H175041   1.218   2.955  15.535 -0.6144 -0.0805 -0.0942
17850TIP3    H275042   1.209   3.004  15.392 -1.5827  0.2804  0.0833
17851TIP3   OH275043   0.783   1.298   2.208  0.2709  0.5990 -0.4587
17851TIP3    H175044   0.750   1.300   2.298 -0.1763  0.9157 -0.6215
17851TIP3    H275045   0.704   1.307   2.154  0.3499 -1.1805 -0.9301
17852TIP3   OH275046   6.033   5.510   3.561  0.4554  0.4323  0.0019
17852TIP3    H175047   6.104   5.446   3.562  0.8753  0.8874  1.0678
17852TIP3    H275048   6.009   5.518   3.469 -1.4018 -3.2146 -0.0443
17853TIP3   OH275049   6.437   2.377   4.636 -0.0219 -0.8957  0.6936
17853TIP3    H175050   6.467   2.464   4.662  2.1680 -1.0484 -1.0567
17853TIP3    H275051   6.410   2.387   4.545 -0.7916 -1.8384  0.8061
17854TIP3   OH275052   1.415   3.554  11.779 -0.2249 -0.2255  0.5586
17854TIP3    H175053   1.377   3.475  11.742 -1.9880  0.3041  1.1569
17854TIP3    H275054   1.442   3.530  11.867  0.4722 -0.4870  0.2836
17855TIP3   OH275055   1.304   2.107   3.331 -0.1019  0.3668 -0.2532
17855TIP3    H175056   1.343   2.063   3.256  0.0940 -1.7328  0.9970
17855TIP3    H275057   1.237   2.046   3.363 -1.0778  1.7699  0.5275
17856TIP3   OH275058   3.727   5.258   3.667 -0.2199  0.2308  0.1294
17856TIP3    H175059   3.804   5.202   3.663 -0.2897  0.2218 -2.0860
17856TIP3    H275060   3.762   5.346   3.679  0.0385  0.0520  0.7280
17857TIP3   OH275061   2.269   4.971  13.041 -0.1199 -0.2401 -0.6395
17857TIP3    H175062   2.325   5.049  13.047  1.5789 -1.4643  0.1663
17857TIP3    H275063   2.293   4.918  13.117 -2.4215 -0.8300 -0.2528
17858TIP3   OH275064   4.466   5.128   3.333  0.0289 -0.0773  0.3019
17858TIP3    H175065   4.496   5.216   3.356 -0.5665  0.1843  0.0972
17858TIP3    H275066   4.505   5.111   3.248  0.9392 -0.4081  0.7709
17859TIP3   OH275067   0.031   5.995   3.314 -0.1959 -0.4312 -0.0140
17859TIP3    H175068   0.016   5.983   3.408 -0.5476  0.2637  0.0254
17859TIP3    H275069  -0.056   5.990   3.275  0.0779 -2.0383 -0.4751
17860TIP3   OH275070   2.229   2.680   5.312  0.9191 -0.1957  0.2396
17860TIP3    H175071   2.325   2.684   5.316  0.8787  0.1415  1.3248
17860TIP3    H275072   2.210   2.653   5.223  2.0308 -0.3203  0.0199
17861TIP3   OH275073   6.727   1.294  16.296  0.5339  0.6533  0.3144
17861TIP3    H175074   6.740   1.239  16.219 -1.8594  0.6233 -0.1233
17861TIP3    H275075   6.764   1.379  16.271  0.0636  0.5587 -0.7602
17862TIP3   OH275076   2.806   6.755   3.879 -0.0833  0.3600 -0.2009
17862TIP3    H175077   2.843   6.756   3.790  0.1626  0.9923 -0.0914
17862TIP3    H275078   2.850   6.680   3.921  1.2453  1.2090 -0.0093
17863TIP3   OH275079   5.561   0.335  14.153  0.3615  0.2248 -0.4639
17863TIP3    H175080   5.520   0.354  14.237  0.4359  1.9047 -0.7634
17863TIP3    H275081   5.611   0.255  14.168 -1.9083 -1.1639  0.2807
17864TIP3   OH275082   2.250   3.935   3.658 -0.0726  0.3877 -0.2743
17864TIP3    H175083   2.165   3.894   3.641 -0.7106  1.2597  0.7350
17864TIP3    H275084   2.234   3.995   3.731  1.7696 -0.6384  1.0644
17865TIP3   OH275085   3.298   5.112   1.671 -0.4938 -0.0866  0.0700
17865TIP3    H175086   3.348   5.117   1.589  3.8379 -1.8204  2.3449
17865TIP3    H275087   3.309   5.198   1.711 -2.5137  0.7199 -0.9308
17866TIP3   OH275088   4.731   1.905  16.293 -0.1501  0.0113 -0.0345
17866TIP3    H175089   4.640   1.909  16.323  0.1745  1.0114  0.8911
17866TIP3    H275090   4.730   1.949  16.208 -0.5064  0.1542  0.0428
17867TIP3   OH275091   0.781   6.543  10.845 -0.6752  0.3395  0.3741
17867TIP3    H175092   0.778   6.448  10.830 -0.7502  0.3334  0.4264
17867TIP3    H275093   0.863   6.557  10.893 -0.9802  0.2156  0.9505
17868TIP3   OH275094   5.572   4.208   3.490  0.9005  0.1925  0.3810
17868TIP3    H175095   5.517   4.151   3.436 -1.4870  0.8864  1.9183
17868TIP3    H275096   5.624   4.149   3.543 -0.0295 -0.5593  0.4850
17869TIP3   OH275097   3.145   5.634   6.021 -0.2718 -0.5018 -0.5228
17869TIP3    H175098   3.199   5.562   5.987 -0.9978 -0.8228 -1.0140
17869TIP3    H275099   3.207   5.707   6.030  0.4257 -1.1101 -0.2379
17870TIP3   OH275100   3.647   4.387   2.080 -0.5727  0.3894 -0.7391
17870TIP3    H175101   3.681   4.474   2.061  1.7930 -0.0548  0.9590
17870TIP3    H275102   3.622   4.390   2.172 -0.8498 -0.6018 -0.7696
17871TIP3   OH275103   4.892   4.900   0.093 -0.2831 -0.0740  0.5358
17871TIP3    H175104   4.835   4.913   0.017 -1.2387  0.7450  1.3523
17871TIP3    H275105   4.879   4.808   0.117 -0.7537 -0.0759  0.2981
17872TIP3   OH275106   4.749   6.582  11.804  0.0907  0.4832  0.2646
17872TIP3    H175107   4.675   6.642  11.812  0.4753  0.7689  2.1989
17872TIP3    H275108   4.738   6.521  11.876  1.0794 -0.2297 -0.1613
17873TIP3   OH275109   0.641   0.992   2.005  0.0875 -0.1567  0.8148
17873TIP3    H175110   0.578   0.982   1.934 -0.4699  1.5853  1.0160
17873TIP3    H275111   0.705   1.056   1.972  0.9522 -0.8194  1.1543
17874TIP3   OH275112   1.547   0.932  12.302 -0.0710 -0.4954 -0.3773
17874TIP3    H175113   1.588   0.846  12.308 -0.0764 -0.4755 -0.0245
17874TIP3    H275114   1.616   0.993  12.327 -0.2922 -0.4567  0.1430
17875TIP3   OH275115   2.172   2.099  11.465 -0.5490  0.0241  0.1591
17875TIP3    H175116   2.138   2.014  11.438  0.4701 -0.7523  1.2124
17875TIP3    H275117   2.247   2.078  11.521 -1.3898  1.5883  1.9663
17876TIP3   OH275118   0.435   6.464  13.495 -0.5779  0.6060  0.0999
17876TIP3    H175119   0.529   6.460  13.481 -0.6963 -0.0146 -0.6101
17876TIP3    H275120   0.397   6.458  13.407 -1.2713  1.3360  0.3385
17877TIP3   OH275121   0.146   2.079   5.399  0.3582 -0.1518  0.0901
17877TIP3    H175122   0.208   2.117   5.461  0.3501 -0.3495  0.2201
17877TIP3    H275123   0.171   1.987   5.394 -2.6048 -1.4110  3.5879
17878TIP3   OH275124   2.950   0.194   4.292 -0.1574  0.0090  0.0389
17878TIP3    H175125   3.032   0.145   4.281  0.3331  0.8823 -0.2271
17878TIP3    H275126   2.907   0.188   4.207 -1.0007 -1.5130  0.5129
17879TIP3   OH275127   0.833   0.672  11.901  0.2514 -0.0821 -0.2952
17879TIP3    H175128   0.739   0.684  11.889 -0.1475 -0.9752  1.6194
17879TIP3    H275129   0.871   0.695  11.816 -1.7130 -0.0610 -1.2179
17880TIP3   OH275130   4.135   1.112   5.981 -0.3905 -0.3867 -0.2820
17880TIP3    H175131   4.205   1.123   6.045  0.2787  2.9943 -1.4078
17880TIP3    H275132   4.058   1.150   6.023 -0.6121 -0.6116 -0.4828
17881TIP3   OH275133   2.948   5.633   2.500  0.0980  0.2809  0.4458
17881TIP3    H175134   2.859   5.662   2.520  0.5167  0.8462  1.5486
17881TIP3    H275135   2.976   5.689   2.428 -0.3275  0.2847  0.2796
17882TIP3   OH275136   3.697   3.364  11.181 -0.0410 -0.1302 -0.9455
17882TIP3    H175137   3.618   3.410  11.209 -0.3027 -1.4104  0.6001
17882TIP3    H275138   3.665   3.282  11.144  0.4951  0.1722 -2.1320
17883TIP3   OH275139   1.426   4.736   5.541  0.2859  0.1264  0.3375
17883TIP3    H175140   1.519   4.713   5.545  0.1921 -0.4473 -0.6535
17883TIP3    H275141   1.384   4.661   5.501 -0.2200  1.4320 -1.7048
17884TIP3   OH275142   1.131   2.375   2.258 -0.1462  0.3548 -0.0235
17884TIP3    H175143   1.127   2.393   2.164  1.9864  0.3920 -0.1551
17884TIP3    H275144   1.143   2.461   2.299  0.5317  0.1845  0.1434
17885TIP3   OH275145   4.397   0.037   4.575 -0.0102 -0.0438  0.0117
17885TIP3    H175146   4.450  -0.035   4.540 -1.4984 -1.2870  0.1941
17885TIP3    H275147   4.307   0.016   4.547 -0.5195  1.6174  0.3011
17886TIP3   OH275148   2.034   5.195  17.214  0.1655  0.2627 -0.3671
17886TIP3    H175149   1.985   5.235  17.142  2.3930  2.2028 -0.9090
17886TIP3    H275150   2.100   5.260  17.237  2.4368 -2.1601  0.3924
17887TIP3   OH275151   5.694   2.147   3.176 -0.1792 -0.3445 -0.6227
17887TIP3    H175152   5.618   2.182   3.223  0.8917 -0.2617  1.0942
17887TIP3    H275153   5.663   2.137   3.086 -1.6626  1.4302 -0.3573
17888TIP3   OH275154   5.237   6.818  14.899  0.1274 -0.9590  0.1233
17888TIP3    H175155   5.290   6.822  14.979  1.3562 -1.3218 -0.6652
17888TIP3    H275156   5.182   6.740  14.911 -0.1190 -0.6816  0.8605
17889TIP3   OH275157   2.171   3.225  15.035  0.4419 -0.0993  0.0179
17889TIP3    H175158   2.161   3.275  15.115  2.0457  2.0574 -1.0318
17889TIP3    H275159   2.257   3.250  15.001  0.4659 -2.1028 -1.6010
17890TIP3   OH275160   3.992   0.730  11.319  0.3323  0.4035  0.2578
17890TIP3    H175161   3.950   0.789  11.382  2.7119  0.7419  1.6233
17890TIP3    H275162   4.071   0.776  11.291  0.1865 -0.4514 -1.7825
17891TIP3   OH275163   1.247   6.036   4.635  0.5572  0.0366  0.6496
17891TIP3    H175164   1.245   6.025   4.730  0.0998  0.3987  0.6908
17891TIP3    H275165   1.298   6.116   4.621  1.6646 -0.6786  0.5111
17892TIP3   OH275166   5.448   0.391   3.757  0.5935 -0.7384  0.3983
17892TIP3    H175167   5.463   0.308   3.712 -3.2413 -2.1727  1.3205
17892TIP3    H275168   5.437   0.367   3.849 -2.3392  0.4026  0.4585
17893TIP3   OH275169   5.046   5.774   6.463 -0.4720  0.0549 -0.6195
17893TIP3    H175170   5.062   5.680   6.472 -1.9525 -0.2107 -0.4865
17893TIP3    H275171   5.117   5.805   6.408  0.2814 -1.0661 -0.3180
17894TIP3   OH275172   6.248   2.343  14.695 -0.3862 -0.2341 -0.8076
17894TIP3    H175173   6.330   2.295  14.693 -0.3327 -0.1360 -0.9621
17894TIP3    H275174   6.205   2.314  14.776  0.0686  0.1613 -0.4199
17895TIP3   OH275175   2.786   4.301  13.603 -0.1338 -0.3018 -0.1172
17895TIP3    H175176   2.795   4.396  13.596  1.2657 -0.4485 -0.5682
17895TIP3    H275177   2.787   4.270  13.512  0.6772 -0.8400  0.0679
17896TIP3   OH275178   6.747   4.984  12.874  0.3136  0.2232 -0.2290
17896TIP3    H175179   6.698   4.903  12.883  0.7224 -0.0562 -0.5023
17896TIP3    H275180   6.794   4.975  12.791  0.3923  0.7202 -0.2425
17897TIP3   OH275181   2.577   4.986  12.190 -0.2479 -0.2086  0.9061
17897TIP3    H175182   2.554   4.894  12.207 -0.0338 -0.1267  1.6763
17897TIP3    H275183   2.620   4.984  12.105 -0.2516 -0.8304  0.9137
17898TIP3   OH275184   5.171   5.034  15.495  0.3739  1.3248  0.2699
17898TIP3    H175185   5.093   5.089  15.490 -0.5088  0.1424  0.7659
17898TIP3    H275186   5.183   5.000  15.406  0.2087  1.3420  0.2418
17899TIP3   OH275187   2.511   2.847  14.452  0.3170 -0.1675 -0.0091
17899TIP3    H175188   2.499   2.872  14.360  1.6586 -1.3234 -0.5378
17899TIP3    H275189   2.436   2.885  14.497 -0.9592 -0.4756 -1.7699
17900TIP3   OH275190   0.957   3.906  14.161 -0.0558 -0.5120  0.2514
17900TIP3    H175191   0.980   3.868  14.076  0.4516  0.5876 -0.1125
17900TIP3    H275192   0.926   3.994  14.141  2.4625  0.7448  1.3610
17901TIP3   OH275193   2.868   0.839   3.635 -0.7954 -0.0637 -0.9314
17901TIP3    H175194   2.800   0.827   3.701 -1.2836  3.1359 -0.7190
17901TIP3    H275195   2.888   0.932   3.638  3.1772 -0.7587 -1.4810
17902TIP3   OH275196   4.512   5.046   3.072 -0.0901  1.1371  0.2519
17902TIP3    H175197   4.439   5.088   3.026  0.4121 -1.1663 -2.9782
17902TIP3    H275198   4.484   4.955   3.084  2.1719  0.1917 -1.0811
17903TIP3   OH275199   1.086   2.829   3.046  0.2360  0.4600 -0.1544
17903TIP3    H175200   1.144   2.823   2.970  0.4104  1.5321 -0.1220
17903TIP3    H275201   1.024   2.899   3.024 -1.4581 -1.0411 -0.4346
17904TIP3   OH275202   1.887   3.389  10.462 -0.1414  0.5553 -0.2667
17904TIP3    H175203   1.860   3.466  10.411 -1.1070 -0.4048 -1.2725
17904TIP3    H275204   1.862   3.410  10.552  0.3388  1.7340 -0.3969
17905TIP3   OH275205   0.082   2.749   0.507 -0.5535 -0.0551  0.2304
17905TIP3    H175206   0.085   2.736   0.602 -2.0916 -1.8891  0.0946
17905TIP3    H275207  -0.012   2.748   0.487 -0.2478  0.4036 -1.3068
17906TIP3   OH275208   5.373   4.857  10.383 -0.1529 -0.3134 -0.1723
17906TIP3    H175209   5.332   4.771  10.387  0.7898 -0.8981 -1.9688
17906TIP3    H275210   5.465   4.841  10.405  0.1499  0.1319 -1.0627
17907TIP3   OH275211   4.559   4.771  12.590 -0.2877 -0.4720 -0.1003
17907TIP3    H175212   4.646   4.811  12.592 -1.1578  1.5016  0.7912
17907TIP3    H275213   4.562   4.705  12.660  0.0631  0.5866  0.9233
17908TIP3   OH275214   5.905   3.383   0.180  0.5513  0.2435 -0.5075
17908TIP3    H175215   5.986   3.335   0.161  0.6317  1.0024 -2.3652
17908TIP3    H275216   5.927   3.439   0.255  1.5058 -0.1194 -0.5032
17909TIP3   OH275217   6.566   0.353  11.788  0.3483  0.0251 -0.9625
17909TIP3    H175218   6.628   0.361  11.860  0.8037 -1.2548 -1.1762
17909TIP3    H275219   6.485   0.390  11.821  1.4071  2.5969 -0.9875
17910TIP3   OH275220   5.562   5.134   1.894  0.4362  0.2322 -0.3386
17910TIP3    H175221   5.507   5.173   1.963 -0.0425  0.3850 -0.8004
17910TIP3    H275222   5.640   5.104   1.940 -0.4240 -0.8294  0.4994
17911TIP3   OH275223   2.342   1.209  12.906  0.4857  0.6902  0.0030
17911TIP3    H175224   2.415   1.188  12.848  0.0164  0.8272 -0.6539
17911TIP3    H275225   2.333   1.304  12.899  0.4495  0.7117  0.3327
17912TIP3   OH275226   1.833   3.697   1.175  1.0737 -0.2814 -0.0129
17912TIP3    H175227   1.906   3.749   1.208  0.2205  0.1116  1.3225
17912TIP3    H275228   1.814   3.634   1.245  0.0842 -0.3209 -0.2963
17913TIP3   OH275229   5.700   6.723  11.854 -0.8124 -0.1920  0.1798
17913TIP3    H175230   5.748   6.744  11.934  0.7029 -1.6684 -0.2767
17913TIP3    H275231   5.634   6.659  11.882 -1.0843  0.1909  0.4301
17914TIP3   OH275232   1.167   1.798  14.444  0.0990  0.8082 -0.1280
17914TIP3    H175233   1.091   1.804  14.503  0.9044 -0.6068  1.1243
17914TIP3    H275234   1.209   1.884  14.452  0.0225  0.7553  1.1507
17915TIP3   OH275235   1.190   0.551   0.907  0.1636 -0.5255 -0.3175
17915TIP3    H175236   1.271   0.568   0.956  0.4437 -0.6360 -0.7353
17915TIP3    H275237   1.158   0.638   0.882  0.0802 -0.4749 -0.0339
17916TIP3   OH275238   0.096   6.281  11.487 -0.5081  0.2788  0.3540
17916TIP3    H175239   0.028   6.347  11.502 -1.4718 -0.9478  1.6024
17916TIP3    H275240   0.166   6.305  11.547 -0.5588  0.5568  0.3045
17917TIP3   OH275241   4.915   5.177  15.495  0.4223  0.2872  0.0575
17917TIP3    H175242   4.825   5.151  15.509  0.9786 -1.3014  0.9194
17917TIP3    H275243   4.914   5.272  15.502 -1.2186  0.3144 -0.2518
17918TIP3   OH275244   0.857   4.100  16.005 -0.1015  0.9736  0.0869
17918TIP3    H175245   0.840   4.194  15.993  0.3710  1.1738  0.9218
17918TIP3    H275246   0.771   4.059  15.997 -0.5485  1.6431  1.2174
17919TIP3   OH275247   4.705   3.720   2.401 -0.4905  0.4668  0.1350
17919TIP3    H175248   4.649   3.701   2.476  0.7842 -0.3446  0.9184
17919TIP3    H275249   4.785   3.670   2.417  1.0526  2.6973 -0.2101
17920TIP3   OH275250   5.506   3.656  15.496 -0.0825 -0.2455 -0.0522
17920TIP3    H175251   5.542   3.582  15.447  0.7055 -0.2950  0.5947
17920TIP3    H275252   5.482   3.620  15.581  2.0745  0.6033  0.9738
17921TIP3   OH275253   3.587   4.361   3.245  0.0661  0.1337  0.1239
17921TIP3    H175254   3.534   4.354   3.325 -1.8851  1.1600 -0.9939
17921TIP3    H275255   3.553   4.439   3.201 -0.2597 -1.4084 -2.6137
17922TIP3   OH275256   5.619   3.189  16.526  0.0014  0.0425 -0.7749
17922TIP3    H175257   5.680   3.262  16.540 -2.5565  2.2253 -0.0764
17922TIP3    H275258   5.649   3.120  16.585  1.2401  1.4161  0.2637
17923TIP3   OH275259   1.952   0.414   3.915 -0.5557 -0.8237  0.3093
17923TIP3    H175260   1.988   0.362   3.986 -0.7381 -3.2784 -1.2619
17923TIP3    H275261   1.918   0.493   3.957  4.3223  0.6104  2.2415
17924TIP3   OH275262   2.982   3.674   3.850  0.7057  0.5732 -0.3720
17924TIP3    H175263   2.973   3.596   3.796  0.0034 -0.4474  1.1798
17924TIP3    H275264   3.053   3.723   3.808  0.7815 -0.6029 -1.6969
17925TIP3   OH275265   1.632   1.891   2.107 -0.1647  0.4511  0.4139
17925TIP3    H175266   1.537   1.899   2.094 -0.3630 -0.3264  1.2918
17925TIP3    H275267   1.670   1.930   2.028 -1.1703  2.3539  0.7909
17926TIP3   OH275268   2.411   6.070   5.459 -0.0296  0.8120  0.6270
17926TIP3    H175269   2.452   5.990   5.493 -1.6324 -0.0497  0.6326
17926TIP3    H275270   2.456   6.141   5.506  0.9259 -0.1095  1.1724
17927TIP3   OH275271   4.562   4.269  11.159 -0.1366  0.4318 -0.2849
17927TIP3    H175272   4.615   4.236  11.232  0.3464  2.1426  0.1873
17927TIP3    H275273   4.626   4.313  11.102 -0.8711  1.5132 -0.3048
17928TIP3   OH275274   3.035   6.471   6.369  0.4223  0.5336 -0.2992
17928TIP3    H175275   2.947   6.485   6.334 -0.6572 -2.5670  0.8309
17928TIP3    H275276   3.020   6.439   6.458  2.8037  1.4748  0.5031
17929TIP3   OH275277   6.648   1.420  14.412 -0.0556  0.3857 -0.0567
17929TIP3    H175278   6.740   1.445  14.414 -0.2633  1.1633  1.1999
17929TIP3    H275279   6.646   1.331  14.446  0.2941  0.1022 -0.7644
17930TIP3   OH275280   3.878   4.371   3.649  0.1028 -0.1611 -0.4090
17930TIP3    H175281   3.868   4.451   3.598  1.4668  1.4685  1.7029
17930TIP3    H275282   3.813   4.379   3.719  0.5019 -0.7016  0.0311
17931TIP3   OH275283   4.311   2.703  14.647 -0.1977 -0.3579  0.1697
17931TIP3    H175284   4.394   2.751  14.643 -0.4213  0.1052  0.9007
17931TIP3    H275285   4.312   2.648  14.568  0.1560  0.6991 -0.5961
17932TIP3   OH275286   2.768   4.002   4.967 -0.0919  0.5979 -0.2117
17932TIP3    H175287   2.719   4.011   5.049 -1.2547  2.9908 -1.0527
17932TIP3    H275288   2.859   4.011   4.993 -0.4849  2.0967  0.7865
17933TIP3   OH275289   1.457   4.864  15.989 -0.3022  0.4139  0.6057
17933TIP3    H175290   1.509   4.842  15.911 -0.3415 -0.5819  0.8445
17933TIP3    H275291   1.368   4.837  15.966 -0.5881  1.4499  0.4682
17934TIP3   OH275292   5.410   1.488   2.434  0.8394  0.7076  0.0967
17934TIP3    H175293   5.401   1.441   2.517  1.0295 -1.4679 -1.0341
17934TIP3    H275294   5.505   1.498   2.423  0.8042  1.2576  0.2598
17935TIP3   OH275295   1.255   2.551  12.384  0.3058 -0.4912 -0.3184
17935TIP3    H175296   1.263   2.646  12.391  1.0258 -0.5615 -0.0674
17935TIP3    H275297   1.199   2.537  12.308 -3.4789  0.2172  2.0800
17936TIP3   OH275298   5.956   3.365   0.673 -0.0643  0.0569  0.1971
17936TIP3    H175299   6.051   3.363   0.659 -0.1453  0.0758 -0.3557
17936TIP3    H275300   5.930   3.454   0.651 -0.0544  0.3722  1.4104
17937TIP3   OH275301   1.008   2.394   4.343 -0.3563  0.2670  0.4695
17937TIP3    H175302   1.021   2.461   4.275 -0.1898  0.2560  0.4897
17937TIP3    H275303   0.965   2.322   4.297 -1.1895  0.6636  0.6030
17938TIP3   OH275304   4.370   2.605  11.403 -0.2098  0.4201 -0.3326
17938TIP3    H175305   4.321   2.602  11.321 -1.6146 -1.2910  0.5085
17938TIP3    H275306   4.418   2.523  11.405 -0.4243  0.3024  0.6810
17939TIP3   OH275307   5.456   1.497  15.189 -0.6441 -0.4550  0.2841
17939TIP3    H175308   5.383   1.436  15.187 -0.3343 -0.8043 -1.6832
17939TIP3    H275309   5.523   1.457  15.133  0.5716  0.4714  1.0104
17940TIP3   OH275310   6.789   2.772  15.837 -0.4364 -0.7766 -0.1192
17940TIP3    H175311   6.779   2.692  15.786  0.1935 -0.8685 -0.1066
17940TIP3    H275312   6.751   2.840  15.781 -0.5682 -1.0139 -0.3223
17941TIP3   OH275313   1.335   3.563   0.424  0.2400 -0.3169 -0.2730
17941TIP3    H175314   1.279   3.574   0.347 -2.3632 -1.5824  1.3036
17941TIP3    H275315   1.325   3.471   0.448  3.3048 -0.7045  0.0036
17942TIP3   OH275316   4.213   4.689  15.853 -0.0644  0.2366 -0.0617
17942TIP3    H175317   4.238   4.780  15.838 -0.2746  0.1580 -0.8932
17942TIP3    H275318   4.244   4.642  15.776  0.8765 -0.5671  0.7868
17943TIP3   OH275319   2.074   0.818   5.322  0.6165  0.5515 -0.1802
17943TIP3    H175320   2.054   0.814   5.228 -1.0850 -0.4423  0.1849
17943TIP3    H275321   2.072   0.912   5.342  0.1000  0.7190 -0.9497
17944TIP3   OH275322   2.116   4.370   3.673 -0.0925  0.4819  0.4672
17944TIP3    H175323   2.049   4.304   3.651  0.0245  0.4086  0.3262
17944TIP3    H275324   2.171   4.375   3.595 -0.2760  0.9633  0.3667
17945TIP3   OH275325   6.757   2.068   6.051 -0.2269 -0.3389  0.5231
17945TIP3    H175326   6.764   2.163   6.040 -2.0859 -0.2150  0.1045
17945TIP3    H275327   6.848   2.037   6.048  0.3158  1.0857 -2.6288
17946TIP3   OH275328   0.938   3.864  14.723  0.5373 -0.1775  0.2853
17946TIP3    H175329   0.861   3.883  14.775  0.6071 -1.1639  0.7731
17946TIP3    H275330   1.004   3.925  14.754 -0.1854  1.0570 -0.5233
17947TIP3   OH275331   1.496   3.615  13.776  0.0714 -0.6711 -0.4646
17947TIP3    H175332   1.558   3.584  13.841 -1.0807  0.4365  1.2398
17947TIP3    H275333   1.500   3.710  13.781 -0.5091 -0.5642 -1.5761
17948TIP3   OH275334   5.587   5.226  13.547  0.1122  0.2833  0.0705
17948TIP3    H175335   5.518   5.232  13.482 -0.9341  2.4416  1.2825
17948TIP3    H275336   5.562   5.289  13.615  1.5948 -1.2414  2.1465
17949TIP3   OH275337   1.942   3.953   5.406  0.1725 -0.2018 -0.1511
17949TIP3    H175338   1.957   3.879   5.465  2.8849  0.4031  0.0699
17949TIP3    H275339   1.989   3.930   5.326 -0.0795  0.7099 -0.5762
17950TIP3   OH275340   1.175   3.482   1.088 -0.2947  0.4439 -0.6723
17950TIP3    H175341   1.148   3.468   1.179  2.3433  0.1587  0.1598
17950TIP3    H275342   1.174   3.577   1.077 -0.2329  0.4983 -0.2158
17951TIP3   OH275343   0.085   6.572   1.868  0.5667 -0.1092 -0.3970
17951TIP3    H175344   0.117   6.661   1.882  3.0018 -0.9792 -0.0327
17951TIP3    H275345   0.109   6.524   1.948  1.7747 -1.7072 -1.6411
17952TIP3   OH275346   0.505   6.179  11.701 -0.5488  0.0008 -0.0380
17952TIP3    H175347   0.570   6.163  11.633 -1.9391  0.4897 -1.5758
17952TIP3    H275348   0.458   6.096  11.710 -1.6276  0.4515 -1.1484
17953TIP3   OH275349   4.713   5.539   1.890 -0.3322 -0.0932  0.0798
17953TIP3    H175350   4.667   5.563   1.970  0.3254 -1.3735  0.8676
17953TIP3    H275351   4.789   5.490   1.919 -0.1444 -0.7061 -1.3320
17954TIP3   OH275352   0.232   5.756  12.304 -0.0085 -0.5453 -0.0874
17954TIP3    H175353   0.312   5.704  12.307 -0.4405 -1.1815  1.1495
17954TIP3    H275354   0.161   5.691  12.302 -0.6352 -0.1515  3.2468
17955TIP3   OH275355   5.213   5.828   3.506 -0.1271  0.1683  0.4543
17955TIP3    H175356   5.306   5.827   3.529  0.4068 -0.5157 -1.5103
17955TIP3    H275357   5.196   5.919   3.480 -0.1175  0.3841  1.1884
17956TIP3   OH275358   4.214   4.278   1.070  0.2854  0.0763  0.3551
17956TIP3    H175359   4.197   4.251   1.161  1.8648 -0.7833  0.4274
17956TIP3    H275360   4.128   4.307   1.038 -0.4395 -0.2062  1.9114
17957TIP3   OH275361   3.738   5.050   2.224 -0.1462  0.2719 -0.4926
17957TIP3    H175362   3.719   5.141   2.202 -2.4100 -0.0544 -0.1148
17957TIP3    H275363   3.654   5.006   2.219  0.3006 -1.1598  2.3340
17958TIP3   OH275364   6.198   6.062  13.329  0.1386 -0.0594  0.1252
17958TIP3    H175365   6.179   5.968  13.331  2.2298 -0.5196  0.9738
17958TIP3    H275366   6.144   6.099  13.399  1.1802 -1.0654  1.5058
17959TIP3   OH275367   0.458   2.404  15.583  0.6795 -0.5597  0.2221
17959TIP3    H175368   0.373   2.383  15.545  0.1617  0.1130  0.9521
17959TIP3    H275369   0.476   2.331  15.642  0.5628 -0.6561  0.1411
17960TIP3   OH275370   4.409   5.815  16.875  0.2005 -0.2663 -0.2112
17960TIP3    H175371   4.317   5.789  16.888 -0.3720  1.7766  0.1839
17960TIP3    H275372   4.415   5.837  16.782 -0.0521  0.7116 -0.0101
17961TIP3   OH275373   4.068   0.696  12.115  0.8144 -0.4130  0.8313
17961TIP3    H175374   3.983   0.738  12.128  0.5692 -0.5435 -0.2995
17961TIP3    H275375   4.090   0.712  12.023  2.4509  0.4048  1.3154
17962TIP3   OH275376   4.745   1.620   3.144 -0.0186  0.0772 -0.2202
17962TIP3    H175377   4.743   1.704   3.098  1.1151  1.3178  1.8122
17962TIP3    H275378   4.656   1.586   3.135 -0.8609  2.0809 -0.1386
17963TIP3   OH275379   1.816   2.040   2.290  0.0462 -0.2762 -0.1316
17963TIP3    H175380   1.846   1.990   2.214 -0.2653 -0.7429  0.0487
17963TIP3    H275381   1.782   1.974   2.350  0.7723  0.0310  0.6430
17964TIP3   OH275382   4.122   3.577   3.801 -0.2050  0.5220 -0.2003
17964TIP3    H175383   4.132   3.585   3.896  0.1370 -0.1182 -0.1742
17964TIP3    H275384   4.122   3.667   3.769  0.4721  0.7188  0.3308
17965TIP3   OH275385   2.381   4.240   1.673 -0.0568  0.2317  0.5910
17965TIP3    H175386   2.405   4.176   1.741  2.1610 -0.9974 -1.2150
17965TIP3    H275387   2.325   4.191   1.613  1.5335 -0.0680 -0.7230
17966TIP3   OH275388   6.061   2.318  14.462 -0.4422 -0.4830 -0.2437
17966TIP3    H175389   6.052   2.223  14.452  3.0047 -0.9582  0.1091
17966TIP3    H275390   6.061   2.332  14.557 -1.8250  0.0506 -0.2931
17967TIP3   OH275391   6.450   0.830   0.533  0.3883  0.8215 -0.1172
17967TIP3    H175392   6.404   0.760   0.580  0.3601 -0.9438 -2.5953
17967TIP3    H275393   6.541   0.823   0.561  0.4015 -0.3106 -0.3908
17968TIP3   OH275394   3.444   5.802  15.372 -0.0564  0.2067 -0.3210
17968TIP3    H175395   3.522   5.749  15.386  0.1909  0.9213  1.2419
17968TIP3    H275396   3.442   5.863  15.446 -3.2172 -1.1219  0.8626
17969TIP3   OH275397   5.857   6.242  11.572  0.4574 -0.7535 -0.1699
17969TIP3    H175398   5.827   6.312  11.515  0.4618 -0.2425  0.4508
17969TIP3    H275399   5.952   6.250  11.573  0.4430 -0.5967  0.1131
17970TIP3   OH275400   3.718   1.644   0.831  0.5700  0.3742  0.3970
17970TIP3    H175401   3.671   1.586   0.771  2.2742  2.1341 -2.9394
17970TIP3    H275402   3.734   1.591   0.909 -1.5941 -2.1702 -0.7532
17971TIP3   OH275403   5.828   0.147   2.013 -0.1552 -0.3416  0.0591
17971TIP3    H175404   5.906   0.116   2.058 -0.0759  1.5528  1.3624
17971TIP3    H275405   5.756   0.099   2.055  0.2214 -1.5977 -0.6855
17972TIP3   OH275406   3.990   6.227  14.793  0.0024  0.2116 -0.3137
17972TIP3    H175407   3.922   6.266  14.738 -0.5449  1.3604  1.1045
17972TIP3    H275408   4.050   6.186  14.731 -0.8404  1.0215 -1.7345
17973TIP3   OH275409   0.223   1.648  12.636  0.2523 -0.2046  0.1327
17973TIP3    H175410   0.173   1.696  12.702  0.9227 -0.9831  1.2402
17973TIP3    H275411   0.314   1.651  12.668  0.2841 -2.3666  0.3592
17974TIP3   OH275412   5.510   6.144  11.038 -0.1513  0.2949  0.5441
17974TIP3    H175413   5.434   6.096  11.071  0.2360 -0.1287  0.8448
17974TIP3    H275414   5.493   6.235  11.060 -1.9564  0.6909 -1.9690
17975TIP3   OH275415   2.371   1.665   5.327 -0.3779 -0.6666  0.3508
17975TIP3    H175416   2.318   1.732   5.283 -0.0985 -0.5793  0.1473
17975TIP3    H275417   2.370   1.590   5.268 -0.5295 -0.7766  0.4904
17976TIP3   OH275418   0.790   1.011  14.006  0.3141  0.3824 -0.0184
17976TIP3    H175419   0.841   0.985  14.083  2.4326 -1.5058 -1.9026
17976TIP3    H275420   0.806   1.105  13.998  0.6225  0.4801  1.4175
17977TIP3   OH275421   0.238   5.412   2.482  0.4030 -0.5299 -0.0983
17977TIP3    H175422   0.185   5.338   2.453 -0.7507  0.3942 -0.4190
17977TIP3    H275423   0.279   5.446   2.402 -2.4904  1.7929 -0.7630
17978TIP3   OH275424   1.580   4.247   4.919  0.2816  0.6584 -0.4863
17978TIP3    H175425   1.666   4.207   4.906  0.3316  0.2031  1.0260
17978TIP3    H275426   1.520   4.172   4.927 -0.0836  0.9510 -0.4402
17979TIP3   OH275427   6.456   5.024  12.053  0.0280 -0.3607  0.4050
17979TIP3    H175428   6.438   5.101  12.000  1.1661 -1.5895 -1.9504
17979TIP3    H275429   6.370   4.991  12.079 -0.4820  1.3255  0.9727
17980TIP3   OH275430   5.859   1.158   2.209 -0.5996 -0.2512 -0.6007
17980TIP3    H175431   5.798   1.094   2.245  0.0977 -1.3879 -1.3704
17980TIP3    H275432   5.926   1.167   2.277 -0.2076 -1.0738 -0.8567
17981TIP3   OH275433   0.415   4.920  11.901  0.4875  0.0963 -0.0065
17981TIP3    H175434   0.390   4.916  11.993  0.3770  2.8657  0.1416
17981TIP3    H275435   0.505   4.952  11.901  0.2673  0.7530 -0.8812
17982TIP3   OH275436   5.289   5.403   4.409 -0.0958  0.1640 -0.1201
17982TIP3    H175437   5.271   5.316   4.374 -0.0795  0.7508 -1.6312
17982TIP3    H275438   5.355   5.388   4.477 -0.9838 -1.1370  0.5107
17983TIP3   OH275439   0.601   0.142  14.258  0.0527 -0.1196 -0.3401
17983TIP3    H175440   0.591   0.140  14.353 -1.5700  0.6449 -0.4542
17983TIP3    H275441   0.514   0.121  14.224  0.5974 -0.3440 -1.6601
17984TIP3   OH275442   0.644   0.971  10.897  0.3366 -1.1477  0.4844
17984TIP3    H175443   0.586   0.989  10.971  1.8299 -0.0978  1.4379
17984TIP3    H275444   0.707   1.042  10.897  1.2127 -1.8621 -0.9774
17985TIP3   OH275445   2.454   2.194  13.128 -0.1737 -0.0389  0.1980
17985TIP3    H175446   2.457   2.120  13.067  0.0860 -0.2944  0.5171
17985TIP3    H275447   2.538   2.192  13.173 -0.5943 -0.2343  1.0016
17986TIP3   OH275448   0.087   1.861   5.092  0.2220  0.0771  0.2429
17986TIP3    H175449   0.170   1.908   5.098 -1.0004  2.5904 -0.8348
17986TIP3    H275450   0.112   1.771   5.072  2.6986  0.4366  1.3588
17987TIP3   OH275451   6.279   3.510  11.891 -0.0070  0.5040  0.0090
17987TIP3    H175452   6.232   3.448  11.947 -0.0810 -0.2095 -0.8256
17987TIP3    H275453   6.366   3.517  11.930 -0.7065  1.7149  1.4788
17988TIP3   OH275454   1.406   3.949   0.252 -0.6934  0.0304 -0.0686
17988TIP3    H175455   1.453   4.013   0.198  0.8715 -1.1270 -0.1697
17988TIP3    H275456   1.315   3.955   0.223 -0.1086  0.2957 -1.9984
17989TIP3   OH275457   0.668   5.947  13.277  0.3919  0.0261  0.0857
17989TIP3    H175458   0.756   5.950  13.240  0.7205  0.8292  0.8886
17989TIP3    H275459   0.650   5.854  13.291  0.5165 -0.2527 -1.4310
17990TIP3   OH275460   5.537   5.332  16.548 -0.3021  0.3598  0.4100
17990TIP3    H175461   5.442   5.320  16.560 -0.8803  1.2616 -2.5439
17990TIP3    H275462   5.549   5.427  16.546  0.2184  0.2993 -1.6467
17991TIP3   OH275463   4.800   4.036  13.728  0.3944  0.2485 -0.3139
17991TIP3    H175464   4.777   4.027  13.821  0.4964  1.6238 -0.1337
17991TIP3    H275465   4.875   4.096  13.728  1.3299 -0.8711 -1.1972
17992TIP3   OH275466   5.800   0.893   3.179  0.3794  0.0732  0.3094
17992TIP3    H175467   5.858   0.925   3.110 -0.1993  0.2411 -0.1031
17992TIP3    H275468   5.829   0.939   3.258  0.2062  0.8688 -0.0810
17993TIP3   OH275469   0.564   0.340  15.994  0.2293 -0.0844  0.2059
17993TIP3    H175470   0.618   0.408  15.954  1.6641 -0.6587  1.0497
17993TIP3    H275471   0.526   0.292  15.920  1.3768 -0.0276 -0.4457
17994TIP3   OH275472   2.604   1.486  14.000  0.2001  0.7029 -0.6126
17994TIP3    H175473   2.656   1.456  14.075  0.1690  0.5542 -0.6506
17994TIP3    H275474   2.633   1.432  13.927 -1.5037 -0.8855 -0.1877
17995TIP3   OH275475   4.703   0.961   1.694 -0.0747  0.8670 -0.3852
17995TIP3    H175476   4.668   1.028   1.636 -1.5209  0.3985 -0.0952
17995TIP3    H275477   4.779   1.001   1.735  2.0981  0.6692 -3.8202
17996TIP3   OH275478   5.301   6.202   6.204  0.1559 -0.2584  0.2051
17996TIP3    H175479   5.291   6.242   6.118 -0.2067  2.1030  1.2898
17996TIP3    H275480   5.234   6.133   6.205 -0.2261  0.0535 -1.1818
17997TIP3   OH275481   2.412   3.196  15.290  0.4298  0.3114  0.0941
17997TIP3    H175482   2.474   3.261  15.321 -0.4876  1.7282 -0.9372
17997TIP3    H275483   2.331   3.245  15.273 -1.6988 -1.7022  3.2248
17998TIP3   OH275484   6.197   4.655  12.272 -0.3320  0.4003 -0.2223
17998TIP3    H175485   6.146   4.611  12.340 -1.8701  1.5746 -0.5604
17998TIP3    H275486   6.285   4.619  12.281 -0.7867 -0.3742  1.5695
17999TIP3   OH275487   6.298   5.951  14.991  0.3760  0.5447 -0.0133
17999TIP3    H175488   6.298   5.981  14.900  1.5044  0.4417 -0.0574
17999TIP3    H275489   6.340   5.865  14.988 -1.5428 -0.4655  0.3151
18000TIP3   OH275490   0.195   5.649   2.260 -0.2838  0.0251  0.0916
18000TIP3    H175491   0.223   5.660   2.350  2.5661  0.3438 -0.7399
18000TIP3    H275492   0.125   5.714   2.248 -0.6594  0.0114  2.0225
18001TIP3   OH275493   0.201   3.004  12.122  0.5324 -0.2893 -0.1337
18001TIP3    H175494   0.112   3.033  12.140  0.6025 -0.4535  0.5302
18001TIP3    H275495   0.196   2.908  12.125  1.1986 -0.3129  2.5305
18002TIP3   OH275496   2.994   2.775  10.470  0.2483 -0.0185 -0.2333
18002TIP3    H175497   2.901   2.774  10.447  0.2751  0.2694 -0.3589
18002TIP3    H275498   3.004   2.705  10.534 -0.2273  0.5309  0.4460
18003TIP3   OH275499   2.796   4.315  15.008  0.2815  0.3839  0.5856
18003TIP3    H175500   2.760   4.271  14.931  0.3606 -1.3652  1.4895
18003TIP3    H275501   2.823   4.243  15.066 -0.7740  1.6216  2.7295
18004TIP3   OH275502   6.693   4.307  16.564 -0.3619  0.3655 -0.2690
18004TIP3    H175503   6.619   4.324  16.623 -0.1203 -0.9815  0.4692
18004TIP3    H275504   6.731   4.393  16.547  0.2663  0.7349  2.5019
18005TIP3   OH275505   4.791   4.598   4.655  0.1207 -0.1256  0.3840
18005TIP3    H175506   4.806   4.567   4.744  0.2925  0.7812  0.6851
18005TIP3    H275507   4.744   4.527   4.612 -0.7438 -0.2168  1.4588
18006TIP3   OH275508   5.055   4.976   4.391 -0.0038  0.6279  0.1586
18006TIP3    H175509   5.001   5.051   4.414  0.1172  0.7940 -0.0917
18006TIP3    H275510   5.000   4.900   4.409 -0.5095  0.8104 -0.6024
18007TIP3   OH275511   4.605   1.250  17.157  0.1683 -0.0945 -0.0261
18007TIP3    H175512   4.535   1.292  17.207 -0.9843 -0.7874 -1.0197
18007TIP3    H275513   4.685   1.278  17.201 -0.7234  0.6196  1.2173
18008TIP3   OH275514   5.995   5.866  16.988 -0.0713  0.5622 -0.2074
18008TIP3    H175515   5.991   5.949  17.036 -2.3251  0.1508  0.4387
18008TIP3    H275516   5.964   5.800  17.050  0.6514 -0.6120 -1.0438
18009TIP3   OH275517   2.518   6.554   4.124 -0.1596 -0.0866  0.1621
18009TIP3    H175518   2.444   6.496   4.109  0.5219 -1.1307  0.7534
18009TIP3    H275519   2.595   6.500   4.106  0.5489  0.0943  2.3782
18010TIP3   OH275520   6.711   4.973   5.493 -0.5745  0.4160  0.2593
18010TIP3    H175521   6.691   5.018   5.575 -0.8472  1.8411 -0.5578
18010TIP3    H275522   6.628   4.967   5.447 -0.2616  0.5426 -0.3417
18011TIP3   OH275523   4.039   2.191  16.362  0.1366  0.1022 -0.3749
18011TIP3    H175524   4.125   2.209  16.323 -0.1323 -1.3118 -1.6984
18011TIP3    H275525   4.055   2.192  16.456  1.4407  0.6296 -0.5809
18012TIP3   OH275526   3.107   5.745  13.848  0.6458 -0.2712 -0.0681
18012TIP3    H175527   3.123   5.808  13.918  0.1686 -0.0187 -0.1805
18012TIP3    H275528   3.028   5.777  13.804 -0.8726 -2.0816  1.1727
18013TIP3   OH275529   4.881   6.443  15.542  0.2136 -0.2868 -0.1663
18013TIP3    H175530   4.912   6.502  15.611  0.8906  0.4269 -1.0636
18013TIP3    H275531   4.940   6.458  15.469  1.3664 -3.1678  0.0225
18014TIP3   OH275532   3.306   3.648   2.945  0.0568  0.1226  0.7752
18014TIP3    H175533   3.380   3.649   2.884 -0.6032  1.0486 -0.0509
18014TIP3    H275534   3.340   3.606   3.023  0.9607 -1.0141 -0.1964
18015TIP3   OH275535   4.478   5.858   5.416  0.5931 -0.0161  0.0812
18015TIP3    H175536   4.552   5.847   5.356  2.3940 -1.2509  2.3688
18015TIP3    H275537   4.517   5.854   5.503 -1.9908  1.0202  1.3874
18016TIP3   OH275538   6.233   5.241   4.117  0.6153  0.1746  0.0272
18016TIP3    H175539   6.223   5.336   4.123 -0.2784  0.0853  0.0675
18016TIP3    H275540   6.295   5.219   4.187 -0.1109  0.5906  0.8190
18017TIP3   OH275541   2.358   1.092  12.555  0.0702 -0.1059 -0.4021
18017TIP3    H175542   2.397   1.160  12.610  2.2029 -0.8064 -0.9588
18017TIP3    H275543   2.266   1.089  12.582  0.8560  0.0966  2.5729
18018TIP3   OH275544   1.593   5.415  15.847 -0.2427 -0.4251  0.2356
18018TIP3    H175545   1.552   5.340  15.803  1.1277 -0.5023 -0.9958
18018TIP3    H275546   1.618   5.382  15.934 -0.9392 -0.9625  0.2316
18019TIP3   OH275547   0.035   0.245  14.466 -0.2661  0.0812 -0.1500
18019TIP3    H175548   0.015   0.154  14.443 -1.0847  0.0706  0.5194
18019TIP3    H275549  -0.008   0.297  14.398  0.9925 -0.0324 -1.0698
18020TIP3   OH275550   6.402   2.833  12.344  0.1507  0.6752 -0.1282
18020TIP3    H175551   6.497   2.820  12.346  0.1613  0.1651 -2.0299
18020TIP3    H275552   6.368   2.775  12.413  1.1570  0.1467 -0.0619
18021TIP3   OH275553   4.938   3.699   1.471 -0.1042 -0.0124 -0.5498
18021TIP3    H175554   4.897   3.690   1.385  0.0235 -0.3443 -0.5775
18021TIP3    H275555   4.989   3.618   1.482  0.0545  0.1252 -0.2571
18022TIP3   OH275556   3.442   5.279   0.097 -0.2502 -0.1846 -0.0392
18022TIP3    H175557   3.492   5.331   0.160 -0.9508  0.6461 -0.1538
18022TIP3    H275558   3.374   5.237   0.149  0.6836 -1.5298  0.1623
18023TIP3   OH275559   0.175   6.769  10.243  0.1702  0.0570  0.0575
18023TIP3    H175560   0.206   6.834  10.306  0.6206 -1.1972  1.1769
18023TIP3    H275561   0.091   6.804  10.212  0.8628  1.6499 -0.1579
18024TIP3   OH275562   2.134   2.396   3.293  0.8235  0.3065 -0.0545
18024TIP3    H175563   2.215   2.402   3.243  0.8392 -0.6042 -0.1551
18024TIP3    H275564   2.142   2.314   3.341 -0.7898 -0.7399 -1.4445
18025TIP3   OH275565   3.511   3.855   3.190  0.1204 -0.0713  0.4499
18025TIP3    H175566   3.532   3.943   3.161 -0.1785 -0.1201  0.0714
18025TIP3    H275567   3.592   3.805   3.177 -0.0480 -0.1280 -0.4638
18026TIP3   OH275568   1.244   5.734  12.116  0.4501  0.0568 -0.5337
18026TIP3    H175569   1.260   5.729  12.210 -0.8890 -1.4965 -0.3413
18026TIP3    H275570   1.155   5.699  12.104  0.8075 -0.3478 -2.4309
18027TIP3   OH275571   2.297   4.326  16.230  0.1644  0.3141  0.3231
18027TIP3    H175572   2.233   4.256  16.240  0.6849 -0.5309 -1.7013
18027TIP3    H275573   2.259   4.384  16.164  0.5764  0.9182  0.6076
18028TIP3   OH275574   3.874   1.491   2.606 -0.0593 -0.2392  0.0958
18028TIP3    H175575   3.779   1.495   2.597 -0.0772 -1.0703 -0.2056
18028TIP3    H275576   3.893   1.541   2.685 -0.4862  2.3106 -1.2955
18029TIP3   OH275577   6.679   3.912  16.717 -0.4499 -0.5159  0.1439
18029TIP3    H175578   6.771   3.934  16.701 -0.7162  1.0700  0.5698
18029TIP3    H275579   6.667   3.930  16.810 -1.9092  2.2921 -0.4948
18030TIP3   OH275580   5.377   1.943   5.585  0.4238  0.1178  0.5813
18030TIP3    H175581   5.333   1.873   5.633  0.1174 -0.4167 -0.4568
18030TIP3    H275582   5.422   1.994   5.653 -2.0644  0.9220  1.7411
18031TIP3   OH275583   3.963   4.609   3.153 -0.1625  0.3637  0.1456
18031TIP3    H175584   4.003   4.695   3.142  1.6895 -0.3344  0.9934
18031TIP3    H275585   3.896   4.621   3.220 -0.3585  1.2722 -0.2106
18032TIP3   OH275586   5.267   4.039  12.410  0.5102  0.3069  0.4606
18032TIP3    H175587   5.238   4.130  12.420 -1.3492 -0.0233 -1.3374
18032TIP3    H275588   5.290   4.031  12.318 -1.4301 -1.5275  0.0433
18033TIP3   OH275589   1.142   3.955  11.880  0.6113  0.3164  0.1414
18033TIP3    H175590   1.219   4.001  11.846  0.2710 -0.5670 -1.9636
18033TIP3    H275591   1.095   4.021  11.931  0.9378  1.8942 -1.5023
18034TIP3   OH275592   2.161   1.850  16.350 -0.3831 -0.1546  0.2821
18034TIP3    H175593   2.250   1.841  16.385 -0.4676 -0.2057  0.4892
18034TIP3    H275594   2.172   1.897  16.268 -0.0728 -0.9292 -0.1301
18035TIP3   OH275595   3.905   2.628   4.480 -0.4774 -0.0636  0.0499
18035TIP3    H175596   3.884   2.705   4.427 -1.6268 -1.1245 -1.1152
18035TIP3    H275597   3.993   2.645   4.513  0.2365  0.7381 -2.0681
18036TIP3   OH275598   2.123   1.524  15.323  0.2898 -0.2630  0.5080
18036TIP3    H175599   2.125   1.510  15.229 -1.1427 -0.2923  0.4581
18036TIP3    H275600   2.145   1.439  15.361  0.5077 -0.3439  0.2023
18037TIP3   OH275601   4.631   5.621  10.849  0.6942  0.2007  0.2059
18037TIP3    H175602   4.553   5.602  10.902  0.1547  1.7942  0.0443
18037TIP3    H275603   4.704   5.585  10.899 -0.1491 -1.5407  0.2463
18038TIP3   OH275604   6.782   5.915   0.937  0.0035 -0.2376  0.1184
18038TIP3    H175605   6.832   5.876   0.866  0.9123  1.6760 -0.3514
18038TIP3    H275606   6.727   5.982   0.895  1.7049  2.0451  1.2970
18039TIP3   OH275607   4.500   4.147   3.487 -0.0737 -0.2529  0.1234
18039TIP3    H175608   4.411   4.165   3.458  0.1351 -0.7596 -0.8887
18039TIP3    H275609   4.549   4.134   3.406  0.6602 -1.1798  0.6985
18040TIP3   OH275610   6.363   0.459  11.361  0.0151  0.1128 -0.0709
18040TIP3    H175611   6.331   0.447  11.450 -0.0253 -1.4210 -0.2534
18040TIP3    H275612   6.317   0.392  11.310  0.0861  0.9113 -1.2369
18041TIP3   OH275613   2.470   3.137   1.940 -0.0632  0.0390 -0.1118
18041TIP3    H175614   2.508   3.180   1.863  1.3196 -0.5532  0.2030
18041TIP3    H275615   2.416   3.066   1.904 -0.1004  0.2925 -0.5605
18042TIP3   OH275616   2.161   6.241  10.393 -0.2015 -0.3631  0.0964
18042TIP3    H175617   2.127   6.236  10.303  0.4717  3.4756 -0.5394
18042TIP3    H275618   2.255   6.252  10.382 -0.3507  2.6919  1.0182
18043TIP3   OH275619   0.699   5.445   0.493  0.1750 -0.1729  0.0429
18043TIP3    H175620   0.608   5.462   0.519  0.5021 -1.4481  2.2533
18043TIP3    H275621   0.705   5.350   0.492  1.8018 -0.1052  1.1511
18044TIP3   OH275622   0.559   3.445  16.185  0.1565  0.0752 -0.6163
18044TIP3    H175623   0.647   3.477  16.201  1.3298 -1.9320 -2.3701
18044TIP3    H275624   0.501   3.512  16.221  2.3723  1.3312  0.8322
18045TIP3   OH275625   5.530   0.191   0.722  0.5304  0.3445  0.4946
18045TIP3    H175626   5.589   0.131   0.675  0.8203  1.0600 -0.0632
18045TIP3    H275627   5.533   0.272   0.672 -1.1837  0.2993  0.2672
18046TIP3   OH275628   2.715   3.048  10.676  0.6856 -0.5758 -0.0298
18046TIP3    H175629   2.690   3.135  10.647  1.4029 -1.0971 -2.4745
18046TIP3    H275630   2.633   3.004  10.696  0.3530  0.8404  1.9998
18047TIP3   OH275631   3.900   3.754  11.574 -0.0810  0.4438 -0.2701
18047TIP3    H175632   3.845   3.676  11.566  1.0307 -0.8351  2.8722
18047TIP3    H275633   3.838   3.827  11.568 -1.7595 -0.8504  0.4134
18048TIP3   OH275634   3.581   3.689   0.228  0.6376 -0.2814  0.2235
18048TIP3    H175635   3.640   3.723   0.160  0.2551  1.6478  0.7930
18048TIP3    H275636   3.578   3.758   0.294 -0.9234 -1.0651  1.0338
18049TIP3   OH275637   5.232   1.419  13.841 -0.4097  0.6312  0.4152
18049TIP3    H175638   5.312   1.470  13.846 -0.3056  0.4698  0.3874
18049TIP3    H275639   5.260   1.333  13.812 -0.7674  1.0156 -1.1810
18050TIP3   OH275640   3.155   6.293   3.751 -0.0806 -0.7285 -0.1852
18050TIP3    H175641   3.144   6.208   3.794 -0.3039  0.3009  1.9098
18050TIP3    H275642   3.246   6.316   3.767 -0.0030 -0.6060 -0.8061
18051TIP3   OH275643   4.377   3.876  11.171  0.4415  0.2909 -0.2234
18051TIP3    H175644   4.435   3.875  11.247  0.6186 -2.5135 -0.2970
18051TIP3    H275645   4.435   3.890  11.096  0.7912 -0.6643 -0.1396
18052TIP3   OH275646   5.279   0.531   1.967 -0.2621 -0.0240  0.4257
18052TIP3    H175647   5.298   0.438   1.961  0.1122 -0.0350  1.4390
18052TIP3    H275648   5.187   0.539   1.944  0.1453 -0.3988 -1.4451
18053TIP3   OH275649   2.851   1.116   3.652 -0.5041  0.8848  0.2109
18053TIP3    H175650   2.929   1.134   3.706  0.6729  0.4826 -1.2863
18053TIP3    H275651   2.846   1.190   3.592 -0.7997  0.5167 -0.2245
18054TIP3   OH275652   6.474   0.732   3.256  0.1666  0.6058 -0.8154
18054TIP3    H175653   6.409   0.672   3.220  1.1660 -0.6972 -0.5152
18054TIP3    H275654   6.524   0.762   3.181  0.5922 -0.0795 -0.8090
18055TIP3   OH275655   6.811   3.825   3.066  0.0777 -0.3465  0.1197
18055TIP3    H175656   6.748   3.858   3.129 -0.9672 -3.3432  0.7910
18055TIP3    H275657   6.895   3.859   3.096 -0.3756 -1.6191  3.2115
18056TIP3   OH275658   0.707   6.247   1.195  0.8528 -0.3335 -0.1587
18056TIP3    H175659   0.725   6.154   1.209  0.2980 -0.4026  0.1242
18056TIP3    H275660   0.683   6.253   1.102  0.6584 -0.5102 -0.1202
18057TIP3   OH275661   0.364   4.801   3.210  0.3454  0.0160 -0.1351
18057TIP3    H175662   0.349   4.837   3.297  0.6944  0.6151 -0.3159
18057TIP3    H275663   0.338   4.709   3.217  1.3467 -0.2023  0.8624
18058TIP3   OH275664   6.524   3.181   3.769 -0.3159 -0.2109  0.9916
18058TIP3    H175665   6.447   3.230   3.797  0.6625  1.9247  0.1811
18058TIP3    H275666   6.598   3.222   3.814  0.9773  1.6115 -2.4058
18059TIP3   OH275667   2.087   4.834  16.561 -0.7280  0.0616  0.1505
18059TIP3    H175668   2.066   4.869  16.648 -1.6883 -2.0548  0.8575
18059TIP3    H275669   2.030   4.758  16.553 -0.6054  0.1808 -2.3458
18060TIP3   OH275670   6.814   4.465  15.699  0.4018 -0.6766 -0.4667
18060TIP3    H175671   6.727   4.474  15.738 -0.1059 -0.3741 -1.6263
18060TIP3    H275672   6.831   4.371  15.700  0.1056 -0.7320 -0.1581
18061TIP3   OH275673   5.236   3.892  13.440  0.4337 -0.0331 -0.1231
18061TIP3    H175674   5.225   3.983  13.466  0.8147 -0.4046  1.4537
18061TIP3    H275675   5.160   3.847  13.478  1.4112 -0.7288  1.0861
18062TIP3   OH275676   1.466   0.369  13.825  0.4511  0.3140 -0.6041
18062TIP3    H175677   1.466   0.324  13.740  0.3416 -0.5152 -0.1784
18062TIP3    H275678   1.480   0.461  13.804 -0.3037  0.2149 -1.5720
18063TIP3   OH275679   3.445   0.189   3.701 -0.7997 -0.0712 -0.1375
18063TIP3    H175680   3.472   0.170   3.612  0.0752 -0.1831  0.1436
18063TIP3    H275681   3.462   0.109   3.750 -2.1455 -0.3254 -0.0436
18064TIP3   OH275682   0.521   5.942  12.959  0.5805 -0.1042  0.0886
18064TIP3    H175683   0.583   6.009  12.930 -1.7098  0.7103 -3.6875
18064TIP3    H275684   0.472   5.983  13.029  1.5345  0.8018  0.2530
18065TIP3   OH275685   2.574   0.303   3.836 -0.4261  0.3848 -0.0789
18065TIP3    H175686   2.518   0.226   3.829  1.7246 -1.1906 -1.0158
18065TIP3    H275687   2.513   0.377   3.837 -2.4835 -1.1926 -1.1343
18066TIP3   OH275688   4.012   5.314   5.060  0.6664  0.1454 -0.2780
18066TIP3    H175689   4.099   5.332   5.097  0.5375  0.7499 -0.2595
18066TIP3    H275690   4.030   5.255   4.986  1.0980  0.2931 -0.2970
18067TIP3   OH275691   6.693   5.925  15.992 -0.0180  0.1080  0.4003
18067TIP3    H175692   6.704   6.017  15.967 -1.1373 -0.1076 -1.0056
18067TIP3    H275693   6.701   5.876  15.910  0.9189 -1.1076  1.1729
18068TIP3   OH275694   3.349   5.465  14.877 -0.0322  0.3567 -0.2667
18068TIP3    H175695   3.389   5.549  14.902  0.9097 -0.0776 -0.2573
18068TIP3    H275696   3.420   5.402  14.885 -0.0865 -0.0742 -2.5829
18069TIP3   OH275697   5.723   5.627  16.832 -0.1585 -0.4166 -0.1155
18069TIP3    H175698   5.795   5.609  16.771  0.4371 -0.6713  0.6534
18069TIP3    H275699   5.747   5.579  16.911 -0.2455  1.0420  0.8087
18070TIP3   OH275700   3.580   3.619  12.817 -0.0128  0.3567 -0.0480
18070TIP3    H175701   3.557   3.623  12.910  0.6391 -3.7155  0.4466
18070TIP3    H275702   3.671   3.647  12.814  0.1455 -0.0445  0.6618
18071TIP3   OH275703   2.326   6.795   2.346 -0.2209  0.4251  0.1034
18071TIP3    H175704   2.272   6.745   2.407 -0.4981 -0.3566 -0.7466
18071TIP3    H275705   2.390   6.731   2.313  0.9231  1.2094  0.7120
18072TIP3   OH275706   4.680   1.030   0.066 -0.0834  0.1634  0.3819
18072TIP3    H175707   4.615   1.070   0.010  0.2947 -0.7742 -0.7635
18072TIP3    H275708   4.695   0.943   0.029  0.3611 -0.4051  1.7874
18073TIP3   OH275709   0.447   0.337  12.648 -0.2013  0.4209  0.5702
18073TIP3    H175710   0.406   0.350  12.562  0.3197  1.6499  0.4757
18073TIP3    H275711   0.537   0.309  12.628 -0.3840 -0.3065  0.7414
18074TIP3   OH275712   2.857   0.150   6.220  0.6255  0.2172 -0.2483
18074TIP3    H175713   2.880   0.151   6.313  2.1179  0.1615 -0.5965
18074TIP3    H275714   2.934   0.115   6.176 -0.2710 -0.3031 -1.4694
18075TIP3   OH275715   2.186   3.998  15.208  0.3255  0.1747 -0.3960
18075TIP3    H175716   2.195   4.055  15.131 -1.6274  1.8397  0.5127
18075TIP3    H275717   2.257   4.026  15.266 -0.4506  1.5495 -0.0731
18076TIP3   OH275718   0.516   0.298   1.218  0.6423  0.3676  0.3794
18076TIP3    H175719   0.596   0.247   1.206  0.0747 -0.6895  0.9815
18076TIP3    H275720   0.499   0.294   1.312 -0.8000 -0.4889  0.1023
18077TIP3   OH275721   0.845   2.892  12.695 -0.6244 -0.2301  0.0586
18077TIP3    H175722   0.890   2.971  12.727 -0.7775  0.1946 -0.7438
18077TIP3    H275723   0.758   2.923  12.669 -0.6539 -0.6464 -0.3473
18078TIP3   OH275724   6.693   2.299  14.912 -0.0335  0.0707  0.2202
18078TIP3    H175725   6.681   2.228  14.975  0.1682 -0.6522 -0.5478
18078TIP3    H275726   6.784   2.328  14.926 -0.5425  1.1496  1.5065
18079TIP3   OH275727   6.775   1.444   1.347  0.4619 -0.8147  0.0188
18079TIP3    H175728   6.805   1.495   1.423  1.9522 -1.4265 -0.1295
18079TIP3    H275729   6.824   1.479   1.273  0.9285 -1.9250 -0.2202
18080TIP3   OH275730   0.782   6.437  16.150  0.6401 -0.0216  0.0204
18080TIP3    H175731   0.780   6.486  16.232  1.3341  0.7779 -0.4280
18080TIP3    H275732   0.725   6.361  16.166  0.0607  0.5882  0.9352
18081TIP3   OH275733   6.317   5.848   1.935 -0.4578 -0.3059 -0.1613
18081TIP3    H175734   6.287   5.909   1.867  0.8118  0.5816  0.0214
18081TIP3    H275735   6.373   5.786   1.888  0.2481  0.1814  0.0079
18082TIP3   OH275736   3.901   6.475  12.627 -0.2432  0.0571  0.2588
18082TIP3    H175737   3.911   6.404  12.691 -0.4506 -0.5698 -0.3843
18082TIP3    H275738   3.991   6.502  12.608 -0.1895  0.4472  1.0183
18083TIP3   OH275739   2.242   3.028   0.221  0.3487  0.4559  0.8211
18083TIP3    H175740   2.155   3.028   0.182  0.6285 -1.2837  0.1071
18083TIP3    H275741   2.235   2.968   0.295  1.1542 -0.5291  0.1388
18084TIP3   OH275742   2.179   0.181   2.894 -0.0083 -0.1285  0.3319
18084TIP3    H175743   2.231   0.131   2.957  0.1759 -0.6370 -0.2166
18084TIP3    H275744   2.235   0.189   2.817 -0.4366  0.0167  0.0317
18085TIP3   OH275745   5.298   3.632   4.115  0.1526  0.1964 -0.1825
18085TIP3    H175746   5.221   3.633   4.173  1.1664 -1.1311  1.2813
18085TIP3    H275747   5.271   3.682   4.039 -2.2019 -0.2885  0.2470
18086TIP3   OH275748   1.529   3.896   6.385  0.4641  0.1985  0.0679
18086TIP3    H175749   1.539   3.989   6.407 -0.8004  0.2309  0.5345
18086TIP3    H275750   1.459   3.865   6.442  1.0916 -1.1313  0.1427
18087TIP3   OH275751   1.540   1.878   3.615 -0.5688 -0.1533 -0.0625
18087TIP3    H175752   1.558   1.971   3.602 -1.9373 -0.1179 -2.2020
18087TIP3    H275753   1.613   1.833   3.571  0.7333 -0.1699  1.9862
18088TIP3   OH275754   6.349   5.297  11.065 -0.3003  0.3355 -0.1021
18088TIP3    H175755   6.373   5.268  11.153 -0.5727  0.8850  0.1574
18088TIP3    H275756   6.256   5.278  11.058 -0.4341  0.9266 -0.0104
18089TIP3   OH275757   6.038   0.228  13.482  0.3445 -0.4273  0.0342
18089TIP3    H175758   6.120   0.244  13.528  0.7744 -2.6505  0.1600
18089TIP3    H275759   5.970   0.243  13.549  0.8818 -2.0768  1.0165
18090TIP3   OH275760   2.893   6.143  11.534  0.0271 -0.1757 -0.5099
18090TIP3    H175761   2.933   6.060  11.507  0.3526  0.3689 -1.7393
18090TIP3    H275762   2.815   6.151  11.479 -0.2052  0.1577 -0.1358
18091TIP3   OH275763   4.143   6.237  15.450 -0.1665  0.4741  0.0917
18091TIP3    H175764   4.219   6.292  15.471 -0.5852  0.9025  0.4884
18091TIP3    H275765   4.175   6.179  15.381  0.8866 -0.1763  1.0839
18092TIP3   OH275766   3.512   3.404   6.576  0.1975 -0.4599 -0.6504
18092TIP3    H175767   3.606   3.386   6.577  0.0189 -1.5438 -1.2204
18092TIP3    H275768   3.472   3.325   6.611 -0.4965  0.0663 -0.2369
18093TIP3   OH275769   6.686   4.593  14.873 -0.7133 -0.1038  0.7025
18093TIP3    H175770   6.742   4.607  14.796 -0.6070  0.0428  0.8049
18093TIP3    H275771   6.602   4.565  14.837 -0.8822  0.6482  0.4990
18094TIP3   OH275772   1.051   0.237  12.604 -0.0058  0.1770  0.4377
18094TIP3    H175773   1.064   0.309  12.666 -0.2954  1.4236 -0.8825
18094TIP3    H275774   0.960   0.209  12.618 -0.4590  1.2641 -0.2128
18095TIP3   OH275775   0.281   5.382  13.417 -0.3140  0.1279  0.1145
18095TIP3    H175776   0.299   5.289  13.404  0.5406  0.5728 -2.4136
18095TIP3    H275777   0.358   5.416  13.462 -0.1562 -0.1965  0.0868
18096TIP3   OH275778   4.970   3.514   2.713  0.0095  0.1375  0.1776
18096TIP3    H175779   4.946   3.542   2.801 -0.0983 -0.1091  0.2266
18096TIP3    H275780   4.906   3.447   2.691  1.3206 -1.3606  0.7632
18097TIP3   OH275781   2.081   0.669   5.013 -0.4347  0.1208  0.8607
18097TIP3    H175782   2.078   0.574   5.022  0.9776 -0.0214  0.1374
18097TIP3    H275783   2.016   0.689   4.946 -0.7308 -0.3434  1.0096
18098TIP3   OH275784   2.636   6.319  16.298 -0.0207 -0.4546 -0.1764
18098TIP3    H175785   2.666   6.245  16.246 -0.8456  0.3793 -1.9286
18098TIP3    H275786   2.590   6.375  16.236  1.2789  1.9590  0.8806
18099TIP3   OH275787   6.271   3.302   2.566  0.5311 -0.2828  0.2779
18099TIP3    H175788   6.223   3.241   2.510  1.2293 -1.0094  0.4611
18099TIP3    H275789   6.352   3.319   2.518  0.6474 -0.0439  0.5591
18100TIP3   OH275790   1.328   1.187  11.324 -0.5388 -0.6511  0.7292
18100TIP3    H175791   1.255   1.142  11.367 -0.7848 -0.7586  0.2105
18100TIP3    H275792   1.356   1.254  11.386 -0.6514 -1.0392  1.2022
18101TIP3   OH275793   6.438   2.438   5.301 -0.2394 -0.7641 -0.0324
18101TIP3    H175794   6.378   2.377   5.257 -0.5774 -1.4353  1.3176
18101TIP3    H275795   6.516   2.437   5.246 -1.0788 -0.6145 -1.2955
18102TIP3   OH275796   2.830   4.250   3.779 -0.7444  0.9377  0.0757
18102TIP3    H175797   2.876   4.242   3.696  0.3582 -2.4609  0.8278
18102TIP3    H275798   2.886   4.305   3.833 -0.1305  1.0165 -0.6279
18103TIP3   OH275799   3.268   1.677   6.151 -0.4460  0.1704  0.0215
18103TIP3    H175800   3.178   1.691   6.183 -0.8818  0.2071 -1.1698
18103TIP3    H275801   3.323   1.689   6.228 -1.3746  1.2650  0.5459
18104TIP3   OH275802   4.277   2.630  15.831  0.4379  0.6155  0.1371
18104TIP3    H175803   4.230   2.647  15.750 -2.9947  1.5248  2.0971
18104TIP3    H275804   4.293   2.717  15.868  1.5791  0.2033  0.6543
18105TIP3   OH275805   4.057   6.015  12.943  0.3191 -0.3497  0.2758
18105TIP3    H175806   4.018   6.103  12.939 -1.2582 -1.0484 -0.5141
18105TIP3    H275807   4.119   6.020  13.015  0.0203  1.3183  0.4698
18106TIP3   OH275808   4.148   5.689   3.457 -0.0594  0.3553  0.5227
18106TIP3    H175809   4.099   5.733   3.387  0.1691  1.7530  1.1984
18106TIP3    H275810   4.126   5.597   3.448 -0.8069  0.6384 -0.7749
18107TIP3   OH275811   3.729   1.012  13.464  0.1640 -0.4731 -0.1260
18107TIP3    H175812   3.779   0.999  13.544  0.4156 -0.8832 -0.3464
18107TIP3    H275813   3.646   1.048  13.493  0.6860  0.4649  0.2214
18108TIP3   OH275814   4.784   2.410  16.185  0.4020 -0.4111 -0.1374
18108TIP3    H175815   4.775   2.346  16.256 -0.7544 -0.5959 -0.4248
18108TIP3    H275816   4.852   2.375  16.128  1.5294 -0.1363  1.0004
18109TIP3   OH275817   2.031   0.612  16.567 -0.3353  0.0281 -0.2508
18109TIP3    H175818   2.116   0.574  16.584 -0.4206 -0.6314 -1.1979
18109TIP3    H275819   2.050   0.695  16.523 -0.1142  1.8102  2.9386
18110TIP3   OH275820   0.476   5.497   3.845 -0.3453  0.4037 -0.1560
18110TIP3    H175821   0.439   5.538   3.923  0.0128 -0.0275  0.2484
18110TIP3    H275822   0.546   5.441   3.878  1.0565  1.6261 -0.9536
18111TIP3   OH275823   3.709   6.012  11.653  0.3709 -0.4171 -0.1696
18111TIP3    H175824   3.700   5.925  11.614 -0.0773 -0.4121 -0.0790
18111TIP3    H275825   3.797   6.040  11.627  1.0732 -1.4703  0.9593
18112TIP3   OH275826   2.942   1.883   3.860 -0.3337 -0.3588 -0.0638
18112TIP3    H175827   2.920   1.904   3.770  2.7679  0.7276 -0.7079
18112TIP3    H275828   3.004   1.811   3.854 -0.2471 -0.4201  1.2019
18113TIP3   OH275829   5.416   3.157  11.130 -0.6779  0.6782 -0.3688
18113TIP3    H175830   5.348   3.194  11.073 -0.4404  0.1902 -0.9760
18113TIP3    H275831   5.421   3.065  11.104  0.0205  0.6458 -0.1277
18114TIP3   OH275832   3.646   1.940  15.616  0.3576 -0.1543 -0.0407
18114TIP3    H175833   3.553   1.920  15.626 -0.1543  1.0508 -1.8269
18114TIP3    H275834   3.651   2.035  15.627  1.3189 -0.1550 -0.4020
18115TIP3   OH275835   4.075   5.713  13.244  0.2527 -0.0859  0.1665
18115TIP3    H175836   4.115   5.791  13.282 -0.0627 -0.1438  0.6201
18115TIP3    H275837   4.049   5.739  13.156  1.7696 -0.1883 -0.3539
18116TIP3   OH275838   6.291   6.496  11.335 -0.2212  0.0434 -0.0877
18116TIP3    H175839   6.374   6.462  11.302 -0.0758 -0.1308  0.4529
18116TIP3    H275840   6.313   6.537  11.418 -0.7873 -0.6355  0.4156
18117TIP3   OH275841   0.743   0.335  14.874 -0.0308  0.3115 -0.1584
18117TIP3    H175842   0.818   0.348  14.816 -0.5921 -0.2654 -1.0342
18117TIP3    H275843   0.742   0.413  14.930 -0.1873  1.4793 -1.7402
18118TIP3   OH275844   1.439   1.074  16.867  0.3094 -0.1102 -0.4185
18118TIP3    H175845   1.386   1.036  16.797  1.2413 -0.9521 -0.7004
18118TIP3    H275846   1.529   1.051  16.844  0.9537  2.3364 -0.6138
18119TIP3   OH275847   5.212   2.736  15.057  0.3481 -0.5853  0.1478
18119TIP3    H175848   5.297   2.740  15.101  0.1669  1.4248  0.4319
18119TIP3    H275849   5.166   2.663  15.099  1.4399 -0.8430  0.9246
18120TIP3   OH275850   5.283   6.307  10.319  0.0530 -0.2493 -0.5063
18120TIP3    H175851   5.302   6.387  10.368 -0.6710 -0.7205  0.5565
18120TIP3    H275852   5.362   6.254  10.328  1.1700  0.9149 -2.4932
18121TIP3   OH275853   4.863   5.785  15.600  0.4804 -0.1050 -0.1219
18121TIP3    H175854   4.882   5.765  15.508  0.4341  1.0636 -0.3961
18121TIP3    H275855   4.767   5.790  15.604  0.4697 -0.4138  0.0538
18122TIP3   OH275856   4.880   1.373  15.148 -0.0783  0.0129 -0.0348
18122TIP3    H175857   4.900   1.362  15.055 -0.5402 -2.2050  0.0737
18122TIP3    H275858   4.785   1.373  15.152 -0.0598 -0.8457  0.5195
18123TIP3   OH275859   3.029   6.661   3.251  0.1746  0.0550  0.3464
18123TIP3    H175860   2.944   6.681   3.290  1.2990  1.8621  2.1017
18123TIP3    H275861   3.090   6.719   3.297  2.4244 -1.4426 -0.5864
18124TIP3   OH275862   6.001   5.604   3.031  0.2302 -0.0516 -0.0622
18124TIP3    H175863   6.055   5.627   2.954  0.3398 -0.0356  0.0188
18124TIP3    H275864   5.925   5.661   3.024  0.6831  0.6147  0.3443
18125TIP3   OH275865   3.148   4.269   4.659  0.5686 -0.3760  0.4137
18125TIP3    H175866   3.062   4.276   4.617  0.5519  2.9318  0.7832
18125TIP3    H275867   3.127   4.247   4.750  0.2689 -1.5393  0.0830
18126TIP3   OH275868   3.067   1.827   2.633  0.0261 -0.1634  0.4222
18126TIP3    H175869   3.050   1.894   2.567 -1.2932 -0.3422  0.5485
18126TIP3    H275870   3.131   1.867   2.692  1.0341  0.0860 -0.8053
18127TIP3   OH275871   6.095   0.098  16.469 -0.3533 -0.1966  0.2638
18127TIP3    H175872   6.121   0.159  16.399 -1.2007  1.5892  1.4194
18127TIP3    H275873   6.177   0.080  16.515 -0.1947  0.7061  0.3645
18128TIP3   OH275874   3.241   4.675   0.653  0.0920  0.5870  0.1723
18128TIP3    H175875   3.267   4.765   0.675  0.7371 -0.1249  2.6904
18128TIP3    H275876   3.238   4.673   0.558  0.2198  3.2308  0.0411
18129TIP3   OH275877   6.358   1.163  12.283  0.4579 -0.4555 -0.1526
18129TIP3    H175878   6.298   1.089  12.291  0.8175 -0.8608 -1.0583
18129TIP3    H275879   6.324   1.215  12.211 -0.5870  1.0551  1.3779
18130TIP3   OH275880   3.264   5.683  16.605  0.4253 -0.0507 -0.0190
18130TIP3    H175881   3.279   5.671  16.511  0.2843  1.5588 -0.2807
18130TIP3    H275882   3.188   5.742  16.609  1.1287  0.8191  1.0682
18131TIP3   OH275883   6.177   1.174  15.540  0.1581  0.4306 -0.1775
18131TIP3    H175884   6.154   1.116  15.613 -1.6933 -1.2080 -1.9186
18131TIP3    H275885   6.103   1.234  15.532  0.2494  0.4788 -0.7670
18132TIP3   OH275886   2.006   0.544   0.321  0.2684 -0.6221 -0.3945
18132TIP3    H175887   1.959   0.597   0.257  0.2320  0.2689  0.3429
18132TIP3    H275888   2.098   0.570   0.310  0.1138  0.5834  0.8204
18133TIP3   OH275889   5.692   2.151   4.701 -0.2488  0.0946  0.5380
18133TIP3    H175890   5.600   2.148   4.728 -0.0291  0.9028  1.4390
18133TIP3    H275891   5.732   2.215   4.760  0.7036  0.4329 -0.4437
18134TIP3   OH275892   6.711   1.455   3.949  0.1364 -0.2461 -0.3678
18134TIP3    H175893   6.754   1.485   4.029 -0.7590  0.3517 -0.1094
18134TIP3    H275894   6.674   1.370   3.972  1.0165 -0.6979 -0.5494
18135TIP3   OH275895   2.435   3.794  14.778 -0.5776  0.3519 -0.1578
18135TIP3    H175896   2.495   3.820  14.708  1.6574 -0.6356  1.2726
18135TIP3    H275897   2.373   3.735  14.736  0.3502  0.2449 -1.4165
18136TIP3   OH275898   0.656   4.576  10.226  0.1101 -0.0519  0.1969
18136TIP3    H175899   0.615   4.543  10.146 -0.0478  0.9658 -0.1529
18136TIP3    H275900   0.740   4.529  10.230 -0.7169 -1.5739  0.5150
18137TIP3   OH275901   6.668   3.004   3.588  0.1519 -0.4101  0.5423
18137TIP3    H175902   6.619   3.071   3.635  1.1744 -0.4030  1.6639
18137TIP3    H275903   6.726   2.966   3.654  0.6421 -1.3818 -0.4093
18138TIP3   OH275904   5.608   3.978   0.973  0.9290 -0.4622 -0.4688
18138TIP3    H175905   5.596   4.072   0.985 -1.3302  0.0608 -4.7737
18138TIP3    H275906   5.526   3.939   1.002  2.0151 -1.2935  1.7134
18139TIP3   OH275907   4.455   3.487   1.471  0.0907 -0.5247  0.1278
18139TIP3    H175908   4.497   3.571   1.486 -0.1100 -0.4589  0.3346
18139TIP3    H275909   4.451   3.446   1.557 -0.4796 -0.4274  0.1540
18140TIP3   OH275910   6.761   6.610  11.749 -0.1534  0.7267  0.3764
18140TIP3    H175911   6.749   6.534  11.804  0.0770  0.7835  0.5067
18140TIP3    H275912   6.726   6.683  11.800 -0.5606  0.6797  0.1679
18141TIP3   OH275913   3.892   6.239  10.814  0.4507  0.4693 -0.7411
18141TIP3    H175914   3.809   6.223  10.769 -0.6867  2.6891  0.3963
18141TIP3    H275915   3.880   6.202  10.901  1.0466 -0.0566 -0.8738
18142TIP3   OH275916   1.874   1.985   3.780  0.6735 -0.0884  0.4417
18142TIP3    H175917   1.832   2.043   3.843 -0.1993 -0.4677  0.2272
18142TIP3    H275918   1.935   1.933   3.832  2.4460  1.8656  0.4473
18143TIP3   OH275919   5.531   2.039  12.785 -0.2189 -0.4826 -0.4453
18143TIP3    H175920   5.471   1.967  12.763 -0.1051 -0.5069 -0.6820
18143TIP3    H275921   5.505   2.110  12.727 -0.3392 -0.3279 -0.2017
18144TIP3   OH275922   4.189   1.041   4.370  0.3235  0.1260 -0.1211
18144TIP3    H175923   4.114   1.093   4.339  1.0257  0.9995 -0.4037
18144TIP3    H275924   4.169   1.023   4.462 -0.4771 -0.0979 -0.3341
18145TIP3   OH275925   5.761   2.548  16.932 -0.0383 -0.0055 -0.0321
18145TIP3    H175926   5.714   2.476  16.975  1.4740 -1.3707 -0.5672
18145TIP3    H275927   5.758   2.525  16.839  0.5517  0.5661 -0.1966
18146TIP3   OH275928   4.550   2.836   1.442  0.0192 -0.0084 -0.2990
18146TIP3    H175929   4.536   2.783   1.520  0.8623  2.9057  2.0185
18146TIP3    H275930   4.500   2.916   1.458  1.8882  1.5512 -1.7456
18147TIP3   OH275931   4.291   4.811  10.748 -0.1417 -0.2921  0.7035
18147TIP3    H175932   4.199   4.787  10.747 -0.9677  2.4667  0.7285
18147TIP3    H275933   4.326   4.779  10.665 -0.9845 -1.7658  0.8919
18148TIP3   OH275934   6.076   3.173   3.449 -0.1182 -0.1340  0.0301
18148TIP3    H175935   6.121   3.135   3.524 -0.0786 -0.6565 -0.2511
18148TIP3    H275936   6.058   3.099   3.392 -1.8146 -0.0356  0.3773
18149TIP3   OH275937   1.553   4.910   1.938  0.7731  0.1846  0.1256
18149TIP3    H175938   1.597   4.980   1.986 -0.2911  0.1397  1.2449
18149TIP3    H275939   1.505   4.955   1.868 -0.5480  0.7132  1.3203
18150TIP3   OH275940   3.688   1.543  15.654 -0.0070  0.0783 -0.3182
18150TIP3    H175941   3.739   1.624  15.667  0.9809 -0.4919 -0.5104
18150TIP3    H275942   3.752   1.480  15.621 -1.1597 -0.2631 -1.9802
18151TIP3   OH275943   4.375   5.445  17.088 -0.2245  0.4107  0.5927
18151TIP3    H175944   4.371   5.430  17.182  1.9340  0.5081  0.7632
18151TIP3    H275945   4.415   5.532  17.079  1.4611 -0.4037 -0.3574
18152TIP3   OH275946   0.261   2.691  12.985 -0.3410 -0.1647  0.1925
18152TIP3    H175947   0.230   2.704  12.895 -0.0041 -1.1421 -0.0832
18152TIP3    H275948   0.328   2.759  12.996 -1.7493  1.2583  0.4265
18153TIP3   OH275949   6.102   1.353   5.494 -0.0656 -0.0744 -0.2849
18153TIP3    H175950   6.147   1.269   5.480  0.1107  0.0161 -0.2628
18153TIP3    H275951   6.085   1.385   5.405  3.3222  1.7266 -0.4681
18154TIP3   OH275952   0.604   5.452   4.326  0.5791  1.0687  0.4307
18154TIP3    H175953   0.694   5.471   4.352 -0.2598  1.2623  3.5214
18154TIP3    H275954   0.553   5.527   4.355 -0.9928 -0.3542  1.5839
18155TIP3   OH275955   4.624   6.311   0.261  0.0555 -0.0671  0.1166
18155TIP3    H175956   4.714   6.343   0.270  0.7283 -1.9310  0.7005
18155TIP3    H275957   4.588   6.359   0.187  1.2899  1.2526  0.3369
18156TIP3   OH275958   5.188   6.351   5.975  0.1885 -0.2208  0.0210
18156TIP3    H175959   5.144   6.436   5.976  1.6277  0.6122 -1.4723
18156TIP3    H275960   5.120   6.289   6.001 -1.8003  1.0107 -1.8653
18157TIP3   OH275961   4.934   2.347  12.400 -0.2579  0.1410  0.0038
18157TIP3    H175962   4.845   2.383  12.399  0.6083  2.9334  3.3403
18157TIP3    H275963   4.986   2.411  12.352  0.3387 -0.0346  0.4056
18158TIP3   OH275964   4.345   0.580   4.868  0.2264  0.2496  0.3064
18158TIP3    H175965   4.370   0.609   4.780  1.7824  0.0753  0.6501
18158TIP3    H275966   4.347   0.659   4.921 -1.8935  0.5754 -0.0019
18159TIP3   OH275967   0.667   3.231  12.393 -0.1692 -0.5068  0.0235
18159TIP3    H175968   0.594   3.170  12.400  1.6227 -2.8566 -0.2849
18159TIP3    H275969   0.691   3.229  12.300 -1.7599  2.9123 -0.5832
18160TIP3   OH275970   1.474   4.857  12.615 -0.0241 -0.3884 -0.5708
18160TIP3    H175971   1.441   4.878  12.702  0.6656 -0.9455 -0.1645
18160TIP3    H275972   1.514   4.771  12.624  0.1617 -0.4008 -1.4118
18161TIP3   OH275973   3.739   5.912  15.128 -0.4138  0.3845 -0.2661
18161TIP3    H175974   3.778   5.875  15.049  0.3815  0.5130  0.0568
18161TIP3    H275975   3.805   5.898  15.196 -0.9634  0.5460  0.3125
18162TIP3   OH275976   5.987   2.282  12.866  0.4642 -0.2661  0.3903
18162TIP3    H175977   5.901   2.243  12.884  0.9092 -1.7742 -0.5646
18162TIP3    H275978   5.971   2.344  12.795 -0.1530  0.9036  1.5185
18163TIP3   OH275979   5.596   0.222  15.878  0.4052 -0.3009 -0.1774
18163TIP3    H175980   5.616   0.159  15.947 -1.0417  0.3744  0.9153
18163TIP3    H275981   5.528   0.179  15.826 -0.0001  0.0211  0.0812
18164TIP3   OH275982   0.675   2.044   4.696 -0.4130  0.3794 -0.7369
18164TIP3    H175983   0.586   2.035   4.731 -0.0789 -1.1575 -0.2485
18164TIP3    H275984   0.662   2.050   4.601 -0.9818 -0.8369 -0.7476
18165TIP3   OH275985   2.853   3.844   3.123 -0.5396  0.3174 -0.5556
18165TIP3    H175986   2.868   3.920   3.067 -0.5247  0.9072  0.2461
18165TIP3    H275987   2.781   3.869   3.180 -0.3041 -0.1414 -0.0441
18166TIP3   OH275988   1.905   3.341  15.155  0.2328 -0.4978  0.3240
18166TIP3    H175989   1.874   3.432  15.160 -0.1441 -0.6728  1.8477
18166TIP3    H275990   1.958   3.338  15.076 -0.8412  0.7055 -0.4843
18167TIP3   OH275991   6.431   3.383  16.494 -0.4024 -0.0383 -0.2517
18167TIP3    H175992   6.509   3.389  16.549  0.6093  0.5161 -1.7067
18167TIP3    H275993   6.449   3.310  16.435 -0.3838  0.9137 -1.4651
18168TIP3   OH275994   0.225   2.628   2.759 -0.8332  0.1960 -0.4452
18168TIP3    H175995   0.317   2.603   2.756 -1.0768 -0.9961  0.7117
18168TIP3    H275996   0.208   2.647   2.851 -2.6271 -3.5895  0.2166
18169TIP3   OH275997   3.238   0.463  13.631 -0.2171 -0.4097 -0.1435
18169TIP3    H175998   3.303   0.469  13.700  1.0247  1.1883 -1.3924
18169TIP3    H275999   3.281   0.412  13.562 -0.3680  0.4029 -0.8544
18170TIP3   OH276000   2.527   6.547  16.137 -0.1056 -0.4231 -0.3073
18170TIP3    H176001   2.488   6.493  16.069  1.6719 -1.6331 -0.4521
18170TIP3    H276002   2.536   6.634  16.097 -0.6162 -0.6838 -1.0045
18171TIP3   OH276003   0.385   4.930   0.218 -0.0220  0.3152 -0.0143
18171TIP3    H176004   0.475   4.914   0.245  0.3178 -0.3448 -1.4557
18171TIP3    H276005   0.331   4.895   0.289  0.8120 -2.2052 -0.5374
18172TIP3   OH276006   2.201   4.055  14.142 -0.1214  0.4958  0.3304
18172TIP3    H176007   2.282   4.099  14.115  1.3115 -1.8918  0.3915
18172TIP3    H276008   2.133   4.096  14.089  1.1892  2.2783 -0.0690
18173TIP3   OH276009   3.896   6.370  11.647  0.5574  0.2271 -0.1862
18173TIP3    H176010   3.902   6.342  11.556  1.3706 -1.2728  0.2856
18173TIP3    H276011   3.941   6.454  11.650 -2.0207  1.7826 -1.6848
18174TIP3   OH276012   1.731   5.882  11.712 -0.0616  0.4958  0.0386
18174TIP3    H176013   1.681   5.963  11.707  0.7253  1.1482  2.0784
18174TIP3    H276014   1.792   5.895  11.784  1.5167 -1.1455 -0.9191
18175TIP3   OH276015   3.088   6.504  17.182  0.0804 -0.0027  0.0785
18175TIP3    H176016   3.053   6.578  17.131 -0.8043 -0.6426 -0.2818
18175TIP3    H276017   3.061   6.427  17.132  1.6401 -0.5549  0.0499
18176TIP3   OH276018   1.730   0.143  15.011 -0.2778  0.0753 -0.0447
18176TIP3    H176019   1.683   0.079  14.958  0.2270 -1.5160  1.3430
18176TIP3    H276020   1.818   0.146  14.972 -0.8553  1.5313 -1.3738
18177TIP3   OH276021   0.703   4.823  16.111  0.1815 -0.0302  0.5175
18177TIP3    H176022   0.754   4.745  16.092 -1.7778 -1.0770 -0.8496
18177TIP3    H276023   0.733   4.852  16.197  0.7116 -2.4822  1.2192
18178TIP3   OH276024   2.144   4.634  16.915 -0.0895 -0.5946  0.5392
18178TIP3    H176025   2.226   4.636  16.867 -0.3687 -0.9443  0.0342
18178TIP3    H276026   2.166   4.662  17.003  0.3646  0.4601  0.1044
18179TIP3   OH276027   6.417   3.080  16.629 -0.2950 -0.3456 -0.2053
18179TIP3    H176028   6.512   3.091  16.634 -0.1902 -1.6725  0.9954
18179TIP3    H276029   6.404   3.009  16.566 -0.5733  0.5131 -1.1588
18180TIP3   OH276030   3.040   1.747   3.349 -0.0074  0.2242 -0.2671
18180TIP3    H176031   2.974   1.816   3.351  1.2334  1.4544 -0.4215
18180TIP3    H276032   3.107   1.776   3.411  1.9466  0.6617 -2.4488
18181TIP3   OH276033   0.466   1.147  11.374 -0.8290  0.1527  0.0254
18181TIP3    H176034   0.535   1.184  11.320 -0.8197  1.5366  0.9400
18181TIP3    H276035   0.512   1.094  11.439 -0.8564 -1.7740 -1.4364
18182TIP3   OH276036   6.694   5.927  15.030 -0.2705 -0.2339 -0.2633
18182TIP3    H176037   6.676   6.001  15.089 -0.0483 -0.5189  0.1651
18182TIP3    H276038   6.608   5.889  15.013 -0.4688  0.5175 -1.0175
18183TIP3   OH276039   6.606   6.324   3.739  0.5185  0.5272 -0.2327
18183TIP3    H176040   6.699   6.302   3.741  0.5866  0.8379  0.0388
18183TIP3    H276041   6.601   6.404   3.686  0.5659  1.2545  0.8274
18184TIP3   OH276042   1.960   5.425   3.876  0.2528  0.5079 -0.5609
18184TIP3    H176043   1.888   5.480   3.846  0.0678  0.4843 -0.1775
18184TIP3    H276044   1.986   5.375   3.799 -0.2888  0.3594 -0.6549
18185TIP3   OH276045   5.199   5.529  16.163  0.5504  0.4956  0.1154
18185TIP3    H176046   5.204   5.613  16.208 -0.5026  0.6123  0.0238
18185TIP3    H276047   5.149   5.472  16.222 -0.5363  0.5491 -0.7260
18186TIP3   OH276048   2.044   2.419  12.749 -0.5352 -0.0928 -0.9946
18186TIP3    H176049   2.101   2.347  12.776  0.1066 -0.3727 -2.8973
18186TIP3    H276050   2.080   2.496  12.794  0.2047 -0.5815 -0.7169
18187TIP3   OH276051   3.672   1.769  16.903 -0.2663  0.3952  0.0892
18187TIP3    H176052   3.611   1.840  16.921 -0.9754  0.5589 -2.5494
18187TIP3    H276053   3.729   1.765  16.980 -1.4670  2.4801  1.1465
18188TIP3   OH276054   1.992   1.823  12.306 -0.1860 -0.6244  0.3762
18188TIP3    H176055   1.931   1.786  12.371  0.3956 -1.0732  0.6725
18188TIP3    H276056   1.936   1.851  12.234 -0.7424 -1.0981  0.6167
18189TIP3   OH276057   1.193   2.307  16.036  0.5270  0.3941  0.3455
18189TIP3    H176058   1.262   2.295  15.971  0.1984 -1.3261  0.2738
18189TIP3    H276059   1.115   2.330  15.985  0.9604  2.1469  0.4132
18190TIP3   OH276060   1.144   5.141   1.109 -0.0133 -0.1057  0.5461
18190TIP3    H176061   1.084   5.209   1.138  0.8231  1.1686 -0.6266
18190TIP3    H276062   1.096   5.094   1.041  0.7003  1.6769 -1.2483
18191TIP3   OH276063   6.018   3.621  16.149 -0.0468  0.1019 -0.0758
18191TIP3    H176064   5.932   3.589  16.121  0.2004  0.0117 -0.7333
18191TIP3    H276065   6.078   3.551  16.124  0.1278 -0.1784  1.0740
18192TIP3   OH276066   6.139   1.938  13.084 -0.0877 -0.1527 -0.8464
18192TIP3    H176067   6.207   1.874  13.107  1.2620  1.2610 -0.7497
18192TIP3    H276068   6.159   2.015  13.137 -0.9083  0.8073 -1.8803
18193TIP3   OH276069   3.697   0.434   0.552  0.2030  0.5576 -0.2643
18193TIP3    H176070   3.624   0.383   0.516  1.6555 -1.3266 -0.7214
18193TIP3    H276071   3.681   0.436   0.647 -0.2585 -0.1367 -0.3246
18194TIP3   OH276072   3.373   1.187  16.600  0.0094  0.2481  0.0853
18194TIP3    H176073   3.345   1.114  16.544  1.2013  0.3371 -0.6825
18194TIP3    H276074   3.397   1.145  16.683 -1.1172  0.0198  0.3046
18195TIP3   OH276075   1.272   0.232   0.072 -0.7239 -0.3621  1.0019
18195TIP3    H176076   1.202   0.169   0.082 -1.0787 -0.4594 -1.5206
18195TIP3    H276077   1.345   0.182   0.036 -0.6462  0.4035  0.0230
18196TIP3   OH276078   2.007   3.504   4.167 -0.1247  0.1657 -0.3948
18196TIP3    H176079   2.099   3.512   4.144 -0.2136  0.3564 -0.6846
18196TIP3    H276080   1.985   3.589   4.205  0.3157 -0.5008  1.4639
18197TIP3   OH276081   6.507   4.741   0.589 -0.1206 -0.0504 -0.1150
18197TIP3    H176082   6.503   4.821   0.536 -3.3237 -0.4617 -0.6907
18197TIP3    H276083   6.462   4.675   0.537  2.0788 -2.1999  0.5292
18198TIP3   OH276084   4.590   6.457   6.356 -0.1818 -0.5352  0.0950
18198TIP3    H176085   4.538   6.493   6.283  0.1860 -0.1237  0.0328
18198TIP3    H276086   4.531   6.394   6.398  0.0326 -1.7534 -1.3482
18199TIP3   OH276087   0.446   1.801  13.990  0.1409  0.1828  0.0503
18199TIP3    H176088   0.420   1.741  13.920  1.8390  0.9880 -1.3663
18199TIP3    H276089   0.424   1.888  13.956  2.2205  0.6956 -0.1584
18200TIP3   OH276090   4.675   1.426  13.900 -0.1373  0.1194 -0.0628
18200TIP3    H176091   4.640   1.353  13.849 -1.4701  1.4559 -1.1507
18200TIP3    H276092   4.605   1.492  13.899  0.5019  0.8991  2.0139
18201TIP3   OH276093   4.581   4.069   3.913  0.5219  0.2337  0.4149
18201TIP3    H176094   4.548   4.108   3.832 -1.4481 -1.1735  0.4712
18201TIP3    H276095   4.503   4.051   3.965  1.3768 -2.6686  0.8596
18202TIP3   OH276096   5.289   1.205  11.797 -0.2212  0.2279  0.5387
18202TIP3    H176097   5.223   1.158  11.747  0.7253 -3.8011  2.5913
18202TIP3    H276098   5.371   1.189  11.751 -0.0236  0.9293  0.6331
18203TIP3   OH276099   3.893   3.912  16.576  0.1573  0.0202  0.1375
18203TIP3    H176100   3.832   3.859  16.525  0.4645 -0.6255  0.4225
18203TIP3    H276101   3.911   3.859  16.654 -0.7198  1.2127  1.1913
18204TIP3   OH276102   2.534   2.857   4.104 -0.1782  0.3656 -0.1214
18204TIP3    H176103   2.600   2.809   4.153  0.2350  0.8520 -0.2030
18204TIP3    H276104   2.455   2.803   4.112  0.6817 -1.2546 -1.6476
18205TIP3   OH276105   3.791   5.547  10.841 -0.1862  0.7242 -0.1548
18205TIP3    H176106   3.773   5.628  10.793  0.6982  2.3125  2.0053
18205TIP3    H276107   3.886   5.540  10.842 -0.2654 -0.7538 -0.9007
18206TIP3   OH276108   1.101   5.799  11.278 -0.1367 -0.2600 -0.2685
18206TIP3    H176109   1.047   5.851  11.337  0.3012 -1.2858  1.1040
18206TIP3    H276110   1.142   5.863  11.220  0.9673  1.0628  1.8327
18207TIP3   OH276111   6.140   1.342   2.300  0.2036 -0.0529  0.2067
18207TIP3    H176112   6.115   1.267   2.354 -0.9781 -0.0049 -0.2550
18207TIP3    H276113   6.161   1.304   2.214  0.0525  0.0977  0.1041
18208TIP3   OH276114   1.900   3.795  16.890  0.1778 -0.4618 -0.2100
18208TIP3    H176115   1.857   3.763  16.969  0.0908 -0.6106 -0.3176
18208TIP3    H276116   1.912   3.718  16.836 -0.5527 -0.2379 -0.7116
18209TIP3   OH276117   5.740   3.530   2.858  0.2612 -0.4719 -0.1317
18209TIP3    H176118   5.660   3.572   2.825  0.5063 -1.0037 -1.4575
18209TIP3    H276119   5.748   3.562   2.948 -0.7919  0.5244 -0.3631
18210TIP3   OH276120   2.493   2.726   5.910 -0.5786 -0.0026  0.3894
18210TIP3    H176121   2.588   2.726   5.922 -0.0076 -1.0749 -2.9782
18210TIP3    H276122   2.462   2.652   5.963  0.9004 -1.3939 -0.5815
18211TIP3   OH276123   5.877   1.424   4.305 -0.3098  0.3866  0.2765
18211TIP3    H176124   5.923   1.463   4.231  0.6266  0.0657  0.6665
18211TIP3    H276125   5.866   1.495   4.367  1.2192  0.1137  0.9045
18212TIP3   OH276126   6.311   5.207  15.944 -0.7772 -0.0723 -0.0192
18212TIP3    H176127   6.341   5.295  15.925 -2.1097  0.8044  1.6050
18212TIP3    H276128   6.378   5.149  15.908 -0.0312  1.5794 -1.3747
18213TIP3   OH276129   4.095   6.152   0.528 -0.7006  0.4089  0.7714
18213TIP3    H176130   4.088   6.195   0.443  0.7887  0.3651  0.6000
18213TIP3    H276131   4.145   6.213   0.582 -0.8164  0.0199  1.3250
18214TIP3   OH276132   0.908   6.308   2.173 -0.2485 -0.2986  0.2362
18214TIP3    H176133   0.932   6.364   2.247 -3.2964  0.0177  1.1269
18214TIP3    H276134   0.949   6.224   2.192 -0.1231  0.0849  1.7990
18215TIP3   OH276135   4.678   3.700  12.933  0.2692 -0.2167 -0.1261
18215TIP3    H176136   4.673   3.744  13.017  0.4148  0.3923 -0.4313
18215TIP3    H276137   4.614   3.629  12.939  1.0450 -0.8563  0.8839
18216TIP3   OH276138   4.644   1.857  14.033  0.5224 -0.1084  0.0857
18216TIP3    H176139   4.661   1.801  14.109 -1.5755 -1.6208 -0.4751
18216TIP3    H276140   4.728   1.899  14.015  2.2720 -3.1455  0.4734
18217TIP3   OH276141   0.101   5.484  13.930 -0.0857  0.1551 -0.0338
18217TIP3    H176142   0.063   5.572  13.932 -0.9557 -0.1368  3.6606
18217TIP3    H276143   0.028   5.428  13.901 -0.5076  0.3392  0.6414
18218TIP3   OH276144   3.213   1.068   3.470 -0.4198 -0.0022  0.1986
18218TIP3    H176145   3.143   1.053   3.407  1.0822 -0.2577 -1.5038
18218TIP3    H276146   3.209   1.161   3.489 -0.5737  0.1797 -0.6978
18219TIP3   OH276147   4.733   1.067  12.255  0.6438 -0.2383 -0.3418
18219TIP3    H176148   4.767   1.128  12.189  0.0259 -0.6829 -1.0923
18219TIP3    H276149   4.686   1.123  12.316 -0.0750  0.0383 -1.1263
18220TIP3   OH276150   4.590   4.203   0.925  0.0056 -0.1393 -0.0607
18220TIP3    H176151   4.591   4.212   0.830  0.6352 -2.1041 -0.2845
18220TIP3    H276152   4.591   4.109   0.941  2.2498  0.1015  1.8910
18221TIP3   OH276153   5.247   3.311   5.295  0.2020  0.0595  0.0450
18221TIP3    H176154   5.208   3.376   5.354 -0.6072 -0.0629 -0.3483
18221TIP3    H276155   5.248   3.353   5.209  2.1761  0.5716  0.2668
18222TIP3   OH276156   4.920   1.049   4.423  0.0682  0.0996  0.2469
18222TIP3    H176157   4.937   1.122   4.363  1.4688 -0.0195  0.4535
18222TIP3    H276158   4.826   1.035   4.418  0.2811 -0.8796 -3.0895
18223TIP3   OH276159   1.628   6.038  12.073 -0.4390 -0.1328 -0.2529
18223TIP3    H176160   1.655   6.071  11.987 -1.6336  0.6144 -0.3676
18223TIP3    H276161   1.651   5.945  12.072  2.7179  0.5234 -0.0634
18224TIP3   OH276162   3.705   3.270   2.984  0.5359 -0.1943  0.6036
18224TIP3    H176163   3.795   3.241   2.974 -0.6456 -3.4724 -2.4341
18224TIP3    H276164   3.664   3.203   3.038 -0.0189  1.6683  2.6222
18225TIP3   OH276165   5.941   2.483  13.048  0.1622 -0.8175  0.1575
18225TIP3    H176166   5.937   2.403  12.995 -0.4859  0.4077 -1.7796
18225TIP3    H276167   6.034   2.496  13.065  0.5166 -0.7930 -1.5527
18226TIP3   OH276168   2.926   4.587  15.921  0.2699  0.0199 -0.2403
18226TIP3    H176169   2.999   4.649  15.922 -0.7033  1.2525  2.1943
18226TIP3    H276170   2.888   4.596  15.833 -1.3041  4.8513  0.6072
18227TIP3   OH276171   5.809   2.472   3.634  0.7887 -0.4979  0.7371
18227TIP3    H176172   5.786   2.551   3.682  2.3550  0.2540  0.3032
18227TIP3    H276173   5.861   2.502   3.560  1.0777 -1.8947  0.3383
18228TIP3   OH276174   0.265   3.823  14.417  0.0988 -0.1299  0.3577
18228TIP3    H176175   0.333   3.881  14.451  0.3967 -0.6416  0.6504
18228TIP3    H276176   0.184   3.858  14.452  0.0652  1.2105 -0.9776
18229TIP3   OH276177   3.410   5.106  14.847  1.0131  0.5293  0.3426
18229TIP3    H176178   3.425   5.141  14.935  0.1352  0.5189  0.5066
18229TIP3    H276179   3.338   5.158  14.812 -0.5734 -1.2704  0.7162
18230TIP3   OH276180   2.492   4.023   5.525  0.2509  0.4338 -0.5901
18230TIP3    H176181   2.455   4.108   5.499 -0.4394  0.2590 -0.1995
18230TIP3    H276182   2.580   4.044   5.555  0.2254  0.9609 -0.8655
18231TIP3   OH276183   5.953   5.517   3.292 -0.6011  0.7720 -0.5641
18231TIP3    H176184   5.998   5.542   3.211 -0.9379  0.0328 -0.9930
18231TIP3    H276185   5.891   5.449   3.265  0.8063 -1.1076  0.6480
18232TIP3   OH276186   2.608   4.331   3.931  0.1791 -0.3209 -0.0993
18232TIP3    H176187   2.536   4.367   3.878  0.5019  1.1001  0.3758
18232TIP3    H276188   2.671   4.298   3.868 -0.5147 -0.8139 -0.5403
18233TIP3   OH276189   1.954   3.146  16.077 -0.2191  0.1008  0.2987
18233TIP3    H176190   2.050   3.156  16.078 -0.1564  0.4154 -2.2782
18233TIP3    H276191   1.940   3.059  16.038 -0.9782  0.4359 -0.1938
18234TIP3   OH276192   4.379   3.581  14.421 -0.7309  0.0453  0.4115
18234TIP3    H176193   4.300   3.537  14.390  0.8085 -1.3902 -1.8448
18234TIP3    H276194   4.357   3.614  14.508 -2.9343 -2.7217  1.0314
18235TIP3   OH276195   5.100   5.657  12.953 -0.0171 -0.3695  0.1382
18235TIP3    H176196   5.104   5.617  12.867  0.5820  1.5874 -0.7909
18235TIP3    H276197   5.090   5.751  12.936 -2.8476 -0.1579  2.1982
18236TIP3   OH276198   5.288   5.040   4.554 -0.3953 -0.3733 -0.0281
18236TIP3    H176199   5.194   5.022   4.559 -0.4763 -0.4589 -1.3774
18236TIP3    H276200   5.329   4.964   4.595 -0.8982 -0.6944 -0.1099
18237TIP3   OH276201   0.681   2.547  13.575  0.3918  0.0677  0.0621
18237TIP3    H176202   0.651   2.638  13.564  0.1890  0.0528  0.4754
18237TIP3    H276203   0.676   2.510  13.487 -1.5323 -0.1570  0.2276
18238TIP3   OH276204   1.017   0.798  15.428  0.2753  0.1999  0.7090
18238TIP3    H176205   1.058   0.879  15.460  2.5628 -0.6859  0.1904
18238TIP3    H276206   0.930   0.798  15.469  0.6277  2.3497  1.6034
18239TIP3   OH276207   0.508   6.484  16.534  0.1896 -0.3338 -0.0027
18239TIP3    H176208   0.466   6.497  16.449  0.3936  0.9317  0.0675
18239TIP3    H276209   0.437   6.496  16.597  0.4459  0.8284  0.0789
18240TIP3   OH276210   3.279   0.936   3.705  0.6132 -0.0156 -0.2933
18240TIP3    H176211   3.277   0.999   3.633  1.2887  1.4012  0.8834
18240TIP3    H276212   3.358   0.957   3.754 -0.2142 -0.4096  1.3090
18241TIP3   OH276213   0.262   3.737  11.066  0.1833  0.0822 -0.6289
18241TIP3    H176214   0.188   3.735  11.005 -0.0314 -0.2361 -0.3594
18241TIP3    H276215   0.339   3.731  11.009 -0.0400 -1.4085 -0.8237
18242TIP3   OH276216   5.143   3.212   0.443 -0.1428  0.1155 -0.5973
18242TIP3    H176217   5.101   3.297   0.430  0.8554  0.7936  0.3439
18242TIP3    H276218   5.237   3.232   0.440  0.1181 -0.7355  0.8177
18243TIP3   OH276219   6.217   6.019   5.892 -0.1610  0.1411  0.0473
18243TIP3    H176220   6.191   5.954   5.957  0.2497  0.5053  0.5877
18243TIP3    H276221   6.240   6.096   5.944  0.5829  0.2995 -0.4971
18244TIP3   OH276222   3.223   2.024   3.032  0.0367  0.5581  0.1645
18244TIP3    H176223   3.198   2.111   3.000 -2.5855 -0.5020 -0.9385
18244TIP3    H276224   3.241   1.973   2.954 -1.2527 -0.6434  0.6159
18245TIP3   OH276225   1.780   6.120   2.464 -0.0578 -0.3222 -0.1663
18245TIP3    H176226   1.827   6.198   2.494 -1.1467  2.3013 -4.4353
18245TIP3    H276227   1.819   6.098   2.380 -2.3999 -1.9069 -0.9722
18246TIP3   OH276228   0.380   6.418  13.796 -0.0526 -0.0865  0.2006
18246TIP3    H176229   0.433   6.426  13.716 -0.3629  1.3979  0.1053
18246TIP3    H276230   0.387   6.505  13.837 -1.2954 -0.3039  0.8984
18247TIP3   OH276231   3.826   6.282   3.051  0.2587 -0.0640 -0.6653
18247TIP3    H176232   3.861   6.233   2.976  2.0719 -0.7792  0.5768
18247TIP3    H276233   3.862   6.237   3.128 -0.1639  1.6670  0.5996
18248TIP3   OH276234   0.321   3.649   0.163  0.3313 -0.1102  0.2271
18248TIP3    H176235   0.314   3.645   0.067 -0.4990 -0.3652  0.2921
18248TIP3    H276236   0.371   3.571   0.187 -0.5157 -0.7102  0.0886
18249TIP3   OH276237   3.400   2.705  14.631 -0.5822 -0.7884  0.6026
18249TIP3    H176238   3.425   2.793  14.600 -0.0659 -0.4961  1.8038
18249TIP3    H276239   3.310   2.694  14.599 -0.6732  0.1897  0.4662
18250TIP3   OH276240   0.546   2.038   0.551  0.3902 -0.3567  0.5586
18250TIP3    H176241   0.572   2.025   0.643  0.4592 -1.2005  0.4278
18250TIP3    H276242   0.451   2.038   0.553  0.3913 -0.3520  0.6317
18251TIP3   OH276243   0.059   1.035  15.676  0.0707  0.1754 -0.3550
18251TIP3    H176244   0.038   1.052  15.768  0.5132 -0.3634 -0.1442
18251TIP3    H276245   0.139   1.084  15.660 -0.9647  1.7151 -0.9748
18252TIP3   OH276246   1.207   3.702  14.139  0.0707  0.5391 -0.0046
18252TIP3    H176247   1.261   3.771  14.100  1.1317 -0.7242 -0.8930
18252TIP3    H276248   1.133   3.692  14.079  0.2107  0.5279 -0.1766
18253TIP3   OH276249   0.703   4.981  17.259  0.6914 -0.7048  0.0652
18253TIP3    H176250   0.666   4.918  17.197  0.0823 -0.4280  0.1321
18253TIP3    H276251   0.797   4.980  17.241  0.9832 -3.0400  1.3693
18254TIP3   OH276252   2.359   3.437  13.571 -0.4486  0.7684 -0.2457
18254TIP3    H176253   2.267   3.457  13.589 -0.2598  2.9277 -1.4003
18254TIP3    H276254   2.398   3.521  13.547  2.2666  0.2594  1.8147
18255TIP3   OH276255   5.629   1.611  11.783  0.4475  0.3933  0.8319
18255TIP3    H176256   5.682   1.539  11.818  0.2789 -0.6908 -1.0101
18255TIP3    H276257   5.686   1.688  11.789  0.2637  0.4144  3.7962
18256TIP3   OH276258   3.587   5.271   1.869 -1.0456  0.1632 -0.2213
18256TIP3    H176259   3.496   5.290   1.847 -1.1014 -0.0550 -0.1784
18256TIP3    H276260   3.595   5.176   1.860 -0.6606  0.2494 -0.8317
18257TIP3   OH276261   2.173   3.140   1.768  0.1653 -0.5561  0.0490
18257TIP3    H176262   2.188   3.201   1.840  1.9240 -1.7829  0.8003
18257TIP3    H276263   2.210   3.057   1.799 -1.4185 -1.8263 -1.2375
18258TIP3   OH276264   3.728   2.951   2.057 -0.5680  0.0395 -0.3709
18258TIP3    H176265   3.776   2.970   2.137  0.6348 -3.8630  0.0397
18258TIP3    H276266   3.637   2.940   2.084 -0.2719 -0.6150  0.3938
18259TIP3   OH276267   4.529   5.600  15.050 -0.4714 -0.3143 -0.4059
18259TIP3    H176268   4.577   5.590  14.968 -1.0027 -0.7419 -0.6735
18259TIP3    H276269   4.502   5.692  15.051  1.0295  0.1545  0.1453
18260TIP3   OH276270   3.052   2.227  16.498  0.5300 -0.5836  0.4491
18260TIP3    H176271   3.107   2.157  16.531  0.0559 -0.6635  1.0862
18260TIP3    H276272   3.056   2.295  16.565  1.1606  0.0961 -0.2668
18261TIP3   OH276273   1.526   0.235   4.643  0.4519  0.1735  0.1478
18261TIP3    H176274   1.567   0.158   4.601 -0.0510  1.1532 -2.2958
18261TIP3    H276275   1.598   0.297   4.654  0.5094  0.0688  0.3655
18262TIP3   OH276276   5.352   3.364   3.348 -0.3100  0.1397 -0.0623
18262TIP3    H176277   5.403   3.370   3.268  1.3704 -2.2563  0.7182
18262TIP3    H276278   5.402   3.414   3.412 -0.5889  0.3611 -0.0142
18263TIP3   OH276279   4.717   4.222   4.132  0.1493  0.8011  0.2250
18263TIP3    H176280   4.642   4.271   4.167  0.5310  0.4872  1.5585
18263TIP3    H276281   4.679   4.160   4.070 -0.7880  0.1944  1.3726
18264TIP3   OH276282   2.058   1.487   5.369  0.4603 -0.3682  0.0246
18264TIP3    H176283   2.142   1.529   5.389 -0.0532  0.4891  0.4235
18264TIP3    H276284   2.000   1.559   5.346  0.3211 -1.1039 -2.1160
18265TIP3   OH276285   5.300   6.790  13.308  0.0715 -0.8672  0.3249
18265TIP3    H176286   5.348   6.709  13.290  1.9485  0.2991 -0.2303
18265TIP3    H276287   5.344   6.828  13.384 -1.5072 -0.8860  1.2909
18266TIP3   OH276288   2.893   3.456  13.256 -0.8564  0.3187 -0.2276
18266TIP3    H176289   2.879   3.404  13.335 -1.0940  1.1197  0.2624
18266TIP3    H276290   2.979   3.497  13.269 -1.1396  0.8916 -0.1290
18267TIP3   OH276291   1.637   4.030  15.345 -0.2690 -0.0540 -0.8254
18267TIP3    H176292   1.606   4.060  15.260 -1.6102 -0.3566 -0.4560
18267TIP3    H276293   1.578   4.069  15.408 -0.3148 -1.1867 -0.1480
18268TIP3   OH276294   1.600   1.236  16.339 -0.1050  0.0883 -0.2385
18268TIP3    H176295   1.524   1.199  16.295  0.0261  0.4871 -0.8082
18268TIP3    H276296   1.656   1.269  16.268  1.0214 -0.9927  0.1123
18269TIP3   OH276297   1.916   6.581   5.037 -0.5595 -0.0525 -0.3109
18269TIP3    H176298   1.975   6.588   5.112 -0.6030 -1.2396 -0.1348
18269TIP3    H276299   1.961   6.625   4.966 -1.1019  2.2991  0.7124
18270TIP3   OH276300   2.146   6.194  11.823  0.5270  0.2007  0.3248
18270TIP3    H176301   2.165   6.287  11.813  1.6767 -0.0162  0.2682
18270TIP3    H276302   2.078   6.190  11.890 -0.6214  1.1527 -0.7523
18271TIP3   OH276303   1.861   4.801  13.074  0.1476 -0.2113  0.0234
18271TIP3    H176304   1.931   4.764  13.020  0.0632 -0.5820  0.1614
18271TIP3    H276305   1.793   4.733  13.075 -0.3170  0.2429 -0.3074
18272TIP3   OH276306   6.110   0.722  13.380 -0.0594  0.5478 -0.0561
18272TIP3    H176307   6.133   0.647  13.325  3.7020  1.3849  0.1267
18272TIP3    H276308   6.081   0.789  13.318 -1.2558 -0.2612 -0.4143
18273TIP3   OH276309   0.393   1.972  12.236 -0.2888 -0.9397  0.0273
18273TIP3    H176310   0.426   2.015  12.315  0.2044 -0.2637 -0.5389
18273TIP3    H276311   0.471   1.955  12.184 -0.7692  0.3977 -1.1909
18274TIP3   OH276312   3.427   2.480  10.886  0.6258 -0.2562 -0.3366
18274TIP3    H176313   3.438   2.404  10.829  1.0488  0.7665 -1.6797
18274TIP3    H276314   3.337   2.473  10.919  0.8290 -1.5917 -0.0374
18275TIP3   OH276315   2.319   5.236   0.990 -0.2086 -0.3254  0.2499
18275TIP3    H176316   2.388   5.284   0.945 -0.8703 -0.5255 -1.0185
18275TIP3    H276317   2.363   5.161   1.029  0.8475  1.2487  2.2669
18276TIP3   OH276318   3.893   6.142  13.474 -0.1884  0.3789  0.0468
18276TIP3    H176319   3.819   6.081  13.471 -0.4116  0.6776 -0.7085
18276TIP3    H276320   3.909   6.156  13.567  1.3811 -2.6700  0.3960
18277TIP3   OH276321   4.753   6.749  14.064  0.5315 -0.2644 -0.4838
18277TIP3    H176322   4.833   6.718  14.022  0.9169  1.3245 -0.9814
18277TIP3    H276323   4.780   6.772  14.153  0.8456  1.0522 -0.8983
18278TIP3   OH276324   4.484   6.611   0.334  0.5940  0.6003  0.3023
18278TIP3    H176325   4.421   6.631   0.266 -0.4888 -1.1774  0.7143
18278TIP3    H276326   4.482   6.687   0.392 -1.1449  0.6178  0.2700
18279TIP3   OH276327   2.091   6.204  14.365  0.0751  0.0070  0.5314
18279TIP3    H176328   2.057   6.264  14.431  1.6275  0.6792  0.7609
18279TIP3    H276329   2.139   6.138  14.414  0.7410  0.1777  0.1244
18280TIP3   OH276330   1.197   4.799  15.151 -0.0536 -0.3923 -0.4472
18280TIP3    H176331   1.128   4.737  15.125 -1.1274  0.2288  0.8045
18280TIP3    H276332   1.204   4.788  15.246  0.3932  0.7423 -0.3458
18281TIP3   OH276333   3.139   5.265   1.194  0.1457 -0.1924 -0.4270
18281TIP3    H176334   3.161   5.318   1.270 -1.6686  0.8834 -0.6132
18281TIP3    H276335   3.078   5.200   1.227  0.1838 -0.3985 -0.7618
18282TIP3   OH276336   3.469   2.513   4.227 -0.1671  0.2456  0.2105
18282TIP3    H176337   3.517   2.573   4.284 -1.5132  0.0044  1.6539
18282TIP3    H276338   3.488   2.543   4.138  2.1977  0.4856  0.7215
18283TIP3   OH276339   2.328   2.557   4.831  0.3559  0.0291  0.1138
18283TIP3    H176340   2.421   2.538   4.815 -0.0104 -0.9557 -0.9387
18283TIP3    H276341   2.288   2.472   4.845 -0.4532  0.4279  0.2713
18284TIP3   OH276342   2.460   0.068   2.970 -0.4349  0.5904  0.3103
18284TIP3    H176343   2.468   0.156   3.008  1.8738 -0.3859  2.3591
18284TIP3    H276344   2.485   0.079   2.879  0.1608  2.0066  0.6164
18285TIP3   OH276345   2.704   2.605  16.170 -0.0371 -0.4906  0.3140
18285TIP3    H176346   2.784   2.567  16.134  0.3910  0.4812  0.2159
18285TIP3    H276347   2.645   2.530  16.180  0.3017 -0.9934 -1.1207
18286TIP3   OH276348   2.759   3.419   3.778  0.3614 -0.2176 -0.4055
18286TIP3    H176349   2.693   3.379   3.722  1.5373 -0.5018 -1.6532
18286TIP3    H276350   2.782   3.501   3.733  1.3451 -0.4646 -0.3906
18287TIP3   OH276351   0.239   6.262   2.683  0.0359  0.5737 -0.0031
18287TIP3    H176352   0.318   6.283   2.733 -0.4243  0.4310  0.8080
18287TIP3    H276353   0.271   6.215   2.606  0.8375  1.5977 -0.3216
18288TIP3   OH276354   0.351   0.558  10.898 -0.4865 -0.4213  0.2609
18288TIP3    H176355   0.300   0.631  10.864  0.5371 -0.0167 -0.4645
18288TIP3    H276356   0.422   0.547  10.834 -0.4135 -1.8042  0.5616
18289TIP3   OH276357   1.686   1.452  11.864  0.4378  0.3194  0.7342
18289TIP3    H176358   1.770   1.462  11.909  0.4332 -0.9284  1.0565
18289TIP3    H276359   1.710   1.440  11.772  0.5149  1.5130  0.5800
18290TIP3   OH276360   0.814   4.824   6.438 -0.2666 -0.5822  0.5287
18290TIP3    H176361   0.789   4.776   6.360  1.4936 -2.1912  0.8835
18290TIP3    H276362   0.903   4.793   6.459  0.9859  2.7532  0.8454
18291TIP3   OH276363   6.681   6.183  14.100 -0.4759 -0.2690  0.7411
18291TIP3    H176364   6.737   6.256  14.075 -2.1922  0.7733 -0.2896
18291TIP3    H276365   6.694   6.117  14.031  0.5838 -0.6848  1.3214
18292TIP3   OH276366   5.349   3.539   2.653  0.6237 -0.2739 -0.0445
18292TIP3    H176367   5.369   3.565   2.563 -3.3996  0.3585 -0.9807
18292TIP3    H276368   5.307   3.453   2.645 -2.0366  0.8336  0.7619
18293TIP3   OH276369   5.474   3.528   1.770  0.3360  0.6590 -0.3250
18293TIP3    H176370   5.522   3.492   1.696  0.8678 -0.7962  0.6914
18293TIP3    H276371   5.539   3.538   1.839  0.0700  2.9735 -0.3032
18294TIP3   OH276372   5.739   2.815   4.383  0.1672 -0.0581 -0.0348
18294TIP3    H176373   5.765   2.904   4.405  2.5396 -1.0318  1.5662
18294TIP3    H276374   5.678   2.825   4.310  0.1776  2.8498  0.2284
18295TIP3   OH276375   5.292   1.487  16.317 -0.0473 -0.3494  0.2500
18295TIP3    H176376   5.219   1.548  16.312 -0.4269 -0.7023  1.3517
18295TIP3    H276377   5.292   1.443  16.231  0.7388  1.7140 -0.8684
18296TIP3   OH276378   4.816   6.010  12.893 -0.1177 -0.2794  0.6174
18296TIP3    H176379   4.791   6.079  12.831 -2.4611 -0.4115  1.3372
18296TIP3    H276380   4.821   6.054  12.978  1.7977 -0.3689  0.6095
18297TIP3   OH276381   2.056   2.588  12.504  0.5162  0.6165  0.4599
18297TIP3    H176382   2.061   2.511  12.561 -0.4134  0.6829  0.6442
18297TIP3    H276383   2.016   2.656  12.558 -0.7674  0.5591 -0.3835
18298TIP3   OH276384   5.781   5.068  13.873  0.1548 -0.2803 -0.5251
18298TIP3    H176385   5.707   5.104  13.922  1.0732  1.7939 -0.5327
18298TIP3    H276386   5.826   5.011  13.935 -1.5940 -1.8669 -0.6313
18299TIP3   OH276387   6.063   2.964   6.265 -0.6050  0.0208  0.3263
18299TIP3    H176388   6.154   2.964   6.238 -0.6218  0.6305  0.2483
18299TIP3    H276389   6.049   3.051   6.302 -0.7397 -0.5911  1.7816
18300TIP3   OH276390   0.761   0.413  11.706 -0.1811  0.2123  0.1790
18300TIP3    H176391   0.759   0.467  11.627 -1.2460 -0.9696 -0.6534
18300TIP3    H276392   0.847   0.372  11.705 -0.8107 -1.2081 -1.4216
18301TIP3   OH276393   1.581   2.892  14.103 -0.0252  0.5754  0.4994
18301TIP3    H176394   1.632   2.812  14.113 -0.5237  0.4851  2.7216
18301TIP3    H276395   1.490   2.864  14.112 -0.2809  1.2461  0.1233
18302TIP3   OH276396   4.506   1.567   1.635 -0.3459 -0.0859  0.0857
18302TIP3    H176397   4.413   1.586   1.622 -1.0843 -3.1524  0.2554
18302TIP3    H276398   4.508   1.501   1.703  1.9093 -0.6600 -0.4520
18303TIP3   OH276399   1.297   0.366  16.054 -1.1297  0.7145  0.3410
18303TIP3    H176400   1.233   0.314  16.006  0.3685  0.1182 -1.0898
18303TIP3    H276401   1.351   0.302  16.100 -0.5540  1.1196  0.2359
18304TIP3   OH276402   6.133   0.301   0.445 -0.1741  0.1298 -0.2731
18304TIP3    H176403   6.085   0.272   0.367 -1.0133  0.3015  0.1730
18304TIP3    H276404   6.074   0.362   0.489 -0.5237 -1.4372  1.5433
18305TIP3   OH276405   4.869   2.026  13.955  0.3468  0.2088  0.0922
18305TIP3    H176406   4.885   2.119  13.941 -0.2863  0.4690  1.0160
18305TIP3    H276407   4.956   1.986  13.961  0.6921  1.1697  2.4023
18306TIP3   OH276408   6.670   6.643   2.650  0.3060 -0.0521  0.0722
18306TIP3    H176409   6.608   6.582   2.610  1.7865 -0.6185 -1.5088
18306TIP3    H276410   6.647   6.728   2.615 -0.6182  0.0266  0.8372
18307TIP3   OH276411   1.779   4.262  16.805  0.6793 -0.0298 -0.0059
18307TIP3    H176412   1.713   4.196  16.783  1.3489 -0.3301 -1.1985
18307TIP3    H276413   1.790   4.255  16.900  0.0778 -0.9800  0.0038
18308TIP3   OH276414   5.966   3.415   5.498 -0.4515 -0.4469  0.2342
18308TIP3    H176415   5.994   3.324   5.489 -0.3046 -0.2444 -1.8224
18308TIP3    H276416   6.043   3.460   5.532  0.1161 -0.7696 -0.5863
18309TIP3   OH276417   5.425   3.786  12.617 -0.2761  0.0205  0.6686
18309TIP3    H176418   5.442   3.796  12.710  0.1363 -1.0755  0.7272
18309TIP3    H276419   5.472   3.859  12.576 -0.0941  0.2496  1.2760
18310TIP3   OH276420   1.684   6.489  14.427 -0.2790 -0.6325  0.5319
18310TIP3    H176421   1.650   6.545  14.497 -1.7443 -0.6316 -0.1378
18310TIP3    H276422   1.662   6.536  14.346  2.1658 -0.2001  0.0471
18311TIP3   OH276423   0.641   0.276   4.354  0.2850 -0.1790 -0.4043
18311TIP3    H176424   0.697   0.354   4.354 -0.1524  0.1808  1.5490
18311TIP3    H276425   0.595   0.281   4.270  3.8099 -1.0453 -2.6441
18312TIP3   OH276426   6.063   6.008  11.906  0.0616 -0.0156 -0.4977
18312TIP3    H176427   6.136   5.978  11.852 -0.4838 -0.1610 -1.1642
18312TIP3    H276428   6.101   6.075  11.963  0.6860 -0.0081 -0.9158
18313TIP3   OH276429   2.645   2.009   3.456 -0.3828  0.3519 -0.1448
18313TIP3    H176430   2.606   2.069   3.520 -2.0266  0.0386 -0.7931
18313TIP3    H276431   2.580   2.003   3.386 -0.1971 -2.0182 -0.2084
18314TIP3   OH276432   3.142   4.994   3.458  0.6091  0.3054  0.3483
18314TIP3    H176433   3.212   4.929   3.460  0.7408  0.4197 -0.4570
18314TIP3    H276434   3.156   5.043   3.377  0.0357  0.8124  0.5472
18315TIP3   OH276435   1.533   1.228  14.644  0.0838  0.0348  0.2887
18315TIP3    H176436   1.543   1.253  14.736 -0.3330  1.4343 -0.0162
18315TIP3    H276437   1.559   1.306  14.595  0.1234 -0.6287 -0.7863
18316TIP3   OH276438   3.432   6.540  13.159  0.7036  0.2968 -0.5589
18316TIP3    H176439   3.348   6.516  13.121  0.4899  1.9772 -1.2084
18316TIP3    H276440   3.419   6.530  13.254 -0.3407  0.8577 -0.6276
18317TIP3   OH276441   0.558   5.469  15.245  0.3454  0.0661  0.3891
18317TIP3    H176442   0.519   5.548  15.283  0.3983  0.1768  0.2126
18317TIP3    H276443   0.568   5.489  15.152 -0.4787 -0.4779  0.1729
18318TIP3   OH276444   2.721   4.409  15.619  0.3907  0.3548  0.3034
18318TIP3    H176445   2.771   4.484  15.651 -1.0280  1.5901 -0.1943
18318TIP3    H276446   2.677   4.442  15.540 -1.9167 -0.3209  1.2021
18319TIP3   OH276447   5.916   2.747   6.339  0.1380  0.2581  0.2628
18319TIP3    H176448   5.976   2.819   6.322 -0.0100  0.5799  1.0729
18319TIP3    H276449   5.837   2.770   6.290 -0.4866  1.4543  1.7759
18320TIP3   OH276450   5.752   6.376  11.830  0.1362  0.2438  0.3554
18320TIP3    H176451   5.761   6.368  11.735 -1.0094  1.9530  0.0510
18320TIP3    H276452   5.676   6.434  11.842 -0.3271 -0.6828  2.3379
18321TIP3   OH276453   1.259   1.267   3.729  0.2263 -0.6455 -0.4755
18321TIP3    H176454   1.220   1.350   3.700 -0.5148 -1.2586 -1.2525
18321TIP3    H276455   1.212   1.200   3.681 -0.3891 -1.6538  1.4289
18322TIP3   OH276456   6.617   2.117   3.615  0.4514  0.3320  0.5232
18322TIP3    H176457   6.586   2.030   3.588  0.0379 -0.2329  2.6385
18322TIP3    H276458   6.540   2.173   3.606  0.4137  0.2422  0.2532
18323TIP3   OH276459   2.990   2.612   3.449  0.3003 -0.7095 -0.3279
18323TIP3    H176460   3.059   2.622   3.513  0.1765 -1.3491 -0.0886
18323TIP3    H276461   2.916   2.660   3.486 -0.1076 -1.9475  0.5309
18324TIP3   OH276462   0.741   6.053  11.481 -0.0310  0.4516  0.1408
18324TIP3    H176463   0.715   6.145  11.472 -1.3647  0.1250  0.5051
18324TIP3    H276464   0.705   6.011  11.403  0.8310  0.2830 -0.1737
18325TIP3   OH276465   0.979   5.611  17.178  0.0623 -0.0619 -0.0948
18325TIP3    H176466   1.035   5.612  17.100  1.2989  0.3632  0.7560
18325TIP3    H276467   0.894   5.641  17.147  0.5685  0.2440 -1.2598
18326TIP3   OH276468   3.243   3.521  15.169 -0.2677 -0.1188 -0.4525
18326TIP3    H176469   3.267   3.455  15.105  1.8879 -1.1786  1.3344
18326TIP3    H276470   3.147   3.527  15.162 -0.3220 -1.8770 -2.0784
18327TIP3   OH276471   0.688   2.798  14.814 -0.3498 -0.0549  0.3634
18327TIP3    H176472   0.647   2.793  14.900 -1.3317  1.7897  0.0545
18327TIP3    H276473   0.664   2.716  14.770 -0.4594 -0.6779  1.5447
18328TIP3   OH276474   4.784   0.213   0.769  0.2035 -0.3244  0.2230
18328TIP3    H176475   4.848   0.144   0.787 -1.0261 -1.9444 -1.2072
18328TIP3    H276476   4.699   0.171   0.785 -0.5696  1.0474 -0.1476
18329TIP3   OH276477   5.700   1.109  15.583 -0.2366 -0.3269 -0.2367
18329TIP3    H176478   5.660   1.157  15.511  0.2096 -0.6234 -0.6883
18329TIP3    H276479   5.743   1.035  15.542  1.3002  0.2996  0.1514
18330TIP3   OH276480   3.336   2.111   4.372  0.1615 -0.1634  0.0340
18330TIP3    H176481   3.279   2.174   4.328 -1.9754 -0.5077  2.0762
18330TIP3    H276482   3.304   2.026   4.343  0.2794 -0.3485  0.4423
18331TIP3   OH276483   0.198   6.766   1.493 -0.0423 -0.0685 -0.3778
18331TIP3    H176484   0.214   6.691   1.435 -0.9022  0.0956 -0.8319
18331TIP3    H276485   0.207   6.843   1.436 -1.3981  0.0734 -0.4343
18332TIP3   OH276486   2.483   2.128  13.656  0.6318  0.6239  0.1591
18332TIP3    H176487   2.480   2.040  13.692 -1.9795 -0.4236 -2.2473
18332TIP3    H276488   2.403   2.170  13.689  1.0973  1.5745  0.1034
18333TIP3   OH276489   3.813   6.776  11.873  0.1460  0.6957 -0.2524
18333TIP3    H176490   3.755   6.707  11.905  0.0455  0.3918 -1.0609
18333TIP3    H276491   3.789   6.787  11.781  2.8776 -1.0734 -1.3109
18334TIP3   OH276492   0.420   6.144  13.901  0.6671  0.0448 -0.3766
18334TIP3    H176493   0.404   6.232  13.867  0.5106 -0.7374 -2.4976
18334TIP3    H276494   0.361   6.136  13.976  0.8243  1.7731 -0.0113
18335TIP3   OH276495   0.453   0.112   0.900  0.2821 -0.1002  0.3496
18335TIP3    H176496   0.536   0.111   0.947  0.3341  0.9205  0.3058
18335TIP3    H276497   0.472   0.157   0.818 -0.7779  2.3113  1.3288
18336TIP3   OH276498   1.214   1.165   2.731 -0.3066  0.3360 -0.1477
18336TIP3    H176499   1.193   1.234   2.794  1.5554  1.1783 -0.4019
18336TIP3    H276500   1.309   1.168   2.722 -0.4685 -0.1639 -2.5664
18337TIP3   OH276501   2.694   1.825   4.597 -0.5116  0.0390 -0.3447
18337TIP3    H176502   2.629   1.883   4.637  0.6796  1.9556 -1.0173
18337TIP3    H276503   2.672   1.826   4.504  0.5050  0.8063 -0.5964
18338TIP3   OH276504   6.447   0.117   2.413  0.1043 -0.1171 -0.4077
18338TIP3    H176505   6.353   0.125   2.429 -0.2460 -0.1761 -2.2476
18338TIP3    H276506   6.459   0.027   2.383  0.6134  0.1319 -0.9750
18339TIP3   OH276507   0.164   1.700  14.592  0.4879  0.7570 -0.2324
18339TIP3    H176508   0.117   1.631  14.544 -0.8979 -0.0005  2.0250
18339TIP3    H276509   0.253   1.695  14.559 -0.1817 -0.2615 -2.0847
18340TIP3   OH276510   4.360   5.375  15.623  0.1061  0.0871 -1.0387
18340TIP3    H176511   4.377   5.288  15.587  0.8899  0.8343 -2.6123
18340TIP3    H276512   4.446   5.418  15.622  0.1989  0.1248  1.9802
18341TIP3   OH276513   6.300   6.706  14.199 -0.5769  0.6050  0.0678
18341TIP3    H176514   6.260   6.619  14.186 -0.2554  0.6036 -0.9446
18341TIP3    H276515   6.285   6.752  14.117 -1.5715  1.8608  0.9140
18342TIP3   OH276516   0.626   3.308  16.425  0.2120  0.2214 -0.0342
18342TIP3    H176517   0.567   3.359  16.369  0.5620 -0.1312 -0.7411
18342TIP3    H276518   0.609   3.340  16.514  0.1966  1.3299 -0.4290
18343TIP3   OH276519   1.158   4.831   3.826 -0.1485 -0.9196  0.2773
18343TIP3    H176520   1.152   4.744   3.865 -2.3533 -1.1236 -0.4003
18343TIP3    H276521   1.076   4.843   3.779  1.6272 -0.0362 -2.9370
18344TIP3   OH276522   3.474   0.114  11.876  0.0383 -0.3926  0.6226
18344TIP3    H176523   3.458   0.121  11.970 -0.1483  1.5334  0.4846
18344TIP3    H276524   3.547   0.174  11.859  0.3766 -1.0716 -0.3943
18345TIP3   OH276525   1.184   1.565  17.014  0.3076  0.1254  0.3964
18345TIP3    H176526   1.146   1.609  17.090 -2.4133 -4.6077  2.1974
18345TIP3    H276527   1.135   1.600  16.939  0.4161  2.1785  1.2140
18346TIP3   OH276528   6.727   1.370   2.346  0.1476  0.1396 -0.0006
18346TIP3    H176529   6.678   1.375   2.428  0.7858 -2.9912  0.7123
18346TIP3    H276530   6.813   1.339   2.371  0.8611  0.5652 -1.7411
18347TIP3   OH276531   4.324   4.192  14.180  0.2165 -0.1404  0.0713
18347TIP3    H176532   4.410   4.224  14.208 -0.3441  0.5402  1.0900
18347TIP3    H276533   4.297   4.132  14.250  1.0677 -2.6541 -1.5989
18348TIP3   OH276534   4.862   0.691  17.063 -0.2570 -0.0528 -0.3379
18348TIP3    H176535   4.794   0.710  16.998 -0.4016  1.8729  0.3192
18348TIP3    H276536   4.943   0.683  17.012 -0.6768 -0.5488 -0.9382
18349TIP3   OH276537   5.310   3.160  11.712 -0.2866 -0.2519  0.2626
18349TIP3    H176538   5.265   3.198  11.787  1.4713  2.8701 -0.0973
18349TIP3    H276539   5.386   3.116  11.749 -1.0905 -1.4690  0.5071
18350TIP3   OH276540   3.032   0.233  12.295 -0.0432 -0.0250 -0.4891
18350TIP3    H176541   3.095   0.256  12.363 -0.9407 -1.4174  0.8812
18350TIP3    H276542   3.063   0.279  12.217  0.7416  2.0564  0.9576
18351TIP3   OH276543   3.834   5.369   0.326 -0.2863 -0.0834  0.4683
18351TIP3    H176544   3.865   5.297   0.271  0.9321  0.5006  0.3554
18351TIP3    H276545   3.744   5.346   0.347  0.0801 -1.6433  0.4546
18352TIP3   OH276546   1.613   6.289  14.693 -0.4355 -0.2946 -0.0193
18352TIP3    H176547   1.632   6.377  14.659 -1.1169  0.0036  0.3665
18352TIP3    H276548   1.518   6.282  14.688 -0.3629 -1.1317 -0.3253
18353TIP3   OH276549   0.453   6.294   3.415 -0.0203 -0.1807 -0.7458
18353TIP3    H176550   0.403   6.213   3.423 -0.4543  0.0973 -0.6228
18353TIP3    H276551   0.497   6.304   3.499 -1.0230  0.4016 -0.2797
18354TIP3   OH276552   1.536   5.138   4.348 -0.4375 -0.1052  0.0824
18354TIP3    H176553   1.524   5.225   4.311 -1.0275  0.9702  2.5644
18354TIP3    H276554   1.613   5.103   4.304  0.6733  2.2504 -0.0086
18355TIP3   OH276555   6.786   0.259   0.506  0.5241  0.0061 -0.0472
18355TIP3    H176556   6.812   0.289   0.419  1.2786  0.0324  0.1882
18355TIP3    H276557   6.810   0.331   0.564 -1.3941  0.6762  0.0141
18356TIP3   OH276558   2.806   3.644  11.487 -0.6345 -0.3086  0.0316
18356TIP3    H176559   2.722   3.609  11.517  0.9931 -2.0729  2.9596
18356TIP3    H276560   2.839   3.577  11.426 -0.6748 -0.3933  0.1007
18357TIP3   OH276561   5.921   2.261   3.284  0.0146  0.0212 -0.9126
18357TIP3    H176562   5.982   2.190   3.263  0.6484  0.0042  0.8353
18357TIP3    H276563   5.848   2.248   3.224  0.2428 -1.9331 -0.8357
18358TIP3   OH276564   6.117   4.141  14.857 -0.2647  0.3874 -0.3707
18358TIP3    H176565   6.134   4.047  14.869 -0.2695  0.4523  0.1729
18358TIP3    H276566   6.161   4.163  14.775  1.1968  0.2711  0.3500
18359TIP3   OH276567   2.189   0.111  17.118  0.0540  0.3709 -0.4018
18359TIP3    H176568   2.137   0.109  17.038 -2.5603  0.9228  1.1537
18359TIP3    H276569   2.129   0.080  17.186  2.3570 -0.6516  1.2937
18360TIP3   OH276570   4.209   2.465   1.106 -0.2073 -0.2817  0.1345
18360TIP3    H176571   4.215   2.532   1.037 -0.1628  0.4450  0.8270
18360TIP3    H276572   4.140   2.406   1.076  0.0428 -0.1659 -0.6959
18361TIP3   OH276573   1.370   0.143   5.715 -0.2350 -0.0072  0.1187
18361TIP3    H176574   1.336   0.201   5.783  1.1901  0.3805  0.5374
18361TIP3    H276575   1.384   0.199   5.639 -1.3527 -0.3432 -0.3529
18362TIP3   OH276576   6.757   3.857  15.809 -0.4224  0.0525  0.2015
18362TIP3    H176577   6.706   3.917  15.754  0.0616  0.0671 -0.2385
18362TIP3    H276578   6.774   3.782  15.753  1.2901  0.6745 -0.1570
18363TIP3   OH276579   1.165   0.452  17.153  0.0799  0.1743  0.2599
18363TIP3    H176580   1.213   0.532  17.176  1.8388 -0.5130 -0.8123
18363TIP3    H276581   1.184   0.392  17.224 -1.7138  0.8453  1.3600
18364TIP3   OH276582   3.634   2.254  13.800 -0.3205  0.3229 -0.2112
18364TIP3    H176583   3.572   2.230  13.731 -2.7790 -1.9054  2.5258
18364TIP3    H276584   3.688   2.176  13.812 -1.2838 -0.1286  1.6331
18365TIP3   OH276585   2.585   3.211  13.565  0.1881 -0.1893 -0.3525
18365TIP3    H176586   2.546   3.283  13.517 -1.5275 -1.4355 -0.9368
18365TIP3    H276587   2.527   3.198  13.640 -0.3923 -1.8513 -1.0361
18366TIP3   OH276588   0.155   1.848  11.774  0.4649  0.0669 -0.2808
18366TIP3    H176589   0.126   1.897  11.697  0.6324 -0.6599 -0.8138
18366TIP3    H276590   0.246   1.826  11.754  0.0570 -1.4626 -0.5719
18367TIP3   OH276591   6.709   1.433  10.586 -0.1815  0.5470 -0.2685
18367TIP3    H176592   6.689   1.389  10.669 -0.2370 -1.1996 -1.1494
18367TIP3    H276593   6.805   1.431  10.582 -0.1717  0.8165 -0.1486
18368TIP3   OH276594   3.436   0.902   3.424  0.5164 -0.1116  0.2452
18368TIP3    H176595   3.503   0.962   3.391  2.0642 -1.2795  1.1408
18368TIP3    H276596   3.358   0.956   3.433  0.9276  1.0210 -2.0633
18369TIP3   OH276597   4.569   2.459  17.013  0.1932 -0.8847 -0.3625
18369TIP3    H176598   4.647   2.410  17.041  2.5302  1.2515 -2.5646
18369TIP3    H276599   4.564   2.532  17.075  0.3405 -0.6666 -0.6077
18370TIP3   OH276600   6.469   6.551  10.492 -0.2799 -0.1543 -0.1338
18370TIP3    H176601   6.469   6.647  10.501 -1.2658  0.0328 -1.7584
18370TIP3    H276602   6.560   6.526  10.501  0.0221  0.9576  0.1082
18371TIP3   OH276603   2.893   5.621  13.473 -0.1459  0.0301  0.5889
18371TIP3    H176604   2.827   5.579  13.418  0.6427  0.4964 -0.7531
18371TIP3    H276605   2.864   5.711  13.482  0.0671  0.1238  0.3644
18372TIP3   OH276606   4.882   4.131  16.792  0.1765 -0.1808 -0.1252
18372TIP3    H176607   4.977   4.129  16.801  0.1532 -1.8248  0.1090
18372TIP3    H276608   4.851   4.061  16.849 -1.2500  0.8662  0.4331
18373TIP3   OH276609   1.168   4.590   4.983 -0.3917  0.6010 -0.2378
18373TIP3    H176610   1.193   4.681   4.965  0.2170  0.6762  0.9481
18373TIP3    H276611   1.227   4.538   4.928 -0.6820  0.9076 -0.8542
18374TIP3   OH276612   5.461   1.243   3.346 -0.3481 -0.3991  0.1750
18374TIP3    H176613   5.427   1.174   3.403 -0.1400 -0.6618 -0.0200
18374TIP3    H276614   5.412   1.321   3.372 -1.8388 -0.9718 -0.7832
18375TIP3   OH276615   6.324   0.884  16.453  0.0954 -0.3204 -0.3051
18375TIP3    H176616   6.286   0.936  16.524 -1.4818 -1.0070 -0.5979
18375TIP3    H276617   6.249   0.855  16.402  1.1830 -0.0684 -2.1199
18376TIP3   OH276618   1.090   3.949   3.677  0.4064  0.3893  0.6858
18376TIP3    H176619   1.118   3.901   3.754 -0.4931 -0.0726  0.7349
18376TIP3    H276620   1.052   4.030   3.711  2.6157  1.5642  0.5713
18377TIP3   OH276621   1.855   5.836   1.638  0.0310  0.4578  0.5182
18377TIP3    H176622   1.760   5.820   1.640  0.4307 -2.4797  1.1307
18377TIP3    H276623   1.864   5.931   1.647 -2.8179  0.6818  2.0805
18378TIP3   OH276624   0.587   2.665  13.185  0.1289 -0.7669 -0.2924
18378TIP3    H176625   0.545   2.723  13.122 -0.1971 -2.2926 -1.5459
18378TIP3    H276626   0.652   2.719  13.229 -1.8772  1.2113  0.4337
18379TIP3   OH276627   3.485   1.751   2.441  0.4363 -0.2556  0.1470
18379TIP3    H176628   3.543   1.766   2.516 -1.4657  3.1551  1.1540
18379TIP3    H276629   3.534   1.784   2.366  0.3812  1.3719  0.7841
18380TIP3   OH276630   3.106   3.119  17.105 -0.0579 -0.0058 -0.0203
18380TIP3    H176631   3.131   3.083  17.020 -1.3031  3.2253 -1.9184
18380TIP3    H276632   3.012   3.102  17.112 -0.3117  1.2519 -0.1454
18381TIP3   OH276633   1.552   5.304  13.107 -0.0996  0.1642 -0.7218
18381TIP3    H176634   1.549   5.343  13.019 -0.8475  0.6798 -0.4738
18381TIP3    H276635   1.629   5.344  13.148  1.1567 -1.1972 -1.6370
18382TIP3   OH276636   1.857   6.401   0.330 -0.2917 -0.0373  0.2730
18382TIP3    H176637   1.886   6.394   0.239 -0.4731 -0.5164  0.2504
18382TIP3    H276638   1.938   6.412   0.380 -0.1899  0.2032  0.0583
18383TIP3   OH276639   3.950   6.028   3.648  0.1441 -0.4290  0.3146
18383TIP3    H176640   4.035   5.994   3.620  0.2080  0.1570 -0.2210
18383TIP3    H276641   3.886   5.980   3.596  0.2460  0.4114 -0.6275
18384TIP3   OH276642   6.558   1.904  11.838 -0.2661  0.3172  0.0752
18384TIP3    H176643   6.572   1.888  11.744 -0.2148 -0.1760  0.1624
18384TIP3    H276644   6.646   1.900  11.876 -0.3196  0.1921  0.1885
18385TIP3   OH276645   3.973   4.334   0.918 -0.0872 -0.5346  0.0029
18385TIP3    H176646   3.987   4.419   0.877  1.0442 -0.2113  0.9888
18385TIP3    H276647   3.884   4.339   0.954 -0.6292 -0.3834 -1.3071
18386TIP3   OH276648   3.586   3.971  14.516  0.0487  0.3497  0.3300
18386TIP3    H176649   3.594   3.959  14.611  0.6979  0.5215  0.3017
18386TIP3    H276650   3.606   4.063  14.502 -1.4076  0.6788  0.1627
18387TIP3   OH276651   4.152   3.561   2.379  0.1005  0.3055  0.4484
18387TIP3    H176652   4.126   3.481   2.424 -0.3018  1.0726  1.6498
18387TIP3    H276653   4.173   3.622   2.450 -3.0939  2.4484 -0.2391
18388TIP3   OH276654   2.276   5.941   0.825  0.1712 -0.6390  0.1167
18388TIP3    H176655   2.212   6.003   0.860 -1.4704 -2.2066  0.0797
18388TIP3    H276656   2.311   5.897   0.901 -0.5261 -1.3612  0.0366
18389TIP3   OH276657   4.333   4.707  14.858 -0.1417 -0.3260  0.0438
18389TIP3    H176658   4.366   4.621  14.831  0.3612 -0.5332  1.2277
18389TIP3    H276659   4.313   4.752  14.776 -0.9896 -1.7805 -0.5944
18390TIP3   OH276660   1.579   2.530  12.113 -0.0084 -0.4439 -0.2412
18390TIP3    H176661   1.554   2.531  12.206 -1.6270  0.5844 -0.6525
18390TIP3    H276662   1.506   2.487  12.069 -0.5519  1.5117 -1.3521
18391TIP3   OH276663   5.131   1.959  13.956  0.1623  0.3233  0.0857
18391TIP3    H176664   5.193   1.999  13.895  0.6662 -0.5854 -0.0153
18391TIP3    H276665   5.124   1.868  13.928  0.2507 -0.0645  1.2487
18392TIP3   OH276666   5.599   6.391  16.550 -0.1392  0.2231 -0.6042
18392TIP3    H176667   5.582   6.387  16.455 -2.5463  0.6725 -0.2496
18392TIP3    H276668   5.520   6.429  16.587  0.3422 -0.8811  1.7235
18393TIP3   OH276669   3.499   6.306  11.484  0.7590 -0.5790 -0.1110
18393TIP3    H176670   3.560   6.281  11.414  1.4766  2.8668 -0.9275
18393TIP3    H276671   3.546   6.374  11.533 -1.3074  0.0463  1.1322
18394TIP3   OH276672   5.493   4.658   1.866  0.3098  0.2180 -0.4587
18394TIP3    H176673   5.569   4.672   1.922  2.0212 -2.0178 -2.0075
18394TIP3    H276674   5.471   4.565   1.878 -0.8620  0.3224 -1.5793
18395TIP3   OH276675   6.720   3.434  15.115 -0.4712  0.3590 -0.5730
18395TIP3    H176676   6.710   3.491  15.039  1.0481  2.4678  0.6742
18395TIP3    H276677   6.762   3.356  15.081 -0.8143  0.7762 -2.0509
18396TIP3   OH276678   5.947   6.516  10.963 -0.1479 -0.1081  0.0879
18396TIP3    H176679   5.905   6.431  10.954 -0.7506  0.1706  0.2370
18396TIP3    H276680   5.975   6.518  11.055 -0.7496  0.1360  0.2664
18397TIP3   OH276681   2.337   1.317  12.290  0.6548 -0.0904  0.2056
18397TIP3    H176682   2.312   1.333  12.381  1.4914 -0.0754  0.4380
18397TIP3    H276683   2.254   1.318  12.242  0.4007  3.2347  0.4309
18398TIP3   OH276684   2.498   4.309   2.001 -0.4259  0.0097  0.5216
18398TIP3    H176685   2.448   4.227   1.996 -1.4399  0.5907  0.9346
18398TIP3    H276686   2.525   4.326   1.911 -0.1867 -0.7864  0.4333
18399TIP3   OH276687   0.440   6.611  11.946 -0.3241 -0.3579  0.1384
18399TIP3    H176688   0.464   6.594  11.855 -0.4404 -2.8379  0.5164
18399TIP3    H276689   0.355   6.570  11.957  1.0859 -3.0373  2.1501
18400TIP3   OH276690   1.414   4.124  11.298  0.3914  0.2102 -0.0829
18400TIP3    H176691   1.329   4.138  11.257 -0.5852  1.5903  2.2244
18400TIP3    H276692   1.434   4.032  11.283 -0.2308  0.4569 -2.8946
18401TIP3   OH276693   3.528   1.712   3.749 -0.4690 -0.1639 -0.3911
18401TIP3    H176694   3.490   1.740   3.832 -0.1846  0.0978 -0.3448
18401TIP3    H276695   3.616   1.750   3.749  0.1560 -1.5770 -0.0609
18402TIP3   OH276696   5.836   4.785   1.131  0.0537 -0.4103 -0.7291
18402TIP3    H176697   5.769   4.728   1.168  0.1416 -0.2224 -0.2727
18402TIP3    H276698   5.876   4.733   1.061 -0.1940 -0.7251 -0.6396
18403TIP3   OH276699   0.062   5.255  13.191  0.0086  0.1803  0.2525
18403TIP3    H176700  -0.022   5.257  13.238  0.5563 -1.6250  1.4361
18403TIP3    H276701   0.090   5.163  13.198  2.6418  0.9592  0.9173
18404TIP3   OH276702   6.140   1.859   2.396 -0.0381  0.0270  0.3653
18404TIP3    H176703   6.226   1.831   2.427  0.5012 -0.2190 -1.2382
18404TIP3    H276704   6.152   1.873   2.302 -2.1108 -1.5746 -0.2248
18405TIP3   OH276705   3.436   5.580   4.880 -0.4749 -0.0051  0.4393
18405TIP3    H176706   3.462   5.488   4.868  1.2206  0.6663 -1.6693
18405TIP3    H276707   3.342   5.576   4.896 -0.1676 -2.2002  2.0978
18406TIP3   OH276708   1.135   6.503  16.813  0.2186 -0.7209 -0.2086
18406TIP3    H176709   1.182   6.438  16.760 -1.3135 -2.2273  0.1900
18406TIP3    H276710   1.176   6.586  16.790  1.8776 -1.7435 -1.1764
18407TIP3   OH276711   5.104   2.858  16.510  0.5348 -0.5166 -0.2427
18407TIP3    H176712   5.029   2.905  16.474 -0.1676 -0.6610  0.9890
18407TIP3    H276713   5.142   2.813  16.434 -2.2954 -2.7537 -0.5366
18408TIP3   OH276714   3.921   1.570   1.216  0.0610 -0.1247  0.7031
18408TIP3    H176715   3.938   1.477   1.233  0.5213  0.0337  1.1372
18408TIP3    H276716   3.991   1.616   1.262 -0.4248  0.4620  0.8751
18409TIP3   OH276717   3.797   4.000   1.185  0.1199  0.1143 -0.6039
18409TIP3    H176718   3.846   4.000   1.103  0.5368 -0.7323 -0.3629
18409TIP3    H276719   3.863   4.015   1.253  0.0614 -0.9827 -0.2829
18410TIP3   OH276720   1.667   6.373  16.569 -0.6964 -0.2755 -0.3149
18410TIP3    H176721   1.602   6.314  16.608  0.0856 -0.2459  1.1047
18410TIP3    H276722   1.728   6.392  16.641  0.2717  0.5575 -1.3246
18411TIP3   OH276723   6.222   5.802  16.338 -0.5337 -0.2452  0.5374
18411TIP3    H176724   6.169   5.835  16.265 -2.2130 -1.0838  1.3142
18411TIP3    H276725   6.159   5.758  16.395  0.8586 -0.3237  2.0891
18412TIP3   OH276726   5.756   3.784  11.995  0.2797  0.0463 -0.3471
18412TIP3    H176727   5.768   3.873  12.027  0.6806  0.2862 -1.1433
18412TIP3    H276728   5.693   3.745  12.055  0.6320  0.6402  0.4265
18413TIP3   OH276729   5.197   6.794  11.889 -0.4772 -0.0101 -0.4218
18413TIP3    H176730   5.160   6.823  11.972  0.7603 -0.4450  0.3154
18413TIP3    H276731   5.125   6.802  11.826 -1.5800 -0.1348  0.7825
18414TIP3   OH276732   0.500   1.572   2.731  0.2499  0.2933 -0.6505
18414TIP3    H176733   0.444   1.551   2.806 -0.7403  1.9022 -0.8903
18414TIP3    H276734   0.490   1.497   2.672 -2.8063  1.0805 -1.3053
18415TIP3   OH276735   1.339   6.293  14.676  0.6166  0.3697 -0.2415
18415TIP3    H176736   1.283   6.362  14.711 -2.5462 -1.9044 -0.4769
18415TIP3    H276737   1.308   6.279  14.587 -0.1055 -2.5237  0.3706
18416TIP3   OH276738   3.057   0.108  16.937  0.3677  0.4398  0.0632
18416TIP3    H176739   3.048   0.191  16.984 -2.0955  0.5972 -0.5474
18416TIP3    H276740   3.145   0.077  16.960  0.0429  1.4404  3.2009
18417TIP3   OH276741   5.588   4.079   5.493 -0.3536 -0.1727 -0.4589
18417TIP3    H176742   5.676   4.064   5.527 -0.8678 -1.0966  0.4969
18417TIP3    H276743   5.568   4.001   5.441 -1.0791 -0.5346  0.3506
18418TIP3   OH276744   6.632   1.499   2.827 -0.3125  0.1356 -0.1817
18418TIP3    H176745   6.712   1.549   2.842 -1.3306  1.4933  0.9630
18418TIP3    H276746   6.611   1.461   2.912  0.1058 -1.7946 -0.9016
18419TIP3   OH276747   5.841   2.848  16.540  0.0050  0.9075 -0.1487
18419TIP3    H176748   5.811   2.798  16.464  0.4538  0.8158 -0.2692
18419TIP3    H276749   5.920   2.803  16.569  1.3625  2.4534 -1.2436
18420TIP3   OH276750   0.486   5.499  14.286 -0.0842 -0.4130  0.9136
18420TIP3    H176751   0.570   5.463  14.259 -1.3466 -1.7520 -1.6205
18420TIP3    H276752   0.424   5.467  14.220 -2.3825  1.5012  1.9862
18421TIP3   OH276753   4.826   0.687   5.165  0.1139 -0.3829  0.0863
18421TIP3    H176754   4.795   0.723   5.248  2.0187  1.1186  0.2211
18421TIP3    H276755   4.914   0.654   5.184  0.5456 -0.1047 -1.2937
18422TIP3   OH276756   2.393   4.005  16.257  0.1865 -0.1594 -0.2589
18422TIP3    H176757   2.438   4.088  16.270 -2.0574  0.9847  0.8443
18422TIP3    H276758   2.332   4.021  16.185  1.6940 -1.7841 -2.0073
18423TIP3   OH276759   1.807   4.465   5.454  0.5536  0.2418  0.4789
18423TIP3    H176760   1.785   4.557   5.469  2.0360  1.0547 -1.6941
18423TIP3    H276761   1.724   4.419   5.462 -0.4508  1.9567  0.5041
18424TIP3   OH276762   5.190   5.451   3.885 -0.0961 -0.0206 -0.4684
18424TIP3    H176763   5.151   5.536   3.903  0.7050 -0.1192  2.2122
18424TIP3    H276764   5.138   5.389   3.937  0.8640 -0.7889 -0.3802
18425TIP3   OH276765   5.773   2.532   3.972  0.5294  0.1527  0.4278
18425TIP3    H176766   5.731   2.615   3.947  0.2769  0.4019  1.5936
18425TIP3    H276767   5.703   2.481   4.012  0.8809 -0.2609  0.5172
18426TIP3   OH276768   4.164   0.518  17.166 -0.1533  0.0777  0.1389
18426TIP3    H176769   4.229   0.450  17.150  1.1781  1.6459 -1.4130
18426TIP3    H276770   4.082   0.481  17.131  0.6400 -0.5450 -1.1200
18427TIP3   OH276771   5.744   2.661  16.367 -0.5206 -0.1078  0.8169
18427TIP3    H176772   5.666   2.622  16.327  0.6128 -0.0524 -1.6975
18427TIP3    H276773   5.780   2.592  16.422 -1.5574 -0.6271  0.8649
18428TIP3   OH276774   6.758   0.246  11.566  0.4353 -0.1032  1.1088
18428TIP3    H176775   6.719   0.305  11.501  3.2418 -0.1271 -0.7937
18428TIP3    H276776   6.717   0.271  11.648 -2.4908  0.7223 -0.4582
18429TIP3   OH276777   0.961   1.050  14.809  0.4094  0.0078 -0.0536
18429TIP3    H176778   0.945   1.100  14.889 -2.1371  0.6788 -0.9096
18429TIP3    H276779   0.891   0.985  14.806  0.5555 -0.1154 -1.6576
18430TIP3   OH276780   1.556   0.113   3.791 -0.3148  0.0969  0.2217
18430TIP3    H176781   1.601   0.197   3.789  1.7244 -0.8734  1.5811
18430TIP3    H276782   1.598   0.065   3.863  0.5554 -3.1019 -2.1921
18431TIP3   OH276783   6.305   5.945  13.593 -0.4392 -0.1924  0.1940
18431TIP3    H176784   6.313   5.925  13.499 -1.5058 -1.0959  0.2703
18431TIP3    H276785   6.283   6.038  13.596  0.8263  0.1520 -0.3759
18432TIP3   OH276786   1.728   3.376  15.823  0.2299  0.2048  0.1050
18432TIP3    H176787   1.646   3.415  15.851 -0.4652 -0.6642 -0.6684
18432TIP3    H276788   1.789   3.450  15.815 -0.7674  0.9918 -0.3585
18433TIP3   OH276789   3.578   1.030   1.140  0.6787  0.8130 -0.1159
18433TIP3    H176790   3.565   1.124   1.154  1.0728  1.0909 -1.4760
18433TIP3    H276791   3.496   0.990   1.168 -0.2267  1.7646 -1.3019
18434TIP3   OH276792   2.846   5.893   5.109  0.1291  0.0508  0.3438
18434TIP3    H176793   2.894   5.892   5.026  0.2841 -0.1931  0.4349
18434TIP3    H276794   2.912   5.917   5.174  0.1288 -0.2943  0.4712
18435TIP3   OH276795   6.797   4.188   2.042  0.0005  0.3459  0.5171
18435TIP3    H176796   6.817   4.109   1.993 -0.9801 -0.3686  1.2349
18435TIP3    H276797   6.758   4.157   2.124  1.3617  1.5107  1.6582
18436TIP3   OH276798   0.893   0.633  16.866  0.1844 -0.0825 -0.6077
18436TIP3    H176799   0.812   0.679  16.846 -0.2109 -1.0388 -1.2606
18436TIP3    H276800   0.873   0.583  16.945  0.2075 -0.1678 -0.6562
18437TIP3   OH276801   2.743   2.728  16.468 -0.1791 -0.5150 -0.1487
18437TIP3    H176802   2.690   2.655  16.502 -1.1723 -1.3283 -3.1293
18437TIP3    H276803   2.820   2.686  16.430 -0.5891 -0.0505 -1.5798
18438TIP3   OH276804   4.522   4.171   2.721 -0.2083 -0.5550 -1.1281
18438TIP3    H176805   4.587   4.116   2.763  0.0211  0.2407 -0.4247
18438TIP3    H276806   4.572   4.228   2.663 -0.4642 -1.2009 -2.0191
18439TIP3   OH276807   4.406   6.070   2.958  0.3396 -0.1232  0.1858
18439TIP3    H176808   4.388   5.992   2.907  0.2174  0.8418 -1.3182
18439TIP3    H276809   4.382   6.143   2.900 -0.2247  1.0309  1.7775
18440TIP3   OH276810   5.851   3.678   4.313  0.6138 -0.3304 -0.7114
18440TIP3    H176811   5.758   3.664   4.334  0.6032  1.0648  0.2970
18440TIP3    H276812   5.876   3.754   4.366  2.3157 -0.6328 -1.0463
18441TIP3   OH276813   6.209   3.705   3.984 -0.4462 -0.2612 -1.1750
18441TIP3    H176814   6.136   3.714   4.045 -0.0746  0.1231 -0.7716
18441TIP3    H276815   6.185   3.759   3.909 -0.7275 -0.4087 -1.1888
18442TIP3   OH276816   4.221   4.397  13.249 -0.1778  0.2181 -0.5083
18442TIP3    H176817   4.178   4.386  13.334  1.0857 -0.9571  0.0304
18442TIP3    H276818   4.281   4.470  13.261  0.7588 -0.5972 -0.0206
18443TIP3   OH276819   2.385   5.171   4.919 -0.2941  0.3652  0.0143
18443TIP3    H176820   2.317   5.118   4.879 -0.6885  0.7174  0.2126
18443TIP3    H276821   2.417   5.226   4.847  0.1304 -0.1423 -0.1960
18444TIP3   OH276822   5.365   0.340   3.352 -0.9864  0.1388 -0.1223
18444TIP3    H176823   5.323   0.257   3.376 -1.3576  0.9341  2.2192
18444TIP3    H276824   5.459   0.323   3.365 -1.0167 -0.0620 -0.1566
18445TIP3   OH276825   5.449   5.177   0.919  0.4072  0.2623 -0.3822
18445TIP3    H176826   5.382   5.225   0.967 -0.0137  0.9527 -1.5959
18445TIP3    H276827   5.476   5.237   0.850  1.4158 -0.4622 -0.6361
18446TIP3   OH276828   3.426   2.694   3.697  0.2297 -0.4525 -0.1262
18446TIP3    H176829   3.473   2.638   3.758 -0.7662 -0.8343  0.2947
18446TIP3    H276830   3.440   2.654   3.611  0.7504 -0.5017 -0.0214
18447TIP3   OH276831   3.122   0.325   1.063  0.6599 -0.5615  0.3376
18447TIP3    H176832   3.205   0.279   1.054  0.3401 -1.1487  0.3064
18447TIP3    H276833   3.064   0.261   1.105 -0.0820 -0.5379 -0.6255
18448TIP3   OH276834   2.884   2.189   5.810  0.4184 -0.4824  0.6980
18448TIP3    H176835   2.844   2.109   5.844 -2.6284  0.6306 -0.0181
18448TIP3    H276836   2.925   2.162   5.728  0.0409 -1.4170  0.8038
18449TIP3   OH276837   3.337   2.415   6.754 -0.5464 -0.4459  0.3109
18449TIP3    H176838   3.267   2.460   6.706 -0.8513 -0.6449  0.5646
18449TIP3    H276839   3.377   2.484   6.808 -1.2288 -0.5278  0.9504
18450TIP3   OH276840   5.467   6.257   6.438 -0.7822  1.0537  0.0692
18450TIP3    H176841   5.400   6.307   6.484 -1.4388  0.3506 -0.1134
18450TIP3    H276842   5.426   6.233   6.355 -1.0435 -1.1435  0.7956
18451TIP3   OH276843   5.730   2.588   5.769  0.0624 -0.1049  0.4263
18451TIP3    H176844   5.719   2.677   5.801 -1.8074 -0.3926  0.7228
18451TIP3    H276845   5.650   2.543   5.796 -0.4513 -1.0519 -2.3451
18452TIP3   OH276846   4.224   0.820  12.276 -0.4286 -0.5308 -0.3550
18452TIP3    H176847   4.278   0.751  12.316 -0.8859 -0.3347  0.6222
18452TIP3    H276848   4.175   0.775  12.207  1.5057 -0.5735 -1.8066
18453TIP3   OH276849   4.698   5.292   3.882  0.0705  0.4776 -0.2247
18453TIP3    H176850   4.722   5.259   3.796 -0.7328 -1.7023  0.3291
18453TIP3    H276851   4.620   5.346   3.866  0.3409  0.6748 -0.9278
18454TIP3   OH276852   6.786   6.322   3.336  0.0174  0.1611 -0.7514
18454TIP3    H176853   6.823   6.241   3.301  0.9042  0.3959 -0.3903
18454TIP3    H276854   6.694   6.302   3.351  0.5314 -1.3050  0.8242
18455TIP3   OH276855   2.359   2.540   0.240 -0.4109 -0.9510 -0.3751
18455TIP3    H176856   2.301   2.466   0.255 -1.5361 -0.2627 -1.1493
18455TIP3    H276857   2.333   2.574   0.154 -0.3672  0.7008  0.2185
18456TIP3   OH276858   5.413   2.713  15.234  0.1276 -0.8443  0.0439
18456TIP3    H176859   5.362   2.669  15.301 -0.7696 -1.4578 -1.0101
18456TIP3    H276860   5.477   2.765  15.282  0.1373 -2.0231  1.3468
18457TIP3   OH276861   3.125   0.883  12.793 -0.2990  0.4184  0.2455
18457TIP3    H176862   3.163   0.853  12.710  0.5891  0.2378  0.7060
18457TIP3    H276863   3.031   0.888  12.776 -0.1982 -0.2513 -0.5739
18458TIP3   OH276864   6.165   1.491  15.397 -0.1979 -0.6935  0.5714
18458TIP3    H176865   6.100   1.546  15.441  1.6703  0.9264  1.4924
18458TIP3    H276866   6.242   1.497  15.452  0.7445 -2.6056 -0.4420
18459TIP3   OH276867   2.299   1.281   6.472  0.2001 -0.5473 -0.3878
18459TIP3    H176868   2.296   1.377   6.481 -1.5219 -0.4624 -1.3404
18459TIP3    H276869   2.383   1.256   6.510 -0.9667  0.9429  3.7474
18460TIP3   OH276870   3.230   1.125  12.807 -0.1463  0.0548  0.2432
18460TIP3    H176871   3.321   1.098  12.795  0.0454  0.3949  0.8432
18460TIP3    H276872   3.181   1.044  12.813  0.1124 -0.1306 -0.1473
18461TIP3   OH276873   0.439   0.857  14.661  0.3759  0.0735  0.0981
18461TIP3    H176874   0.406   0.834  14.574  0.2825 -0.0578  0.1671
18461TIP3    H276875   0.487   0.939  14.648  0.1075  0.2136 -0.0218
18462TIP3   OH276876   1.818   6.442  13.759 -0.2885  0.1417  0.4481
18462TIP3    H176877   1.848   6.461  13.670  1.7184 -1.4722  0.6932
18462TIP3    H276878   1.729   6.409  13.748 -0.4302  0.9051 -0.8497
18463TIP3   OH276879   1.648   6.201   0.833 -0.1435  0.1839 -0.4326
18463TIP3    H176880   1.696   6.142   0.775  0.9869  0.6715 -0.0056
18463TIP3    H276881   1.563   6.157   0.846  0.2498 -0.7891 -1.0211
18464TIP3   OH276882   1.222   6.583   5.738  0.4342  0.2348 -0.4407
18464TIP3    H176883   1.301   6.530   5.746 -1.2099 -2.1145  1.2699
18464TIP3    H276884   1.174   6.545   5.664 -0.1586  0.1976 -0.0397
18465TIP3   OH276885   0.539   4.273   0.769 -0.5039 -0.1321  0.5695
18465TIP3    H176886   0.468   4.338   0.766  0.8300  1.3752  0.2615
18465TIP3    H276887   0.618   4.325   0.782  1.2396 -1.1462 -4.0525
18466TIP3   OH276888   1.578   5.223   3.229 -0.0065 -0.4741  0.5344
18466TIP3    H176889   1.642   5.179   3.286 -0.8280 -2.3290  0.0907
18466TIP3    H276890   1.567   5.309   3.269  0.8587 -1.0320  2.0944
18467TIP3   OH276891   4.118   1.688  15.084  0.2538  0.4077 -0.2776
18467TIP3    H176892   4.193   1.674  15.027 -0.5654 -1.8935 -0.8973
18467TIP3    H276893   4.129   1.777  15.117  1.7846  1.1161 -2.4948
18468TIP3   OH276894   2.913   2.005  13.502  0.1216  0.2226  1.5211
18468TIP3    H176895   2.913   1.939  13.571 -0.5848  1.0840  2.3822
18468TIP3    H276896   2.837   2.061  13.523  0.3993  0.9907  0.5331
18469TIP3   OH276897   2.668   1.793  14.375 -0.6540 -0.0277  0.1762
18469TIP3    H176898   2.633   1.707  14.352  0.7240 -1.0860  1.7607
18469TIP3    H276899   2.762   1.788  14.355 -0.3911  0.7754  1.0746
18470TIP3   OH276900   1.143   6.652   2.434 -0.2071 -0.0107  0.2970
18470TIP3    H176901   1.102   6.736   2.415 -1.8664 -0.8927 -0.3526
18470TIP3    H276902   1.124   6.636   2.526 -0.4918  0.0333  0.2481
18471TIP3   OH276903   0.595   0.359  11.220  0.2887  0.4434  0.3698
18471TIP3    H176904   0.604   0.441  11.172 -0.6063  0.2230 -0.2022
18471TIP3    H276905   0.546   0.302  11.161 -0.0772 -0.1288  1.2085
18472TIP3   OH276906   1.237   2.781   6.273 -0.2354  0.1159 -0.3687
18472TIP3    H176907   1.216   2.788   6.180 -1.5054  1.3272 -0.0314
18472TIP3    H276908   1.333   2.784   6.276 -0.1734  0.0337 -1.6304
18473TIP3   OH276909   1.545   5.511   3.262  0.2730  0.2458 -0.0370
18473TIP3    H176910   1.462   5.532   3.221 -0.5871  2.1502  2.4123
18473TIP3    H276911   1.604   5.581   3.234  0.7416 -0.4577 -0.8458
18474TIP3   OH276912   6.769   5.174  13.882 -0.2152  0.1264 -0.2340
18474TIP3    H176913   6.686   5.130  13.865  0.6032 -1.1203 -1.1528
18474TIP3    H276914   6.796   5.207  13.796  1.1924 -1.2204 -0.3443
18475TIP3   OH276915   0.904   4.778   5.962  0.2999 -0.0735 -0.0380
18475TIP3    H176916   0.817   4.754   5.931  0.2418 -1.6430  1.1945
18475TIP3    H276917   0.933   4.702   6.014  2.3481  0.4473 -0.3111
18476TIP3   OH276918   2.163   3.701  14.880  0.2981 -0.0377  0.0778
18476TIP3    H176919   2.118   3.755  14.815  0.8032  0.3525  0.0468
18476TIP3    H276920   2.112   3.713  14.960  0.3646  0.4343  0.0548
18477TIP3   OH276921   1.490   0.450   5.113 -0.0402  0.8963  0.0359
18477TIP3    H176922   1.556   0.393   5.153  0.7350 -0.4471 -2.9386
18477TIP3    H276923   1.406   0.409   5.135  0.5187 -2.2621 -2.9385
18478TIP3   OH276924   0.505   0.212  11.624 -0.2798 -0.0070  0.1783
18478TIP3    H176925   0.454   0.283  11.586  2.0807  1.2522 -0.8404
18478TIP3    H276926   0.524   0.241  11.713 -1.2006 -0.4507  0.5387
18479TIP3   OH276927   0.735   4.092  12.746  0.5685  0.7810  0.0782
18479TIP3    H176928   0.643   4.079  12.722  0.3073  1.5011  0.6756
18479TIP3    H276929   0.781   4.097  12.662  0.0410  0.5994 -0.2268
18480TIP3   OH276930   4.821   2.323   3.843  0.3789 -0.4721 -0.5765
18480TIP3    H176931   4.913   2.347   3.848  0.1484  0.6522 -1.2344
18480TIP3    H276932   4.821   2.231   3.817  1.3091 -0.5657 -0.2712
18481TIP3   OH276933   4.122   5.711  14.646  0.2318 -0.2513 -0.0333
18481TIP3    H176934   4.173   5.791  14.660 -0.2685 -0.0137  0.4749
18481TIP3    H276935   4.061   5.734  14.576 -0.3784  0.0393  0.5857
18482TIP3   OH276936   6.732   3.600   5.962 -0.0940  0.0725  0.2573
18482TIP3    H176937   6.826   3.618   5.970  0.1676 -0.6938 -0.8984
18482TIP3    H276938   6.691   3.685   5.977  0.8253  0.5797  0.0225
18483TIP3   OH276939   1.824   0.355  14.730  0.6841  0.6750 -0.6673
18483TIP3    H176940   1.730   0.342  14.713  0.2369  1.1832  1.1384
18483TIP3    H276941   1.840   0.446  14.705  0.5670  0.7360 -0.5256
18484TIP3   OH276942   3.205   0.051   1.919 -0.1149 -0.4222 -0.5010
18484TIP3    H176943   3.133   0.097   1.875 -0.3832  0.2553  0.6096
18484TIP3    H276944   3.237   0.114   1.984  0.3752 -1.3291  0.1504
18485TIP3   OH276945   2.269   5.092   2.720  0.5330 -0.3518  0.3499
18485TIP3    H176946   2.258   5.171   2.773  0.5256  0.1427 -0.3857
18485TIP3    H276947   2.243   5.117   2.632  1.5962 -0.8622 -0.1324
18486TIP3   OH276948   3.101   0.082   6.111 -0.0883 -0.0686 -0.2273
18486TIP3    H176949   3.159   0.142   6.064 -0.4191 -1.1744 -2.1741
18486TIP3    H276950   3.161   0.022   6.155  0.2546  0.0427 -0.5279
18487TIP3   OH276951   3.506   5.313  15.345  0.2417  0.8110  0.1815
18487TIP3    H176952   3.523   5.284  15.434 -0.4178 -2.3328 -0.5956
18487TIP3    H276953   3.421   5.357  15.350 -0.0168  0.2355  1.0375
18488TIP3   OH276954   5.223   2.140   6.768  0.1093  0.0655  0.1572
18488TIP3    H176955   5.163   2.204   6.804 -0.3170  0.1922 -0.7378
18488TIP3    H276956   5.168   2.062   6.752  0.7746 -0.8405  1.9804
18489TIP3   OH276957   5.648   2.968  14.158 -0.3189 -0.2875  0.3949
18489TIP3    H176958   5.652   2.873  14.169  1.2564 -0.3731 -0.5647
18489TIP3    H276959   5.684   2.983  14.070 -0.4529  1.2070  0.5775
18490TIP3   OH276960   2.807   5.173   2.432  0.6746  0.7099  0.0686
18490TIP3    H176961   2.813   5.254   2.381 -0.2990  0.5404 -0.3441
18490TIP3    H276962   2.882   5.121   2.405 -0.2397  0.2936 -1.8074
18491TIP3   OH276963   3.322   2.351  10.280 -0.3794 -0.6548  0.3410
18491TIP3    H176964   3.352   2.426  10.331 -1.0172 -1.1680  1.4872
18491TIP3    H276965   3.229   2.368  10.264  0.1286  0.3290 -2.1510
18492TIP3   OH276966   4.016   1.900  11.903 -0.3066 -0.0896  0.0399
18492TIP3    H176967   4.015   1.995  11.890 -1.8951  0.0374  0.8234
18492TIP3    H276968   3.938   1.883  11.956  0.2717 -1.7710  0.3909
18493TIP3   OH276969   2.282   5.017  12.655  0.3106  0.6299  0.7986
18493TIP3    H176970   2.210   4.990  12.713  0.0315 -1.1369 -0.2932
18493TIP3    H276971   2.313   4.936  12.616  2.8371  1.3676  1.0965
18494TIP3   OH276972   5.771   1.231   6.794  0.1829 -0.3130  0.5838
18494TIP3    H176973   5.803   1.170   6.727  1.0148  0.3899  0.3194
18494TIP3    H276974   5.848   1.284   6.817 -0.2413 -0.1278  1.6472
18495TIP3   OH276975   1.550   6.095   5.546  0.4317 -0.6388 -0.2343
18495TIP3    H176976   1.604   6.037   5.493 -0.8579 -0.0918 -2.2743
18495TIP3    H276977   1.504   6.150   5.482  1.3492  2.4582  1.5646
18496TIP3   OH276978   5.234   2.999   3.026  0.1029 -0.1386  0.3546
18496TIP3    H176979   5.289   2.930   2.990 -1.5936 -1.1114 -0.5110
18496TIP3    H276980   5.229   2.980   3.120  0.5298 -0.5473  0.2917
18497TIP3   OH276981   1.356   4.514  13.739 -0.3235 -0.1818 -0.0020
18497TIP3    H176982   1.427   4.578  13.740 -0.7467  0.3248 -1.1114
18497TIP3    H276983   1.372   4.462  13.660 -0.4125 -0.9564  0.4847
18498TIP3   OH276984   2.709   5.044   3.693  0.0660 -0.0236  0.2574
18498TIP3    H176985   2.708   4.957   3.734 -1.8140  0.3436  1.1353
18498TIP3    H276986   2.686   5.028   3.602 -0.2395 -0.4563  0.4059
18499TIP3   OH276987   4.413   3.924   3.267  0.0874  0.2256  0.1080
18499TIP3    H176988   4.348   3.973   3.317  1.4431  1.5672  0.6416
18499TIP3    H276989   4.365   3.849   3.231 -1.3976  0.3604  1.6883
18500TIP3   OH276990   4.770   0.745  15.372  0.0578 -0.1653 -0.3264
18500TIP3    H176991   4.807   0.662  15.342 -0.8305 -0.6430 -0.1560
18500TIP3    H276992   4.681   0.745  15.335 -1.2415 -0.9468  2.4879
18501TIP3   OH276993   3.074   3.964  17.024  0.0967  0.0437 -0.2445
18501TIP3    H176994   3.140   4.015  16.979 -1.4964  2.5033  0.0279
18501TIP3    H276995   3.022   3.925  16.954 -0.7420  1.6631 -0.5690
18502TIP3   OH276996   0.108   1.963  14.535 -0.0658  0.6893 -0.2999
18502TIP3    H176997   0.152   2.000  14.612 -1.8791 -1.0556  1.7170
18502TIP3    H276998   0.119   1.868  14.545 -1.8923  0.3411 -1.2072
18503TIP3   OH276999   4.396   0.120  15.165 -0.2660 -0.1571  0.2324
18503TIP3    H177000   4.415   0.205  15.204  0.4368 -0.0544 -0.3114
18503TIP3    H277001   4.390   0.060  15.240  1.2243  0.0007  0.5220
18504TIP3   OH277002   0.289   1.662   0.096 -0.0461 -0.0256  0.6238
18504TIP3    H177003   0.241   1.712   0.162  0.2788  2.3463 -0.8010
18504TIP3    H277004   0.237   1.672   0.016  2.1708  1.7264 -0.7171
18505TIP3   OH277005   5.919   1.961   1.689 -0.2047  0.7748 -0.5070
18505TIP3    H177006   5.920   2.010   1.772  2.2284  2.8564 -1.6454
18505TIP3    H277007   5.986   1.894   1.701  0.2573  1.1739 -0.7997
18506TIP3   OH277008   4.660   0.085   3.086 -0.4392 -0.2317  0.1340
18506TIP3    H177009   4.738   0.033   3.063  0.1300  1.0169 -0.8835
18506TIP3    H277010   4.587   0.025   3.072  0.2509 -1.0466 -0.1088
18507TIP3   OH277011   2.981   6.277  14.553 -0.6917 -0.0686  0.0126
18507TIP3    H177012   2.886   6.289  14.557 -0.8050 -0.5218 -0.9411
18507TIP3    H277013   3.017   6.358  14.588 -1.4299  0.0016  0.6364
18508TIP3   OH277014   0.180   0.939  16.007 -0.2950 -0.4174  0.1401
18508TIP3    H177015   0.103   0.992  15.987 -0.6649 -1.4691 -1.3564
18508TIP3    H277016   0.154   0.849  15.989  2.2040 -0.5807 -3.8625
18509TIP3   OH277017   5.177   3.122  16.565 -0.3049  0.2298 -0.1626
18509TIP3    H177018   5.261   3.124  16.519 -0.2274  0.2155 -0.0226
18509TIP3    H277019   5.156   3.028  16.572  0.4001  0.1516  1.1221
18510TIP3   OH277020   5.776   4.017   5.086 -0.0260  0.0868  0.1683
18510TIP3    H177021   5.800   4.104   5.055  1.7579  0.0537  1.3706
18510TIP3    H277022   5.718   3.983   5.018 -0.0887  1.8765 -0.7236
18511TIP3   OH277023   3.581   4.728  14.085 -0.1924  0.3049 -0.0711
18511TIP3    H177024   3.544   4.712  14.172 -0.2724 -0.5539 -0.2537
18511TIP3    H277025   3.546   4.657  14.031  0.1996  0.5855 -0.7003
18512TIP3   OH277026   0.223   1.060  12.057 -0.0239 -0.0503  0.7331
18512TIP3    H177027   0.163   1.047  11.984 -0.2936 -1.3279  1.1613
18512TIP3    H277028   0.301   1.099  12.017 -0.8646  0.9855  0.0699
18513TIP3   OH277029   4.210   4.597   1.856 -0.1245 -0.5572  0.3114
18513TIP3    H177030   4.127   4.625   1.817  0.4459 -1.7048 -1.8385
18513TIP3    H277031   4.191   4.511   1.893 -0.2327 -0.1869  1.1479
18514TIP3   OH277032   0.509   6.397   0.364  0.1108  0.0827  0.2028
18514TIP3    H177033   0.592   6.416   0.320  0.0758  1.2767  0.6357
18514TIP3    H277034   0.442   6.420   0.300  0.0918  0.2396  0.2788
18515TIP3   OH277035   4.456   5.178  15.473 -0.2852 -0.1920 -0.1953
18515TIP3    H177036   4.499   5.163  15.389 -0.0570 -1.5384  0.1366
18515TIP3    H277037   4.519   5.148  15.538 -1.0242 -0.5098  0.3874
18516TIP3   OH277038   4.172   5.606   0.178  0.5329  0.1189  0.2319
18516TIP3    H177039   4.143   5.697   0.192  0.0731 -0.1988  1.4589
18516TIP3    H277040   4.151   5.561   0.260  0.7352 -1.1122 -0.3692
18517TIP3   OH277041   0.659   0.320   0.133  0.0695 -0.0304  0.0919
18517TIP3    H177042   0.648   0.404   0.176 -0.2464 -1.1140  2.2689
18517TIP3    H277043   0.691   0.262   0.202  1.2562 -1.4673 -1.5838
18518TIP3   OH277044   1.633   5.407  11.693  0.2811 -0.1781 -0.1967
18518TIP3    H177045   1.576   5.332  11.705 -2.3143  1.8265  1.2188
18518TIP3    H277046   1.583   5.481  11.729  1.7197  2.6382 -3.3678
18519TIP3   OH277047   3.893   2.072   5.971  0.3324  0.3996  0.0346
18519TIP3    H177048   3.985   2.065   5.997  0.3032  2.5929  0.9276
18519TIP3    H277049   3.857   1.984   5.984  2.3579 -0.5784 -0.6695
18520TIP3   OH277050   2.724   2.210  13.521 -0.6086  0.6833  0.3759
18520TIP3    H177051   2.768   2.255  13.594  0.0726  0.8944 -0.1565
18520TIP3    H277052   2.641   2.180  13.558 -0.8007  1.8318  0.9202
18521TIP3   OH277053   6.711   5.776  14.572 -0.3023 -0.4006  0.0407
18521TIP3    H177054   6.758   5.820  14.643 -2.3708  2.3584 -0.1162
18521TIP3    H277055   6.703   5.843  14.504 -0.6542 -2.1533 -1.7379
18522TIP3   OH277056   1.111   1.652   0.701 -0.5263 -0.1464  0.0836
18522TIP3    H177057   1.148   1.608   0.624  0.2705  0.3329  0.1907
18522TIP3    H277058   1.016   1.647   0.687 -0.4724 -1.8757  0.0724
18523TIP3   OH277059   2.067   6.159  11.080 -0.5678 -0.7860 -0.6775
18523TIP3    H177060   1.994   6.192  11.131 -1.2179 -0.6860 -1.6449
18523TIP3    H277061   2.065   6.209  10.999  2.3036  1.2492  0.3370
18524TIP3   OH277062   2.340   6.252  11.037 -0.1909  0.0963 -0.0378
18524TIP3    H177063   2.258   6.217  11.071 -0.6664  0.0430 -1.1929
18524TIP3    H277064   2.363   6.323  11.097 -1.7042  0.8984 -0.3741
18525TIP3   OH277065   3.707   4.176  13.120  0.5996 -0.0741  0.4155
18525TIP3    H177066   3.798   4.197  13.140  0.5095 -0.7379  1.6423
18525TIP3    H277067   3.657   4.250  13.155  0.7990  2.0700 -3.3198
18526TIP3   OH277068   0.123   5.892   2.995  0.5941  0.6434 -0.8237
18526TIP3    H177069   0.053   5.884   3.060  2.6564 -1.1630  1.3525
18526TIP3    H277070   0.103   5.974   2.948 -3.4786 -0.2841 -1.0860
18527TIP3   OH277071   1.652   1.892  15.458  0.4918  0.6745  0.3484
18527TIP3    H177072   1.599   1.971  15.466  0.2339  0.7816 -1.7965
18527TIP3    H277073   1.606   1.826  15.510  0.4565  1.7790  1.7673
18528TIP3   OH277074   3.325   4.739  15.783  0.0124  0.4183  0.0366
18528TIP3    H177075   3.280   4.774  15.706  2.2689  1.3248 -0.9662
18528TIP3    H277076   3.329   4.812  15.844  3.1994  1.6617 -1.3742
18529TIP3   OH277077   5.023   2.712   4.730 -0.1710 -0.4146  0.0296
18529TIP3    H177078   4.977   2.638   4.770  0.1698  0.4132  2.0261
18529TIP3    H277079   5.048   2.768   4.803  2.7620 -0.0927 -1.1015
18530TIP3   OH277080   0.183   5.670   5.153  0.4082 -0.2814 -0.3493
18530TIP3    H177081   0.178   5.765   5.167 -0.3654 -0.3434 -0.1210
18530TIP3    H277082   0.252   5.640   5.212  0.7293  0.1535 -0.5034
18531TIP3   OH277083   4.626   0.997   4.452 -0.2185  0.0745 -0.4096
18531TIP3    H177084   4.538   1.004   4.487  0.0028  2.6161 -0.1913
18531TIP3    H277085   4.613   0.979   4.358 -0.9383 -0.0599 -0.2898
18532TIP3   OH277086   2.365   4.140   2.735  0.4000 -0.5218  0.2139
18532TIP3    H177087   2.297   4.185   2.685  0.6482 -0.6264 -0.2248
18532TIP3    H277088   2.325   4.122   2.820  0.0871 -0.0442  0.1678
18533TIP3   OH277089   3.088   4.099  12.979  0.2099  0.2947 -0.5949
18533TIP3    H177090   3.155   4.040  13.014 -2.1458 -2.5878 -0.4921
18533TIP3    H277091   3.084   4.171  13.041  1.4659 -0.7631  0.7829
18534TIP3   OH277092   3.217   0.277  15.438  0.2934 -0.2505  0.1761
18534TIP3    H177093   3.155   0.342  15.406  0.3326 -0.0100  0.5848
18534TIP3    H277094   3.219   0.210  15.370 -1.1471 -0.7589  0.5983
18535TIP3   OH277095   3.187   3.718   0.712 -0.1947  0.5789 -0.0065
18535TIP3    H177096   3.240   3.713   0.792  2.0170  1.8852 -1.2985
18535TIP3    H277097   3.164   3.626   0.694  1.3507 -0.0148  0.8128
18536TIP3   OH277098   4.221   3.337   4.521 -0.0678 -0.7057  0.8270
18536TIP3    H177099   4.273   3.344   4.441 -0.6499  0.6551  0.5460
18536TIP3    H277100   4.245   3.251   4.557  1.1918 -0.7824 -0.1030
18537TIP3   OH277101   3.494   1.596   5.343 -0.5054  0.0760  0.0157
18537TIP3    H177102   3.435   1.633   5.409 -0.2522 -0.2232  0.4162
18537TIP3    H277103   3.514   1.508   5.376  2.3230  1.0909  1.3386
18538TIP3   OH277104   4.156   4.926  10.470 -0.3433 -0.2368  0.0824
18538TIP3    H177105   4.155   4.830  10.474  0.0559 -0.2392  0.1914
18538TIP3    H277106   4.077   4.949  10.421 -0.0959 -0.6514 -0.5180
18539TIP3   OH277107   1.182   1.032   1.613  0.0257 -0.2374 -0.0987
18539TIP3    H177108   1.253   0.971   1.591  1.2724  0.4542  1.7044
18539TIP3    H277109   1.222   1.093   1.674 -1.0228  2.7230 -2.1311
18540TIP3   OH277110   4.162   3.066  11.497 -0.5215 -0.3222 -0.5462
18540TIP3    H177111   4.153   3.155  11.464  0.9856 -0.1984 -0.6854
18540TIP3    H277112   4.155   3.010  11.420 -2.0608 -0.3856 -0.3843
18541TIP3   OH277113   6.050   6.089   3.022 -0.1775  0.4899 -0.0108
18541TIP3    H177114   6.116   6.157   3.033 -0.6531  1.1186 -0.8901
18541TIP3    H277115   6.094   6.022   2.969 -0.0427  0.6091 -0.0500
18542TIP3   OH277116   5.602   4.409  11.484  0.1899 -0.0313  0.3165
18542TIP3    H177117   5.587   4.374  11.396  1.5048 -0.8810  0.4016
18542TIP3    H277118   5.515   4.415  11.522 -0.5424  1.4516 -1.4293
18543TIP3   OH277119   6.412   0.334  16.201 -0.4411  0.2820 -0.3440
18543TIP3    H177120   6.474   0.311  16.132 -0.3265  0.9529 -0.4729
18543TIP3    H277121   6.458   0.311  16.282 -1.4437 -2.6643 -0.4817
18544TIP3   OH277122   3.659   4.717  12.943 -0.2361  0.0718  0.5273
18544TIP3    H177123   3.715   4.677  12.876  0.2649 -0.8265  1.4665
18544TIP3    H277124   3.605   4.780  12.894  1.9817  1.4467 -0.3267
18545TIP3   OH277125   2.401   5.914   4.269  0.1192  0.4258 -0.5951
18545TIP3    H177126   2.392   5.820   4.283  0.8756  0.6085  1.5244
18545TIP3    H277127   2.494   5.926   4.248 -0.1566  0.6261 -1.7435
18546TIP3   OH277128   2.234   0.278   3.300  0.6139 -0.2423 -0.1941
18546TIP3    H177129   2.195   0.210   3.244  1.1261 -0.4719 -0.2833
18546TIP3    H277130   2.328   0.262   3.293  0.6726 -0.4707  0.9957
18547TIP3   OH277131   1.034   3.533  11.561  0.1388 -0.1896  0.0067
18547TIP3    H177132   1.058   3.576  11.643 -0.2626 -2.2862  1.3274
18547TIP3    H277133   1.100   3.560  11.498  0.6160  1.2742  1.0969
18548TIP3   OH277134   3.475   0.919   0.130  0.3601  0.4494 -0.1380
18548TIP3    H177135   3.387   0.885   0.113  0.5630  0.5742 -1.5796
18548TIP3    H277136   3.483   0.919   0.225 -1.3130  0.7201  0.0365
18549TIP3   OH277137   1.067   5.155   4.583 -0.1388  0.6405 -0.2366
18549TIP3    H177138   1.072   5.059   4.582  0.1973  0.6041  1.3657
18549TIP3    H277139   1.095   5.182   4.496  0.1932 -0.7106 -0.5706
18550TIP3   OH277140   6.745   5.674   4.663  0.1706  0.6723  0.9295
18550TIP3    H177141   6.654   5.702   4.657  0.3623  1.0432 -0.7078
18550TIP3    H277142   6.751   5.630   4.749 -1.7781 -0.2659  0.6477
18551TIP3   OH277143   1.739   0.890  17.190 -0.0620 -0.1284 -0.0143
18551TIP3    H177144   1.706   0.971  17.229  0.3848  0.2752 -0.4621
18551TIP3    H277145   1.800   0.919  17.123 -0.8500 -0.8059 -1.0569
18552TIP3   OH277146   6.031   5.347  10.746  0.0828 -0.8923 -0.0623
18552TIP3    H177147   5.960   5.374  10.804 -0.3038  2.1560 -1.7339
18552TIP3    H277148   6.108   5.393  10.779  0.4839 -1.3566 -0.3446
18553TIP3   OH277149   0.108   1.109  12.309 -0.6699  0.3691 -0.2970
18553TIP3    H177150   0.021   1.080  12.282 -0.8643 -0.5216  1.1336
18553TIP3    H277151   0.168   1.069  12.245 -1.1041 -1.5771  0.4446
18554TIP3   OH277152   2.372   0.921  16.045 -0.3343  0.6077  0.3603
18554TIP3    H177153   2.401   1.002  16.003 -1.3694  1.7104  1.6586
18554TIP3    H277154   2.282   0.910  16.014  0.4908 -1.3410 -1.5869
18555TIP3   OH277155   4.756   4.609   3.766  0.2379  0.4512 -0.6489
18555TIP3    H177156   4.821   4.678   3.775  0.4794  0.3221 -1.3568
18555TIP3    H277157   4.804   4.536   3.727 -0.0320 -0.0904  0.0219
18556TIP3   OH277158   4.880   2.081   4.875 -0.5902 -0.5900 -0.6061
18556TIP3    H177159   4.788   2.056   4.872 -1.0811  0.9996 -0.0320
18556TIP3    H277160   4.879   2.173   4.901  1.1921 -0.6825 -0.0466
18557TIP3   OH277161   4.486   1.577   3.628  0.2121 -0.5913 -0.0985
18557TIP3    H177162   4.519   1.601   3.541  1.9060 -1.4509  0.2560
18557TIP3    H277163   4.527   1.492   3.646 -0.5752 -0.7030  1.2975
18558TIP3   OH277164   5.378   1.890   0.284 -0.2911 -0.3061  0.2005
18558TIP3    H177165   5.405   1.965   0.337 -2.7967  0.2562  0.8206
18558TIP3    H277166   5.394   1.814   0.340 -0.0063 -0.0116  0.5229
18559TIP3   OH277167   0.576   0.288   4.899  0.2888 -0.3953 -0.1450
18559TIP3    H177168   0.533   0.205   4.878  0.0060 -0.0870 -0.8073
18559TIP3    H277169   0.506   0.354   4.892  0.4912 -0.1096  0.4542
18560TIP3   OH277170   3.239   1.396   2.725  0.2663  0.0696  0.3130
18560TIP3    H177171   3.214   1.446   2.802  0.6678  1.0502 -0.1737
18560TIP3    H277172   3.226   1.457   2.652  0.3981 -0.6692 -0.3384
18561TIP3   OH277173   4.526   0.806  13.174 -0.1755 -0.2945  0.0035
18561TIP3    H177174   4.600   0.835  13.227 -1.5954  1.8314  0.9977
18561TIP3    H277175   4.552   0.721  13.139  1.5009 -1.0160  2.7498
18562TIP3   OH277176   6.080   2.938  14.560 -0.7568  0.5988  0.6907
18562TIP3    H177177   6.001   2.956  14.510 -0.6554  1.7153  0.9133
18562TIP3    H277178   6.049   2.923  14.649 -0.7659  0.5429  0.6783
18563TIP3   OH277179   0.677   5.912  15.087  0.4774  0.4523 -0.2746
18563TIP3    H177180   0.651   5.982  15.027  0.4379  0.3276 -0.4021
18563TIP3    H277181   0.735   5.956  15.150 -1.1538  1.0495  0.8745
18564TIP3   OH277182   0.185   4.168  11.076  0.1840  0.0156 -0.1058
18564TIP3    H177183   0.091   4.187  11.080  0.0428 -0.2309 -1.6635
18564TIP3    H277184   0.204   4.164  10.982  1.8245  0.3983  0.1864
18565TIP3   OH277185   4.049   3.991   2.662  0.2716 -0.0508  0.1680
18565TIP3    H177186   4.004   4.037   2.732  0.5466  0.0107  0.3046
18565TIP3    H277187   4.121   4.049   2.637  1.7424 -1.1755  1.5837
18566TIP3   OH277188   2.634   1.414  10.913 -0.0096 -0.3629  0.7373
18566TIP3    H177189   2.676   1.485  10.961 -2.1134  0.9017  0.8170
18566TIP3    H277190   2.582   1.368  10.979 -0.4666 -0.5369  0.2648
18567TIP3   OH277191   5.404   0.400  15.077  0.0462  0.3414 -0.4748
18567TIP3    H177192   5.407   0.354  15.161  2.3946 -0.7973 -1.1133
18567TIP3    H277193   5.404   0.493  15.101 -1.3131  0.0646  0.7751
18568TIP3   OH277194   5.113   4.932  13.540  0.3623 -0.1709  0.3702
18568TIP3    H177195   5.183   4.940  13.604  1.2999  2.7938 -0.8392
18568TIP3    H277196   5.135   4.854  13.489  2.5222  0.3698  0.3748
18569TIP3   OH277197   4.272   1.888   2.396 -0.0507  0.0267 -0.2794
18569TIP3    H177198   4.251   1.827   2.468  1.7033  0.6597  0.8333
18569TIP3    H277199   4.188   1.926   2.372 -0.9114 -1.3802  0.3454
18570TIP3   OH277200   5.720   0.826  13.262  0.0091  0.3104 -0.6385
18570TIP3    H177201   5.714   0.734  13.291 -0.9053 -0.0936 -2.0450
18570TIP3    H277202   5.639   0.865  13.292  0.2391  0.5803 -0.3607
18571TIP3   OH277203   3.567   1.409   2.504  0.0855 -0.6398 -0.3929
18571TIP3    H177204   3.657   1.386   2.480  0.1443 -0.9108  0.0642
18571TIP3    H277205   3.541   1.476   2.441  0.6175 -0.5417 -0.5104
18572TIP3   OH277206   5.607   3.425   1.553 -0.4981 -0.2042  0.2609
18572TIP3    H177207   5.597   3.429   1.458  2.1382  1.0846 -0.0602
18572TIP3    H277208   5.621   3.332   1.572 -0.0188 -0.3596 -0.7750
18573TIP3   OH277209   1.433   0.135   1.656 -0.1071 -0.0876 -0.1507
18573TIP3    H177210   1.439   0.227   1.628 -0.1875 -0.4845 -1.5048
18573TIP3    H277211   1.422   0.086   1.575  0.7583 -1.3778  0.4870
18574TIP3   OH277212   1.828   6.061   6.137  0.4410  0.5643  0.4267
18574TIP3    H177213   1.864   6.122   6.073  3.2871 -1.9795 -0.6472
18574TIP3    H277214   1.824   6.111   6.218 -1.2177  3.2566 -1.1794
18575TIP3   OH277215   3.180   4.363   0.035  0.0778  0.1390 -0.7860
18575TIP3    H177216   3.120   4.319  -0.025  1.1500  0.0996 -1.8500
18575TIP3    H277217   3.207   4.442  -0.011  1.2372 -0.0993 -0.5517
18576TIP3   OH277218   2.492   6.581  12.284  0.4498 -0.2816  0.0741
18576TIP3    H177219   2.535   6.537  12.357  1.5790 -0.1342 -0.4787
18576TIP3    H277220   2.536   6.547  12.206 -2.1250 -2.0510 -0.7500
18577TIP3   OH277221   1.586   2.125   3.489 -1.1732  0.2503 -0.1404
18577TIP3    H177222   1.529   2.111   3.414 -2.7776 -1.2465  1.2662
18577TIP3    H277223   1.554   2.206   3.530 -1.8669 -0.2176  0.2564
18578TIP3   OH277224   6.319   4.097  10.642  0.2864 -0.2496  0.4637
18578TIP3    H177225   6.385   4.095  10.711  1.1487  2.3582 -0.1970
18578TIP3    H277226   6.252   4.157  10.674  0.3834  0.4892 -0.6790
18579TIP3   OH277227   4.457   4.958  13.543  0.0714 -0.4183 -0.2671
18579TIP3    H177228   4.472   4.959  13.637  0.9780  0.9190 -0.3929
18579TIP3    H277229   4.363   4.970  13.533 -0.5110 -3.5918  0.4786
18580TIP3   OH277230   6.351   1.369  14.245  0.0482 -0.3915 -0.3166
18580TIP3    H177231   6.386   1.284  14.274 -2.4929 -1.9125 -1.3440
18580TIP3    H277232   6.318   1.410  14.325  1.4586 -0.2651  0.2168
18581TIP3   OH277233   1.805   2.785  15.808 -0.3013 -0.6358  0.0724
18581TIP3    H177234   1.774   2.765  15.719 -0.5404  3.7152 -1.0640
18581TIP3    H277235   1.742   2.848  15.842  0.6726 -0.9764  2.7416
18582TIP3   OH277236   3.295   0.094  15.694  0.1179  0.0037  0.1215
18582TIP3    H177237   3.310   0.168  15.636 -0.0409 -0.3244 -0.3413
18582TIP3    H277238   3.297   0.131  15.782  0.7299  0.4453 -0.0739
18583TIP3   OH277239   4.296   5.274  10.833  0.2070 -0.6163  0.1358
18583TIP3    H177240   4.275   5.329  10.758  1.4153  0.6754  0.7062
18583TIP3    H277241   4.283   5.330  10.909 -2.2501 -2.2798  1.0458
18584TIP3   OH277242   2.907   3.551   0.634  0.3434 -0.4398 -0.1862
18584TIP3    H177243   2.929   3.621   0.696  0.0896 -2.2552  2.1087
18584TIP3    H277244   2.890   3.596   0.552  4.4682  1.8514 -0.0798
18585TIP3   OH277245   3.779   1.071  11.229  0.3704 -1.0257  0.4547
18585TIP3    H177246   3.720   1.034  11.163 -0.0926 -1.1407  0.9262
18585TIP3    H277247   3.748   1.160  11.242  0.4916 -0.9872  0.4807
18586TIP3   OH277248   3.852   2.811   2.323  0.3433  0.2832 -0.4894
18586TIP3    H177249   3.943   2.800   2.348  0.1761 -0.1336 -0.0392
18586TIP3    H277250   3.831   2.902   2.345 -0.5140 -0.6763  3.4089
18587TIP3   OH277251   4.042   6.558  15.381 -0.2948  0.5559 -0.4494
18587TIP3    H177252   4.055   6.515  15.466 -0.8565 -0.5069 -0.8690
18587TIP3    H277253   4.125   6.601  15.363  0.1944 -0.1003  0.1553
18588TIP3   OH277254   4.191   0.274   2.030  0.2898  0.7934  0.2201
18588TIP3    H177255   4.106   0.239   2.058 -0.6665  1.0358 -2.1380
18588TIP3    H277256   4.256   0.219   2.075 -1.1290 -0.6794  0.5601
18589TIP3   OH277257   3.675   2.528  15.526 -0.1476  0.7102 -0.5137
18589TIP3    H177258   3.658   2.503  15.617 -2.1635  2.2799 -0.3841
18589TIP3    H277259   3.744   2.594  15.532  1.1645 -0.6238 -0.3565
18590TIP3   OH277260   5.124   5.094  11.471  0.2287  0.3621  0.1943
18590TIP3    H177261   5.107   5.082  11.565  2.0596  0.5037  0.5737
18590TIP3    H277262   5.208   5.140  11.468  0.2536  0.2447 -1.5304
18591TIP3   OH277263   2.612   0.762  14.252  0.5972  0.2371  0.1028
18591TIP3    H177264   2.605   0.810  14.335 -1.1109 -0.1151  0.1989
18591TIP3    H277265   2.702   0.731  14.249  0.7779  0.5631  1.6655
18592TIP3   OH277266   0.250   0.073  10.474 -0.4500  0.4165  0.6050
18592TIP3    H177267   0.265   0.156  10.519 -2.0383 -0.6478  3.3574
18592TIP3    H277268   0.297   0.008  10.527 -1.6110 -0.7760  0.2384
18593TIP3   OH277269   1.788   1.006  11.056 -0.4973  0.4703 -0.4962
18593TIP3    H177270   1.839   1.007  11.136 -0.2043 -2.4523 -0.5403
18593TIP3    H277271   1.728   1.080  11.064  0.3958  1.0057  1.8037
18594TIP3   OH277272   6.383   2.421   4.362  0.1665 -0.6387  0.5493
18594TIP3    H177273   6.289   2.434   4.367 -0.0909 -2.0806 -0.2439
18594TIP3    H277274   6.396   2.355   4.294  1.6628 -1.3490  1.4487
18595TIP3   OH277275   1.513   2.972   5.756 -0.8215 -1.1536 -0.1666
18595TIP3    H177276   1.482   2.901   5.700  2.6861 -3.1756  0.2086
18595TIP3    H277277   1.516   2.934   5.844  2.9775 -1.3738 -0.2539
18596TIP3   OH277278   1.167   6.518   3.882  0.3354 -0.1338 -0.7787
18596TIP3    H177279   1.177   6.503   3.789 -1.2133 -3.4232 -0.5199
18596TIP3    H277280   1.134   6.608   3.888 -1.3730 -0.4753 -3.5277
18597TIP3   OH277281   4.496   2.191   3.496  0.4130  0.9183 -0.5490
18597TIP3    H177282   4.558   2.139   3.548  1.5594 -0.0510 -2.7234
18597TIP3    H277283   4.418   2.136   3.489  0.6748  0.5695 -0.7584
18598TIP3   OH277284   3.204   4.616  11.455  0.8090 -0.4143 -0.1024
18598TIP3    H177285   3.273   4.616  11.522  1.2862  1.9093 -0.5261
18598TIP3    H277286   3.133   4.667  11.494 -0.4422 -2.1430  0.0203
18599TIP3   OH277287   3.847   3.235  16.297  0.3075  0.1760  0.1219
18599TIP3    H177288   3.851   3.293  16.374  1.0505  0.8800 -0.4253
18599TIP3    H277289   3.934   3.195  16.294  0.3739  0.3554 -0.4940
18600TIP3   OH277290   5.021   5.208   3.943 -0.1022 -1.2522 -0.0626
18600TIP3    H177291   5.098   5.152   3.939 -0.8390 -2.2590 -0.3795
18600TIP3    H277292   4.983   5.203   3.855 -0.2837 -0.4007 -0.0398
18601TIP3   OH277293   3.944   2.449  12.952  0.6014 -0.7148  0.4405
18601TIP3    H177294   3.948   2.356  12.972 -2.9607 -0.9899  0.5660
18601TIP3    H277295   3.907   2.489  13.030  0.1793  0.4660 -0.3356
18602TIP3   OH277296   2.109   6.570  12.835  0.5321 -0.5416 -0.1776
18602TIP3    H177297   2.023   6.601  12.863  0.6709 -0.1687 -0.1527
18602TIP3    H277298   2.132   6.501  12.897  0.8395  0.2703  0.6266
18603TIP3   OH277299   0.392   4.974  15.775  0.5145  0.2990  0.3477
18603TIP3    H177300   0.398   5.065  15.745  0.9875  0.6207  1.3615
18603TIP3    H277301   0.300   4.951  15.766  0.6790  0.2576 -1.6276
18604TIP3   OH277302   2.130   0.933  15.960 -0.2245 -0.2336 -0.5181
18604TIP3    H177303   2.046   0.935  15.914 -0.2375  0.2613 -0.4772
18604TIP3    H277304   2.139   1.020  15.998 -0.6467 -0.9019  1.2101
18605TIP3   OH277305   3.659   0.734  12.045 -0.0132  0.1583  0.5204
18605TIP3    H177306   3.737   0.790  12.049 -0.3050  0.5183  3.2807
18605TIP3    H277307   3.684   0.655  12.092 -1.2816  0.2990  1.4945
18606TIP3   OH277308   1.819   5.716  11.000  0.2263  0.5543  0.3043
18606TIP3    H177309   1.754   5.705  11.069  0.8682 -1.5834  0.6276
18606TIP3    H277310   1.864   5.798  11.022 -0.6138  0.7077  1.5304
18607TIP3   OH277311   5.079   3.937  17.086  0.0203 -0.1921 -0.1561
18607TIP3    H177312   5.139   4.004  17.118 -0.5363  1.3434 -2.1169
18607TIP3    H277313   5.058   3.885  17.163  0.1923  2.1022  1.5548
18608TIP3   OH277314   2.878   3.155  13.891 -0.8463 -0.5474  0.4404
18608TIP3    H177315   2.793   3.116  13.873 -0.6564 -0.1308 -1.5792
18608TIP3    H277316   2.939   3.082  13.892 -0.3724 -0.4891 -4.0360
18609TIP3   OH277317   6.651   2.512   2.185 -0.2955  0.0737  0.0952
18609TIP3    H177318   6.731   2.564   2.172 -0.9172  0.7720 -1.0617
18609TIP3    H277319   6.675   2.449   2.253  1.6696 -0.6035 -1.1257
18610TIP3   OH277320   6.348   2.465   0.355 -0.3271  0.4091  0.0355
18610TIP3    H177321   6.293   2.398   0.396  0.5554 -1.1966 -1.2720
18610TIP3    H277322   6.331   2.456   0.261  1.0637  0.8622 -0.2798
18611TIP3   OH277323   2.960   0.205   1.810 -0.4175 -0.1656 -1.3304
18611TIP3    H177324   2.982   0.149   1.736  0.4727  0.7474 -1.7721
18611TIP3    H277325   2.998   0.290   1.789 -1.7533  0.6303 -0.6827
18612TIP3   OH277326   1.862   5.164  10.977  0.2340 -0.2614  0.2391
18612TIP3    H177327   1.802   5.106  10.932  2.3891 -3.0587  0.7087
18612TIP3    H277328   1.870   5.128  11.065  1.8444  0.5597  0.4874
18613TIP3   OH277329   6.465   2.092  11.440 -0.5035 -0.2786 -0.3562
18613TIP3    H177330   6.466   1.997  11.425  2.3890 -0.3358 -0.4169
18613TIP3    H277331   6.529   2.127  11.378 -1.4709  1.7440 -0.2993
18614TIP3   OH277332   1.179   4.173   0.753  0.2925  0.4051  0.1682
18614TIP3    H177333   1.191   4.079   0.739 -0.4994  0.2835  0.2618
18614TIP3    H277334   1.251   4.214   0.706  0.6475 -0.2495  0.1297
18615TIP3   OH277335   3.574   0.467   4.006  0.1752 -0.6376  0.3444
18615TIP3    H177336   3.639   0.400   4.027  0.6051 -0.1439  0.6340
18615TIP3    H277337   3.584   0.483   3.912  0.4132 -0.6314  0.3704
18616TIP3   OH277338   2.030   6.598  14.604 -0.0659 -0.4352  0.0312
18616TIP3    H177339   2.088   6.602  14.527 -0.4195 -2.6037 -0.4079
18616TIP3    H277340   1.978   6.678  14.598  2.5800  1.4786  0.2714
18617TIP3   OH277341   2.459   5.596   2.270  0.5159 -0.1689 -0.6251
18617TIP3    H177342   2.506   5.517   2.297 -0.2962 -0.7503 -0.8858
18617TIP3    H277343   2.411   5.624   2.348  0.2981 -0.3017 -0.7112
18618TIP3   OH277344   1.402   6.708  14.467  0.1478  0.3961  0.3425
18618TIP3    H177345   1.435   6.685  14.554  0.2703  0.0234  0.1998
18618TIP3    H277346   1.307   6.711  14.478  0.0890 -0.6448  0.2676
18619TIP3   OH277347   1.430   4.243   4.302 -0.1707  0.0946  0.3238
18619TIP3    H177348   1.484   4.164   4.306 -1.7275 -0.9692  1.1832
18619TIP3    H277349   1.395   4.245   4.213 -0.2865 -0.2931  0.3604
18620TIP3   OH277350   3.231   4.059   4.439 -0.8579 -0.2367  0.3022
18620TIP3    H177351   3.285   4.009   4.499 -0.6909 -0.1316  0.2408
18620TIP3    H277352   3.174   3.995   4.397 -1.7785 -0.1784  1.3993
18621TIP3   OH277353   0.755   3.831  13.240  0.0158  0.6279 -0.3841
18621TIP3    H177354   0.673   3.880  13.241  0.7742  1.9501  0.8234
18621TIP3    H277355   0.819   3.892  13.203  1.0478  0.7383  1.4366
18622TIP3   OH277356   3.366   2.089  15.734  0.0818  0.6359  0.1852
18622TIP3    H177357   3.419   2.041  15.797  0.0788  0.4913  0.0779
18622TIP3    H277358   3.372   2.038  15.653 -2.7830 -1.1896  0.9646
18623TIP3   OH277359   2.178   1.382  10.785  0.3926 -0.1773  0.2500
18623TIP3    H177360   2.145   1.424  10.864 -1.5460 -2.5929  0.8482
18623TIP3    H277361   2.100   1.366  10.732  1.4814  0.0298 -1.4862
18624TIP3   OH277362   0.968   2.667  12.963  0.2625  0.3761  0.0358
18624TIP3    H177363   0.985   2.758  12.938 -0.4534  0.3741 -0.5189
18624TIP3    H277364   0.901   2.638  12.900  1.4066 -0.9383 -0.6267
18625TIP3   OH277365   4.605   0.450  15.969  0.3437  0.2544 -0.3296
18625TIP3    H177366   4.619   0.544  15.954 -0.5233  0.3258 -0.7941
18625TIP3    H277367   4.547   0.424  15.898  0.4493 -0.6040 -0.1064
18626TIP3   OH277368   2.030   2.365   0.625 -0.1705  0.3861 -0.4038
18626TIP3    H177369   2.081   2.295   0.666 -1.1194 -0.0875 -0.0048
18626TIP3    H277370   2.052   2.444   0.674  1.1470  0.4629 -1.0495
18627TIP3   OH277371   5.360   1.790  12.814 -0.0900  0.7640  0.2217
18627TIP3    H177372   5.336   1.781  12.722 -1.0057  1.1657  0.4095
18627TIP3    H277373   5.396   1.704  12.838 -1.2403  0.1634 -0.1211
18628TIP3   OH277374   0.781   3.547  16.305 -1.0699  0.2646  0.2114
18628TIP3    H177375   0.857   3.557  16.247 -1.0722  1.4264  0.3732
18628TIP3    H277376   0.818   3.528  16.391 -0.9295  1.0554  0.3381
18629TIP3   OH277377   0.687   6.670   1.638 -0.3043 -0.0943 -0.2293
18629TIP3    H177378   0.698   6.696   1.547  0.7498 -1.6881 -0.6024
18629TIP3    H277379   0.772   6.688   1.679 -0.3877 -0.4820  0.1296
18630TIP3   OH277380   1.574   1.350   1.497 -0.5816  0.6865  0.3387
18630TIP3    H177381   1.582   1.340   1.402  0.4357  0.0716  0.4717
18630TIP3    H277382   1.634   1.421   1.518 -0.6383  0.6701  0.5512
18631TIP3   OH277383   1.140   3.995   6.184  0.2924 -0.1442 -0.2321
18631TIP3    H177384   1.216   3.937   6.177 -0.0321 -0.5881 -0.1075
18631TIP3    H277385   1.178   4.081   6.206  0.7691 -0.3188 -0.3549
18632TIP3   OH277386   2.852   5.305   0.486 -0.0181  0.4178 -0.2765
18632TIP3    H177387   2.920   5.370   0.469 -0.1259  1.0159  1.4198
18632TIP3    H277388   2.879   5.263   0.568 -0.0731 -1.5425 -1.2062
18633TIP3   OH277389   1.912   3.842   4.489  0.0194 -0.2449  0.1653
18633TIP3    H177390   1.824   3.823   4.458 -0.0422 -0.6571  0.5625
18633TIP3    H277391   1.933   3.768   4.547 -0.6018  1.3445  2.5855
18634TIP3   OH277392   2.215   1.795   2.319  0.3848  0.6533  0.2834
18634TIP3    H177393   2.309   1.778   2.313  0.2419  0.1052 -0.5543
18634TIP3    H277394   2.196   1.852   2.245  0.1371  1.1914  0.7499
18635TIP3   OH277395   3.401   1.719  15.186  0.0506 -0.3039 -0.3435
18635TIP3    H177396   3.494   1.720  15.205  0.1952 -2.5770 -0.5617
18635TIP3    H277397   3.384   1.630  15.155 -1.2468  1.2956 -5.1635
18636TIP3   OH277398   2.789   5.028   5.379  0.0151  0.0776  0.2170
18636TIP3    H177399   2.791   5.083   5.458  0.7865 -0.4897  0.6087
18636TIP3    H277400   2.776   5.090   5.307 -0.8868  0.5836  0.8047
18637TIP3   OH277401   3.165   6.288  16.303 -0.0042  0.7016 -0.0341
18637TIP3    H177402   3.221   6.330  16.237 -0.1544  1.8495  0.5473
18637TIP3    H277403   3.080   6.331  16.294 -0.8683 -1.0820 -0.9553
18638TIP3   OH277404   1.875   1.618  15.674  0.2871 -0.9153  0.2642
18638TIP3    H177405   1.849   1.701  15.714  0.3484  0.3140 -2.0623
18638TIP3    H277406   1.801   1.560  15.687 -0.6320  0.1936  0.1245
18639TIP3   OH277407   2.869   5.373  16.233 -0.5041  0.4312  0.1018
18639TIP3    H177408   2.782   5.363  16.270 -1.0083 -0.1704 -1.2037
18639TIP3    H277409   2.888   5.466  16.239 -2.0701  0.8914 -1.3872
18640TIP3   OH277410   2.586   1.145   1.079 -0.2030 -0.3357 -0.0264
18640TIP3    H177411   2.646   1.073   1.098  0.3288  0.1352  0.1337
18640TIP3    H277412   2.602   1.165   0.987  1.8182  1.4859  0.6386
18641TIP3   OH277413   6.557   6.695  13.665  0.0103  0.3763  0.5066
18641TIP3    H177414   6.644   6.665  13.691 -0.3496 -0.0202  1.2782
18641TIP3    H277415   6.515   6.721  13.747 -0.4664  0.9241  0.0955
18642TIP3   OH277416   2.193   1.887  16.042  0.1573  0.4136 -0.4816
18642TIP3    H177417   2.220   1.809  15.994 -0.7849 -0.2099 -0.0388
18642TIP3    H277418   2.146   1.940  15.978 -2.1381 -0.9582 -0.0650
18643TIP3   OH277419   1.199   5.533  16.949  0.3588  0.5525  0.6861
18643TIP3    H177420   1.274   5.589  16.967  0.9058 -0.6783  2.6029
18643TIP3    H277421   1.236   5.445  16.939 -0.7021  0.1311  0.2009
18644TIP3   OH277422   5.438   6.592  16.701 -0.2687  0.6477  0.3305
18644TIP3    H177423   5.369   6.630  16.647 -0.0759  0.3343 -0.1516
18644TIP3    H277424   5.465   6.663  16.759 -0.3410  1.0595 -0.1304
18645TIP3   OH277425   2.096   1.866   0.777 -1.0425  0.3355 -0.7805
18645TIP3    H177426   2.109   1.803   0.706 -0.1174 -2.3222  1.5083
18645TIP3    H277427   2.023   1.829   0.828 -0.8535  1.4325  0.3282
18646TIP3   OH277428   0.433   4.500  13.517  0.1970 -0.1318 -0.0322
18646TIP3    H177429   0.483   4.518  13.597 -0.3825  3.0283 -0.2516
18646TIP3    H277430   0.372   4.431  13.543  2.0101 -1.3259  1.3342
18647TIP3   OH277431   6.349   6.570  12.807 -0.2283  0.0357  0.0247
18647TIP3    H177432   6.391   6.521  12.878  0.1560  0.3858  0.0456
18647TIP3    H277433   6.274   6.516  12.781  1.7130 -2.0150 -1.8361
18648TIP3   OH277434   0.631   0.449  16.974  0.2409 -0.2481  0.4398
18648TIP3    H177435   0.715   0.482  17.006 -0.5659  0.9337  1.4390
18648TIP3    H277436   0.634   0.355  16.991  1.1487 -0.1397  0.9428
18649TIP3   OH277437   2.056   3.938  11.379 -0.3088 -0.5413  0.3720
18649TIP3    H177438   2.054   3.845  11.402 -0.9435 -0.4927  0.5221
18649TIP3    H277439   2.147   3.964  11.393  0.2678 -1.5264 -1.2634
18650TIP3   OH277440   2.496   5.908   3.331  0.0726  0.4692  0.6320
18650TIP3    H177441   2.548   5.831   3.353 -1.1881  0.0003  2.1245
18650TIP3    H277442   2.538   5.943   3.252 -0.4247 -2.8177 -1.2770
18651TIP3   OH277443   6.326   6.297   3.451 -0.2780  0.1318 -0.0563
18651TIP3    H177444   6.351   6.386   3.476  0.2900  0.2802 -1.0855
18651TIP3    H277445   6.409   6.254   3.431 -0.6212 -0.2903 -0.6237
18652TIP3   OH277446   4.760   4.409  13.467 -0.3760 -0.2111 -0.7690
18652TIP3    H177447   4.839   4.437  13.514 -0.4982 -0.7807 -0.2103
18652TIP3    H277448   4.688   4.449  13.516 -0.3919  2.1831 -2.5522
18653TIP3   OH277449   4.876   5.560  16.443  0.9717 -0.2488 -0.1882
18653TIP3    H177450   4.808   5.599  16.387  0.0269  0.9530  1.6925
18653TIP3    H277451   4.890   5.473  16.406 -0.2466  0.1754 -1.7590
18654TIP3   OH277452   5.107   6.326   3.523  0.5383 -0.1999 -0.1944
18654TIP3    H177453   5.128   6.280   3.442  0.5268 -0.3833 -0.0939
18654TIP3    H277454   5.034   6.383   3.500  2.5033  2.1528 -1.1535
18655TIP3   OH277455   5.266   6.529  11.791  0.2738  0.2189  0.1478
18655TIP3    H177456   5.270   6.618  11.825 -0.4240  0.8754 -1.3961
18655TIP3    H277457   5.240   6.539  11.699 -2.8743 -1.6654  0.6558
18656TIP3   OH277458   6.431   5.910   0.931 -0.6651  0.0418 -0.3993
18656TIP3    H177459   6.450   5.998   0.964 -0.3185 -0.8264  1.8690
18656TIP3    H277460   6.336   5.910   0.917 -1.0162  0.1490  1.6962
18657TIP3   OH277461   4.211   1.863  12.310  0.0576  0.2701 -0.1637
18657TIP3    H177462   4.267   1.842  12.385 -0.5567  2.6766  1.0537
18657TIP3    H277463   4.124   1.833  12.336 -0.4108  2.2680  0.6903
18658TIP3   OH277464   3.495   3.188   0.813  0.9509  0.0736 -0.4725
18658TIP3    H177465   3.576   3.140   0.830  1.4452  1.2591  0.6764
18658TIP3    H277466   3.492   3.198   0.718  1.2461 -1.4835 -0.6659
18659TIP3   OH277467   1.125   4.056   2.274  0.0560  0.7465 -0.6053
18659TIP3    H177468   1.099   4.148   2.269  0.6694  1.0019  0.6385
18659TIP3    H277469   1.179   4.050   2.353 -0.1907 -0.7344 -0.5173
18660TIP3   OH277470   5.470   3.901   2.538  0.4239 -0.0605  0.1109
18660TIP3    H177471   5.508   3.953   2.467 -0.9792 -0.4830 -1.0013
18660TIP3    H277472   5.544   3.879   2.594  1.1991  2.5076  0.2529
18661TIP3   OH277473   4.421   6.117  15.313 -0.5460 -0.1891 -0.3697
18661TIP3    H177474   4.430   6.115  15.218  1.0232 -0.0410 -0.2574
18661TIP3    H277475   4.433   6.209  15.336  0.3353 -0.3951  0.0472
18662TIP3   OH277476   4.498   0.716  15.616 -0.0835 -0.2173  0.4311
18662TIP3    H177477   4.563   0.650  15.591  0.0719  0.1742 -0.2096
18662TIP3    H277478   4.445   0.673  15.684 -0.1623 -1.1049 -0.1771
18663TIP3   OH277479   5.284   0.688   2.856 -0.3435  0.7574 -0.1433
18663TIP3    H177480   5.228   0.693   2.933 -1.9343 -0.2344 -1.1691
18663TIP3    H277481   5.356   0.748   2.874  0.1419 -0.5068  2.7309
18664TIP3   OH277482   3.397   4.291  15.640 -0.0289  0.4259  0.0805
18664TIP3    H177483   3.310   4.333  15.635 -0.4765 -0.5582 -1.1296
18664TIP3    H277484   3.456   4.362  15.665 -1.1896  1.1012  1.0387
18665TIP3   OH277485   5.409   4.411  11.673  0.2081  0.5567 -0.1985
18665TIP3    H177486   5.461   4.363  11.737 -1.8576  1.4397  2.3142
18665TIP3    H277487   5.333   4.355  11.656 -0.5114  1.4249  0.0996
18666TIP3   OH277488   0.232   6.640   4.576  0.3017  0.2703 -0.3026
18666TIP3    H177489   0.154   6.592   4.602 -0.7721  2.2356  0.3122
18666TIP3    H277490   0.211   6.676   4.490  0.9833 -0.1267 -0.6421
18667TIP3   OH277491   1.270   5.027  14.324 -0.0443  0.2863  0.3514
18667TIP3    H177492   1.342   5.075  14.283 -0.3757  0.6828  0.2283
18667TIP3    H277493   1.303   4.938  14.334 -0.2017  0.0059 -1.4159
18668TIP3   OH277494   5.794   0.905   0.229  0.0850  0.0016 -0.0670
18668TIP3    H177495   5.826   0.833   0.283 -1.2875 -1.1651 -0.7184
18668TIP3    H277496   5.831   0.984   0.268  1.9257 -1.0662  0.4672
18669TIP3   OH277497   6.024   5.420  16.116 -0.3823 -0.4102 -0.1525
18669TIP3    H177498   6.051   5.499  16.070 -1.5172 -0.4962 -1.0263
18669TIP3    H277499   5.984   5.451  16.197  1.4483 -0.2424  0.7156
18670TIP3   OH277500   1.405   6.502  10.667  0.0138 -0.0592  0.3381
18670TIP3    H177501   1.437   6.578  10.715  1.5615 -0.5456  0.1183
18670TIP3    H277502   1.312   6.520  10.654  0.0161  1.0588  1.6520
18671TIP3   OH277503   3.546   1.556   3.340  0.1004  0.2400  0.8171
18671TIP3    H177504   3.511   1.640   3.311 -1.7813 -0.9130 -0.4733
18671TIP3    H277505   3.518   1.548   3.431 -3.3049 -0.6554 -0.1708
18672TIP3   OH277506   1.788   5.188  16.436  0.5345 -0.0006  0.0712
18672TIP3    H177507   1.732   5.122  16.395  0.3337  1.5580 -2.3398
18672TIP3    H277508   1.870   5.183  16.387  1.0030  0.5931  0.7808
18673TIP3   OH277509   0.728   1.098   6.735 -0.6412  0.1203  0.1494
18673TIP3    H177510   0.763   1.015   6.768  0.4821  0.2772 -0.5848
18673TIP3    H277511   0.641   1.105   6.775 -0.2530 -0.7978  1.2088
18674TIP3   OH277512   3.454   4.123  14.798  0.5412 -0.0734  0.3913
18674TIP3    H177513   3.511   4.117  14.876  0.1690 -2.2804  0.5415
18674TIP3    H277514   3.407   4.040  14.796 -1.7505  1.1667 -0.4856
18675TIP3   OH277515   0.951   6.624  15.989  0.1313 -0.6105  0.6792
18675TIP3    H177516   0.966   6.548  16.046 -0.2219 -0.8764  0.4182
18675TIP3    H277517   0.866   6.658  16.015  1.6297  1.7331  3.0995
18676TIP3   OH277518   5.849   5.049   3.704  0.1999 -0.4116 -0.1137
18676TIP3    H177519   5.859   5.137   3.742  0.7863  0.0766 -1.3356
18676TIP3    H277520   5.846   4.991   3.780 -1.5535  0.7627  0.7975
18677TIP3   OH277521   4.400   6.647   4.402 -0.2429 -0.4178  0.3234
18677TIP3    H177522   4.313   6.626   4.366 -0.0662  1.1408 -1.1366
18677TIP3    H277523   4.436   6.562   4.429 -1.8299 -1.2091  0.0841
18678TIP3   OH277524   1.422   6.318   0.567  0.3441 -0.0569 -0.3621
18678TIP3    H177525   1.370   6.238   0.566  0.0890  0.0427  1.5442
18678TIP3    H277526   1.509   6.290   0.536 -0.1656 -0.7072 -1.2629
18679TIP3   OH277527   3.709   6.314  13.974  0.1718  0.1968 -0.0316
18679TIP3    H177528   3.745   6.237  14.018 -0.8607  0.1928  0.8483
18679TIP3    H277529   3.766   6.386  14.003  0.3428 -0.0275  0.1954
18680TIP3   OH277530   3.005   2.101   1.632 -0.1457 -0.4341  0.0189
18680TIP3    H177531   2.967   2.140   1.553  1.5014  0.0398 -0.5900
18680TIP3    H277532   3.084   2.056   1.601 -0.3216 -1.6220  1.1795
18681TIP3   OH277533   2.708   2.451  12.103  0.2111 -0.6510  0.8020
18681TIP3    H177534   2.674   2.497  12.180 -0.4443  0.1277  0.0662
18681TIP3    H277535   2.636   2.392  12.078  0.8134 -1.6620  1.3762
18682TIP3   OH277536   1.639   4.566  13.554  0.8271  0.3062 -0.2928
18682TIP3    H177537   1.708   4.632  13.544  1.5110 -0.4539 -0.6958
18682TIP3    H277538   1.628   4.529  13.466  0.7201 -0.3770 -0.0002
18683TIP3   OH277539   1.701   3.103   6.490  0.3861 -0.4357  0.2097
18683TIP3    H177540   1.606   3.112   6.477  0.4375  0.2560  0.3057
18683TIP3    H277541   1.738   3.105   6.402  0.4082  0.4828  0.2307
18684TIP3   OH277542   0.480   5.343   0.266 -0.3022  0.7465  0.1937
18684TIP3    H177543   0.475   5.273   0.201  1.0232  0.2637  0.5745
18684TIP3    H277544   0.495   5.423   0.214  1.0907  0.3208 -0.1026
18685TIP3   OH277545   4.058   0.230  15.904  0.1835  0.4299  0.1405
18685TIP3    H177546   4.061   0.141  15.868  0.1057 -0.6225  2.5250
18685TIP3    H277547   3.968   0.258  15.893  0.7136  1.3224 -2.8999
18686TIP3   OH277548   3.568   3.888  12.279  0.0651  0.8192  0.3829
18686TIP3    H177549   3.544   3.876  12.187  0.8771 -1.4981  0.4007
18686TIP3    H277550   3.663   3.874  12.280 -0.0613 -0.1374  1.6778
18687TIP3   OH277551   0.047   3.637   3.365  0.2852 -0.4056  0.3400
18687TIP3    H177552   0.074   3.568   3.304 -0.5348  0.0577 -0.5705
18687TIP3    H277553   0.111   3.707   3.352 -0.4693  0.1048 -0.7579
18688TIP3   OH277554   4.133   1.074  14.657 -0.1866  0.0810  0.0453
18688TIP3    H177555   4.170   0.989  14.630  0.7122  0.5790 -0.3154
18688TIP3    H277556   4.071   1.051  14.725 -0.0949 -0.8995 -0.1772
18689TIP3   OH277557   2.329   1.491  12.841 -0.0428 -0.4994  0.1738
18689TIP3    H177558   2.362   1.521  12.926  0.4829 -1.3210  0.2735
18689TIP3    H277559   2.296   1.570  12.799 -0.6755 -0.1259  1.3036
18690TIP3   OH277560   4.421   6.297   3.566 -0.8125 -0.0122 -0.5544
18690TIP3    H177561   4.328   6.320   3.571 -0.7038  0.3392 -0.1462
18690TIP3    H277562   4.464   6.376   3.535 -0.6947 -0.2918 -1.1094
18691TIP3   OH277563   5.364   0.713  11.547  0.5144  0.4403  0.1312
18691TIP3    H177564   5.337   0.708  11.455  1.9653  0.2590 -0.3279
18691TIP3    H277565   5.378   0.806  11.563  2.1592  0.3473 -0.4823
18692TIP3   OH277566   2.679   5.626  12.026  0.1286 -0.6844 -0.6373
18692TIP3    H177567   2.756   5.683  12.031 -1.0050  0.9022 -0.6510
18692TIP3    H277568   2.675   5.600  11.934  0.7284 -0.9291 -0.6041
18693TIP3   OH277569   1.737   2.362   2.596 -0.0516  0.5306  0.2039
18693TIP3    H177570   1.705   2.311   2.671  0.7097  1.6560  1.3308
18693TIP3    H277571   1.824   2.390   2.622  0.8607 -0.3159 -1.7536
18694TIP3   OH277572   3.935   5.068  13.580 -0.0995 -0.0755 -0.2520
18694TIP3    H177573   3.907   4.980  13.555 -2.2886  0.4106  0.2634
18694TIP3    H277574   3.898   5.125  13.513 -1.5621  0.7277  1.1638
18695TIP3   OH277575   1.942   3.309  13.183 -0.2724 -0.1098  0.0025
18695TIP3    H177576   2.019   3.354  13.219  0.2480 -1.0607  0.1069
18695TIP3    H277577   1.868   3.351  13.226  0.3041 -0.8104  1.7788
18696TIP3   OH277578   1.604   3.014   3.476  0.0332 -0.1821  0.2646
18696TIP3    H177579   1.614   3.013   3.571  1.7626 -0.1945  0.1139
18696TIP3    H277580   1.654   2.938   3.446 -0.2861 -0.0350 -0.6870
18697TIP3   OH277581   0.337   2.200   5.554 -0.1138 -0.2548  0.0962
18697TIP3    H177582   0.409   2.146   5.523 -0.1807  0.0869 -0.6667
18697TIP3    H277583   0.377   2.286   5.570 -0.1529 -0.3318  0.6204
18698TIP3   OH277584   6.169   5.190   6.240 -0.5758 -0.5581 -0.0404
18698TIP3    H177585   6.235   5.154   6.180  0.2866 -1.1426  1.2190
18698TIP3    H277586   6.114   5.115   6.263 -1.0308 -0.2928 -0.2437
18699TIP3   OH277587   0.604   0.705  17.222 -0.0864 -0.0521 -0.0160
18699TIP3    H177588   0.533   0.668  17.170  0.5137 -0.7010 -0.3884
18699TIP3    H277589   0.629   0.785  17.175  0.5112 -0.6784 -0.7948
18700TIP3   OH277590   3.045   0.650  13.396 -0.1976 -0.1673  0.3023
18700TIP3    H177591   2.975   0.707  13.365  0.8452  1.8131  1.3756
18700TIP3    H277592   3.102   0.639  13.321 -1.3036 -1.2769 -0.4028
18701TIP3   OH277593   4.772   6.276  11.816  0.2131  0.1300  0.3583
18701TIP3    H177594   4.683   6.242  11.810  0.6123 -1.5321  2.4637
18701TIP3    H277595   4.778   6.312  11.904  1.9502 -0.9983  0.7664
18702TIP3   OH277596   6.553   3.847  13.430 -0.2930  0.1512  0.2616
18702TIP3    H177597   6.527   3.827  13.521  0.2498  0.9205  0.5923
18702TIP3    H277598   6.648   3.855  13.434 -0.2582  0.0717 -0.4093
18703TIP3   OH277599   3.629   5.372  15.106 -0.7972 -0.2942  0.1138
18703TIP3    H177600   3.631   5.368  15.202 -1.0431  0.8067  0.1770
18703TIP3    H277601   3.644   5.464  15.086 -0.1055 -0.6179 -0.9338
18704TIP3   OH277602   3.147   6.424  12.846  0.4967  0.0341 -0.0577
18704TIP3    H177603   3.117   6.513  12.863  1.5111  0.5879 -0.9947
18704TIP3    H277604   3.211   6.407  12.915  1.1962  0.5105 -0.5741
18705TIP3   OH277605   3.786   1.849  15.991 -0.1070  0.3060 -0.4355
18705TIP3    H177606   3.831   1.912  16.047 -1.6987  1.0440  0.0680
18705TIP3    H277607   3.768   1.775  16.049  0.2053  0.1207 -0.5704
18706TIP3   OH277608   1.896   0.335  13.709  0.1934 -0.2716  0.1217
18706TIP3    H177609   1.980   0.289  13.710  0.0657 -0.5121  1.6818
18706TIP3    H277610   1.851   0.307  13.788 -1.1518  0.2701 -0.4053
18707TIP3   OH277611   3.445   1.586  12.301 -0.5032 -0.4086 -0.1843
18707TIP3    H177612   3.356   1.554  12.285 -0.5032 -1.8994  2.2283
18707TIP3    H277613   3.501   1.521  12.259 -0.4848  0.5080 -1.6666
18708TIP3   OH277614   3.891   3.480   5.579 -0.1206 -0.3943 -0.3668
18708TIP3    H177615   3.967   3.474   5.520  0.9204  0.7913  0.7735
18708TIP3    H277616   3.856   3.391   5.583  1.2785 -0.9976 -0.8686
18709TIP3   OH277617   3.603   6.222  11.220  0.4247 -0.0289 -0.1411
18709TIP3    H177618   3.624   6.129  11.207 -1.0932 -0.2830 -1.1306
18709TIP3    H277619   3.673   6.269  11.175  0.7534 -0.7252 -0.3741
18710TIP3   OH277620   4.969   2.821  13.382 -0.4454  0.5319 -0.5143
18710TIP3    H177621   5.001   2.733  13.361 -0.1142 -0.0683  2.0704
18710TIP3    H277622   5.036   2.880  13.349  2.2885 -0.5576  2.4736
18711TIP3   OH277623   5.007   0.688  13.370 -0.0875 -0.2065 -0.4311
18711TIP3    H177624   5.067   0.762  13.381  0.0562 -0.2737 -0.7448
18711TIP3    H277625   4.967   0.702  13.284 -0.1129 -0.4524 -0.4609
18712TIP3   OH277626   4.868   3.982   3.893  0.4043  1.1240  0.5585
18712TIP3    H177627   4.788   4.028   3.917  0.1797  0.7289  0.5668
18712TIP3    H277628   4.875   3.993   3.798  0.5395  1.4760  0.6082
18713TIP3   OH277629   4.583   5.787   2.686  0.6730  0.2685 -0.5165
18713TIP3    H177630   4.657   5.727   2.692 -1.6569 -2.6967  1.2809
18713TIP3    H277631   4.556   5.800   2.777 -1.3729  0.8152 -1.1586
18714TIP3   OH277632   1.240   4.961   5.691  0.0450 -1.1898 -0.0797
18714TIP3    H177633   1.264   4.987   5.602 -0.4488  0.0887  0.1337
18714TIP3    H277634   1.145   4.948   5.688 -0.1999  0.2279  0.5425
18715TIP3   OH277635   2.227   0.069  12.420  0.4509 -0.2147  0.1767
18715TIP3    H177636   2.264   0.085  12.333  0.5334  0.4928  0.3335
18715TIP3    H277637   2.298   0.029  12.470  0.8852  0.7201  0.3408
18716TIP3   OH277638   5.251   5.296   6.466 -0.1065  0.5370 -0.0898
18716TIP3    H177639   5.327   5.286   6.410  0.0936 -0.3594  0.3335
18716TIP3    H277640   5.262   5.229   6.534 -2.2968 -1.0158 -1.1648
18717TIP3   OH277641   6.012   5.328  10.423 -0.8736  0.0029 -0.9299
18717TIP3    H177642   6.016   5.348  10.330 -0.0801 -0.2296 -0.9495
18717TIP3    H277643   5.926   5.361  10.451 -0.6390  1.1289 -1.4897
18718TIP3   OH277644   5.566   2.864   2.577  0.2672  0.4912  0.9700
18718TIP3    H177645   5.607   2.950   2.565  0.1919  0.1097 -3.5276
18718TIP3    H277646   5.638   2.802   2.570 -0.0065  0.0750  1.7359
18719TIP3   OH277647   0.513   1.955  17.170  0.4098 -0.2769 -0.3593
18719TIP3    H177648   0.448   1.959  17.241  1.6026 -0.9861  0.8097
18719TIP3    H277649   0.566   2.034  17.181  1.4526 -1.0557  0.4239
18720TIP3   OH277650   4.972   1.592  16.635 -0.3283 -0.7255  0.2682
18720TIP3    H177651   4.975   1.512  16.582 -0.6236  0.2080 -1.2185
18720TIP3    H277652   4.879   1.612  16.643 -0.2180  0.7011 -1.3816
18721TIP3   OH277653   1.424   6.072  15.981  0.3531  0.3160  0.3279
18721TIP3    H177654   1.351   6.014  15.958  1.1089 -0.8661  0.7878
18721TIP3    H277655   1.501   6.027  15.947  0.9835  0.9871  0.8508
18722TIP3   OH277656   2.969   0.997  17.240  0.4142  0.4890  0.2119
18722TIP3    H177657   2.976   1.045  17.157  1.9066  0.2779  0.1795
18722TIP3    H277658   2.908   0.926  17.222  1.7019 -0.3430 -1.1310
18723TIP3   OH277659   4.358   1.052  13.528 -1.1146  0.0885 -0.4185
18723TIP3    H177660   4.358   0.985  13.460  4.9891 -0.2090 -0.6534
18723TIP3    H277661   4.372   1.134  13.480  1.9738  0.0226  0.1681
18724TIP3   OH277662   2.752   3.662  15.658 -0.6176 -0.0896 -0.0126
18724TIP3    H177663   2.678   3.631  15.711 -0.9401 -0.1099 -0.4708
18724TIP3    H277664   2.717   3.736  15.608 -0.3567 -0.1583 -0.3008
18725TIP3   OH277665   1.130   4.402   4.442 -0.3292 -0.1571  0.0900
18725TIP3    H177666   1.078   4.463   4.494 -0.8520 -0.9638  0.5405
18725TIP3    H277667   1.173   4.346   4.507 -1.0456 -1.2210 -0.3189
18726TIP3   OH277668   2.465   6.666  15.509  0.2436 -0.0863 -0.1672
18726TIP3    H177669   2.391   6.715  15.544 -2.0536 -1.2168 -2.9656
18726TIP3    H277670   2.466   6.585  15.560 -1.6820 -0.8206 -1.1935
18727TIP3   OH277671   1.903   6.449   1.368 -0.4190  0.5134 -0.1499
18727TIP3    H177672   1.927   6.470   1.459  0.1727  0.9010 -0.3899
18727TIP3    H277673   1.985   6.457   1.320 -1.0179  1.8461 -0.9983
18728TIP3   OH277674   4.965   5.164  13.548 -0.3570  0.3182  0.5772
18728TIP3    H177675   4.884   5.117  13.570 -0.3176  1.0591  2.5038
18728TIP3    H277676   5.029   5.095  13.532 -0.9678 -0.2776  0.6475
18729TIP3   OH277677   4.180   2.691   1.878  0.4990  0.5483 -0.2353
18729TIP3    H177678   4.095   2.723   1.847 -0.4046 -0.9554  0.5865
18729TIP3    H277679   4.242   2.719   1.810 -0.3464  3.1309 -0.0281
18730TIP3   OH277680   2.266   2.717   6.267 -0.4057 -0.1626 -0.0629
18730TIP3    H177681   2.249   2.807   6.239 -1.8582 -0.7150 -1.1049
18730TIP3    H277682   2.361   2.712   6.278 -0.0210  0.8324 -2.3695
18731TIP3   OH277683   5.300   4.876   1.944  0.1278 -0.5742 -0.0920
18731TIP3    H177684   5.245   4.934   1.892 -0.8102 -2.2473 -1.0842
18731TIP3    H277685   5.376   4.858   1.888 -0.5613 -1.8491 -0.6589
18732TIP3   OH277686   0.813   4.572   5.442 -0.0118  0.5531 -0.9394
18732TIP3    H177687   0.752   4.510   5.402  1.1343 -1.5105  0.3627
18732TIP3    H277688   0.794   4.568   5.535 -0.3470  2.7280 -0.8571
18733TIP3   OH277689   5.430   5.320  13.343 -0.6781 -0.2204 -0.0356
18733TIP3    H177690   5.442   5.277  13.259 -0.1439  1.6676 -0.9900
18733TIP3    H277691   5.353   5.377  13.330 -0.2225  0.5474  0.5339
18734TIP3   OH277692   5.884   2.309   3.839 -0.1129 -0.7530 -1.0206
18734TIP3    H177693   5.848   2.379   3.894  1.3157 -1.3683  0.8259
18734TIP3    H277694   5.866   2.337   3.749  1.3892  2.5859 -0.4191
18735TIP3   OH277695   6.669   5.044  11.386  0.8240 -0.1124 -0.1484
18735TIP3    H177696   6.714   5.117  11.429 -0.1665  0.4659 -0.0403
18735TIP3    H277697   6.706   4.966  11.426  0.5310  0.3950  1.1806
18736TIP3   OH277698   1.567   4.972  11.677 -0.0123  0.0094  0.2702
18736TIP3    H177699   1.474   4.948  11.673 -0.1622  0.6158 -0.0366
18736TIP3    H277700   1.610   4.894  11.713 -0.5779 -0.4403 -0.0012
18737TIP3   OH277701   1.803   0.482   0.892  0.2666  0.1810  0.0956
18737TIP3    H177702   1.788   0.394   0.926 -1.6228 -1.2501 -3.7862
18737TIP3    H277703   1.889   0.477   0.851 -0.0695 -0.0858 -0.5978
18738TIP3   OH277704   4.839   5.207   4.124 -0.3550  0.1621 -0.5233
18738TIP3    H177705   4.928   5.200   4.090  0.1576  0.3930  0.7090
18738TIP3    H277706   4.785   5.226   4.047  1.0147  2.7717 -0.9642
18739TIP3   OH277707   6.239   3.631   1.197 -0.1487  0.1732 -0.5126
18739TIP3    H177708   6.145   3.616   1.190 -0.1399 -0.5098  0.6269
18739TIP3    H277709   6.277   3.566   1.137 -0.4146  1.2282 -1.8842
18740TIP3   OH277710   6.474   4.249  16.341 -0.4285  0.2978 -0.3332
18740TIP3    H177711   6.505   4.180  16.400  0.8033 -0.8957 -2.2760
18740TIP3    H277712   6.420   4.305  16.397 -1.5890 -2.2693  1.3148
18741TIP3   OH277713   5.107   6.018  10.596 -0.2817 -0.0284 -0.2100
18741TIP3    H177714   5.176   6.022  10.530  1.6480 -1.1347  1.6148
18741TIP3    H277715   5.059   5.938  10.575 -0.0131 -0.0956 -0.5823
18742TIP3   OH277716   1.569   2.340  12.762 -0.4365  0.6575 -0.8110
18742TIP3    H177717   1.589   2.265  12.817  0.1047  2.6265  1.8929
18742TIP3    H277718   1.647   2.352  12.708  0.9351  1.2107  1.1825
18743TIP3   OH277719   1.714   2.909  11.269 -0.7201 -0.4178 -0.5003
18743TIP3    H177720   1.667   2.916  11.186 -0.4925  0.9585 -0.5474
18743TIP3    H277721   1.791   2.965  11.258  0.7371 -2.2760 -0.2735
18744TIP3   OH277722   2.204   2.513   1.402 -0.0182 -0.8884  0.0578
18744TIP3    H177723   2.291   2.475   1.385  0.6029  0.7097 -0.5814
18744TIP3    H277724   2.213   2.604   1.375 -2.0227 -0.7787 -0.3608
18745TIP3   OH277725   1.155   5.142  14.655  0.4032 -0.1663 -0.1017
18745TIP3    H177726   1.143   5.129  14.561  1.9189 -1.9820 -0.1124
18745TIP3    H277727   1.242   5.182  14.662  1.1581 -1.8354  0.5681
18746TIP3   OH277728   1.882   4.437  11.135 -0.6709  0.4814 -0.2384
18746TIP3    H177729   1.802   4.486  11.152 -0.1262  1.5862 -0.7853
18746TIP3    H277730   1.953   4.501  11.145  0.2465 -0.6803  1.2351
18747TIP3   OH277731   0.939   5.425   2.264  0.1170 -0.3146  0.3886
18747TIP3    H177732   1.019   5.465   2.229 -1.9414  3.3900 -0.5793
18747TIP3    H277733   0.970   5.345   2.308  4.0014 -0.2977 -1.8482
18748TIP3   OH277734   4.295   4.254  15.525  0.1943 -0.3765  0.1492
18748TIP3    H177735   4.271   4.278  15.615  0.0933 -0.1876  0.0724
18748TIP3    H277736   4.364   4.188  15.535 -0.4652 -1.0471  0.3812
18749TIP3   OH277737   6.730   4.051  14.716  0.1331  0.0247 -0.3044
18749TIP3    H177738   6.769   4.138  14.716 -0.8749  0.4995 -0.0885
18749TIP3    H277739   6.755   4.013  14.800  2.1706 -0.6780 -1.1601
18750TIP3   OH277740   6.477   6.451   4.198  0.1035  0.1479 -0.4190
18750TIP3    H177741   6.456   6.368   4.155  1.8388 -1.5004  1.6462
18750TIP3    H277742   6.550   6.486   4.146  1.2529 -1.1116  0.2748
18751TIP3   OH277743   1.696   5.217  16.988  0.4088  0.4438  0.5590
18751TIP3    H177744   1.737   5.180  16.910 -0.2443 -1.0800  0.9077
18751TIP3    H277745   1.732   5.306  16.994  0.8780  0.4036 -1.1600
18752TIP3   OH277746   4.642   1.073   6.007  0.2349  0.4257  0.3530
18752TIP3    H177747   4.737   1.085   6.011  0.7445 -2.8613  1.0061
18752TIP3    H277748   4.628   1.023   5.926 -1.1278  1.8269 -0.3279
18753TIP3   OH277749   6.320   5.286  10.287 -0.3388 -0.1402 -0.2077
18753TIP3    H177750   6.283   5.361  10.240  1.2945 -0.6107 -2.4426
18753TIP3    H277751   6.308   5.212  10.228  0.0054 -1.2146  1.0180
18754TIP3   OH277752   2.775   0.843  15.547 -0.2477 -0.2175  0.6360
18754TIP3    H177753   2.799   0.918  15.493  0.9553 -0.3975  0.8956
18754TIP3    H277754   2.764   0.878  15.635  0.9289 -0.4249  0.8818
18755TIP3   OH277755   1.129   3.821  16.619 -0.0484  0.0774 -0.1639
18755TIP3    H177756   1.202   3.825  16.680 -1.2524  0.3339  1.3316
18755TIP3    H277757   1.133   3.903  16.571 -0.9052  1.3976  1.8614
18756TIP3   OH277758   1.558   4.510  17.123 -0.5847 -0.0401  0.5093
18756TIP3    H177759   1.648   4.520  17.094 -0.3668 -1.1447  0.7800
18756TIP3    H277760   1.515   4.460  17.054 -1.2712  1.3300 -0.1041
18757TIP3   OH277761   3.685   2.249   2.369  0.0739  0.2267 -0.0919
18757TIP3    H177762   3.732   2.207   2.297 -2.4480 -0.5479 -1.3899
18757TIP3    H277763   3.712   2.199   2.446  1.4536 -0.0797 -0.7347
18758TIP3   OH277764   3.460   6.150  13.304 -0.4401 -0.2411  0.1689
18758TIP3    H177765   3.407   6.105  13.370  0.7272 -0.1361  1.2072
18758TIP3    H277766   3.420   6.236  13.295  1.1801  0.9506  3.1196
18759TIP3   OH277767   2.828   1.018  15.324  0.6745  0.2333 -0.1465
18759TIP3    H177768   2.780   1.101  15.318 -0.3237 -0.4010 -1.6388
18759TIP3    H277769   2.916   1.044  15.349  0.6545  1.8860 -1.5221
18760TIP3   OH277770   1.067   6.713  11.805 -0.0234  0.0233  0.0379
18760TIP3    H177771   1.081   6.644  11.870 -1.6835 -1.4959 -1.1385
18760TIP3    H277772   1.154   6.726  11.766  0.5388 -0.5992  1.0195
18761TIP3   OH277773   5.644   0.893  11.413  0.4729  0.8971 -0.2957
18761TIP3    H177774   5.574   0.957  11.403  1.3428  1.7993 -0.8669
18761TIP3    H277775   5.661   0.862  11.324 -0.4415 -0.7126  0.0580
18762TIP3   OH277776   2.364   6.776  13.771  0.2694  0.8082 -0.8603
18762TIP3    H177777   2.319   6.791  13.853 -0.8208  0.9077 -1.4658
18762TIP3    H277778   2.455   6.802  13.788  0.1966  0.2423  0.4746
18763TIP3   OH277779   6.139   0.698  14.836  0.3203 -0.2273 -0.1898
18763TIP3    H177780   6.123   0.608  14.865 -1.0881  0.5590  1.6805
18763TIP3    H277781   6.126   0.695  14.741  1.1309 -2.1318 -0.3046
18764TIP3   OH277782   6.112   0.190   3.110 -0.4982 -0.4729 -0.1846
18764TIP3    H177783   6.077   0.147   3.032 -1.0361  1.2788 -0.9611
18764TIP3    H277784   6.203   0.209   3.089 -0.3526 -0.9372  0.0271
18765TIP3   OH277785   6.397   5.125  14.031  0.9351  0.3933 -0.4045
18765TIP3    H177786   6.466   5.128  14.097  2.5339 -2.6704 -1.7272
18765TIP3    H277787   6.339   5.198  14.054  2.9300  1.2398  2.5962
18766TIP3   OH277788   4.763   4.419   2.547  0.3721 -0.1230  0.1961
18766TIP3    H177789   4.719   4.473   2.613  0.4330  0.7689 -0.4720
18766TIP3    H277790   4.839   4.471   2.521  1.1093 -1.0731  0.4038
18767TIP3   OH277791   0.393   1.148   3.461 -0.2906 -0.0901 -0.3558
18767TIP3    H177792   0.350   1.063   3.451 -0.1156 -0.0451 -1.6573
18767TIP3    H277793   0.322   1.212   3.459 -0.3202 -0.1313 -0.6523
18768TIP3   OH277794   3.153   1.172   2.535  0.0976  0.2846 -0.2607
18768TIP3    H177795   3.246   1.187   2.517  0.7645 -3.3649 -0.6751
18768TIP3    H277796   3.138   1.081   2.507 -2.8823 -0.2219  2.4737
18769TIP3   OH277797   6.214   6.340  16.183  0.3176 -0.4657  0.0402
18769TIP3    H177798   6.154   6.401  16.228 -0.0097  0.0860 -1.1042
18769TIP3    H277799   6.175   6.329  16.096 -0.2444 -3.2022  0.5445
18770TIP3   OH277800   3.065   5.518   4.160 -0.4720  0.3264  0.2321
18770TIP3    H177801   3.143   5.559   4.199 -0.5062  1.4070 -0.7795
18770TIP3    H277802   3.043   5.574   4.086 -2.3660  0.1717  0.6278
18771TIP3   OH277803   0.577   2.792   1.796  0.1168 -0.1078 -0.7454
18771TIP3    H177804   0.593   2.823   1.886  0.5301 -3.6700  0.5651
18771TIP3    H277805   0.484   2.771   1.794  0.1898 -0.4110 -1.0026
18772TIP3   OH277806   1.951   6.588   5.577  0.2954  0.2309 -0.1663
18772TIP3    H177807   2.026   6.608   5.633  0.1394  2.8326 -0.7379
18772TIP3    H277808   1.880   6.568   5.638  0.3640  2.1136  0.6038
18773TIP3   OH277809   1.077   5.618  12.818  0.0667 -0.5707 -0.6622
18773TIP3    H177810   1.036   5.698  12.852 -0.3333 -0.8970 -0.3769
18773TIP3    H277811   1.167   5.622  12.850  0.7811  0.9737 -2.6495
18774TIP3   OH277812   3.910   0.344   3.835 -0.3305 -0.2414 -0.3855
18774TIP3    H177813   3.944   0.280   3.899  3.6869  1.2314 -0.7896
18774TIP3    H277814   3.896   0.424   3.886  2.3867  0.7858 -1.1024
18775TIP3   OH277815   2.909   0.409   4.601 -0.4023 -0.2694  0.5562
18775TIP3    H177816   2.909   0.337   4.664  0.0174  0.9115  1.9497
18775TIP3    H277817   2.816   0.433   4.593 -0.4869 -0.6153  0.5030
18776TIP3   OH277818   2.415   1.036   2.163 -0.1202  0.2033  0.0685
18776TIP3    H177819   2.495   1.037   2.215  1.4448 -0.6973 -2.1735
18776TIP3    H277820   2.375   0.951   2.182 -0.0076  0.2256  0.4102
18777TIP3   OH277821   5.102   3.510  13.185  0.3129  0.5824 -0.0261
18777TIP3    H177822   5.185   3.547  13.215  1.4088  0.9067 -3.1376
18777TIP3    H277823   5.127   3.432  13.136 -1.2354  0.6086 -0.9266
18778TIP3   OH277824   1.551   2.212   0.903 -0.0466  0.9270 -0.4917
18778TIP3    H177825   1.486   2.150   0.935 -0.4788  1.5159 -0.2141
18778TIP3    H277826   1.560   2.193   0.810  0.7471 -0.3791 -0.1738
18779TIP3   OH277827   0.138   1.247   2.432  0.7967 -0.1346 -0.0717
18779TIP3    H177828   0.155   1.229   2.525 -1.3036  0.7804  0.5515
18779TIP3    H277829   0.175   1.172   2.386  1.7341 -0.6887  1.5171
18780TIP3   OH277830   6.317   6.156   6.384 -0.3317  0.1110 -0.4014
18780TIP3    H177831   6.339   6.212   6.458 -0.0503  0.5358 -0.8057
18780TIP3    H277832   6.235   6.113   6.410 -1.1778  1.5619 -0.5505
18781TIP3   OH277833   4.716   2.042  16.066  0.1631  0.2441  0.0301
18781TIP3    H177834   4.645   2.104  16.051  0.4576  0.0145 -2.8035
18781TIP3    H277835   4.771   2.049  15.988  2.1896 -1.0076  1.2503
18782TIP3   OH277836   3.016   2.013  13.252  0.4702 -0.3109 -0.8418
18782TIP3    H177837   2.972   2.002  13.336 -0.4280  0.4908 -1.1971
18782TIP3    H277838   3.070   1.934  13.243  0.5015 -0.4525  0.4291
18783TIP3   OH277839   0.384   6.273  11.017 -0.0879 -0.2700 -0.1135
18783TIP3    H177840   0.477   6.292  11.009 -0.2814  0.0001 -2.7322
18783TIP3    H277841   0.364   6.218  10.941 -2.1675  0.2045  0.0267
18784TIP3   OH277842   4.033   1.414  13.297  0.4774 -0.0902  0.2097
18784TIP3    H177843   4.112   1.436  13.247  0.3334 -2.1006 -1.0284
18784TIP3    H277844   3.962   1.420  13.232 -0.1770  0.1467  0.9298
18785TIP3   OH277845   0.514   0.911   5.682 -0.4428  0.2294  0.0693
18785TIP3    H177846   0.513   0.931   5.775 -0.1956  0.9869 -0.0889
18785TIP3    H277847   0.425   0.882   5.663 -0.9601  1.6700  0.2047
18786TIP3   OH277848   3.939   6.450   1.600  0.2529 -0.4992  0.3799
18786TIP3    H177849   3.859   6.412   1.636  0.4029  0.6687  2.0531
18786TIP3    H277850   3.956   6.527   1.654  2.6371 -0.8273  0.2117
18787TIP3   OH277851   1.843   6.680   2.444  0.1879  0.7397 -0.7364
18787TIP3    H177852   1.787   6.634   2.381  1.7954 -0.5021 -1.3364
18787TIP3    H277853   1.804   6.661   2.529 -0.6082  0.3566 -1.1737
18788TIP3   OH277854   2.288   6.567  16.389  0.0393  0.1538  0.4362
18788TIP3    H177855   2.380   6.584  16.412  0.8645 -1.2121 -1.5961
18788TIP3    H277856   2.252   6.525  16.467  0.7347  1.8582  1.7524
18789TIP3   OH277857   4.894   2.714  15.685  0.6062 -0.3860  0.4102
18789TIP3    H177858   4.916   2.691  15.775  1.5809 -1.3327 -0.0427
18789TIP3    H277859   4.883   2.809  15.686  1.0566 -0.3383  1.4306
18790TIP3   OH277860   2.046   1.510   3.121 -0.3370 -0.0457 -0.0167
18790TIP3    H177861   2.011   1.448   3.056 -1.6638  1.1008 -0.4527
18790TIP3    H277862   2.096   1.456   3.181 -1.8027 -1.6276 -0.1425
18791TIP3   OH277863   2.267   2.050  14.657  0.2524  0.0460 -0.1700
18791TIP3    H177864   2.270   1.956  14.641 -1.0723  0.3143 -2.4393
18791TIP3    H277865   2.257   2.058  14.752 -1.0227 -2.1558 -0.0538
18792TIP3   OH277866   1.101   6.108  14.831 -0.7555  0.0873  0.0522
18792TIP3    H177867   1.048   6.029  14.823  1.4113 -1.4355 -0.1397
18792TIP3    H277868   1.173   6.095  14.770  0.7487  1.2764  1.4768
18793TIP3   OH277869   4.089   2.221  16.998  0.4577 -0.0755 -0.3813
18793TIP3    H177870   4.098   2.129  17.022  1.4515 -0.1971 -1.1367
18793TIP3    H277871   4.163   2.264  17.040  1.1634  0.0113 -1.6514
18794TIP3   OH277872   4.826   3.905  15.906  0.1723  0.5982 -0.0503
18794TIP3    H177873   4.780   3.888  15.989  0.7684  0.3151  0.2292
18794TIP3    H277874   4.815   3.999  15.892  0.9355  0.8481  0.8914
18795TIP3   OH277875   5.167   5.551   1.393 -0.2837 -0.4783  0.7229
18795TIP3    H177876   5.209   5.632   1.421 -0.3437 -0.4881  0.8427
18795TIP3    H277877   5.097   5.537   1.457 -1.7012  0.5416 -0.5449
18796TIP3   OH277878   1.966   5.622  12.153  0.0517  0.5135 -0.5981
18796TIP3    H177879   1.957   5.530  12.175  0.7756  0.5567 -0.0817
18796TIP3    H277880   1.956   5.668  12.236  0.4020  0.8443 -0.7365
18797TIP3   OH277881   1.244   2.895   6.033 -0.4169  0.0615  0.0173
18797TIP3    H177882   1.332   2.881   5.997 -0.7083 -1.6276 -0.0953
18797TIP3    H277883   1.252   2.977   6.082  1.7589 -0.9740  1.5935
18798TIP3   OH277884   5.093   1.775  16.806 -0.2818 -0.2736 -0.4987
18798TIP3    H177885   5.039   1.703  16.773  0.7389 -1.9234  1.2168
18798TIP3    H277886   5.041   1.812  16.878  0.5259 -1.4656  0.7501
18799TIP3   OH277887   0.156   0.243   1.440  0.2016 -0.7552  0.4280
18799TIP3    H177888   0.113   0.326   1.461  0.2506 -0.6941  0.2907
18799TIP3    H277889   0.244   0.252   1.475  0.3456 -0.5760  0.0283
18800TIP3   OH277890   6.092   1.257   4.718  1.0084 -0.6480  0.1158
18800TIP3    H177891   6.005   1.252   4.678 -0.1501  0.6232  2.2960
18800TIP3    H277892   6.131   1.336   4.679  2.0036 -2.2092 -2.2365
18801TIP3   OH277893   4.863   6.098   3.115 -0.2366 -0.1269 -0.4341
18801TIP3    H177894   4.876   6.168   3.179 -2.0195  0.6135 -0.8294
18801TIP3    H277895   4.768   6.088   3.110 -0.0970 -0.7741 -2.3110
18802TIP3   OH277896   5.413   3.358   4.532  0.3217 -0.0918 -0.8573
18802TIP3    H177897   5.369   3.397   4.608 -1.0223  0.6086 -1.9231
18802TIP3    H277898   5.444   3.273   4.562 -0.7261 -0.0888  0.3075
18803TIP3   OH277899   2.604   6.452   3.303  0.1434  0.2611  0.4641
18803TIP3    H177900   2.615   6.484   3.392 -0.7945 -2.0761  1.5178
18803TIP3    H277901   2.686   6.407   3.283  0.3224  0.7139  0.1625
18804TIP3   OH277902   2.237   6.761  15.673  0.2239  0.0220  0.2642
18804TIP3    H177903   2.226   6.845  15.718 -0.5157  0.2088 -0.2405
18804TIP3    H277904   2.222   6.695  15.741  1.2090  0.2830  0.7553
18805TIP3   OH277905   4.347   2.567   0.578 -0.3486 -0.4850  0.5907
18805TIP3    H177906   4.405   2.642   0.590  1.0886 -0.7970 -2.9460
18805TIP3    H277907   4.260   2.602   0.594  0.3632  1.7089  0.1548
18806TIP3   OH277908   5.237   3.206  15.897 -0.2048  0.1911  0.2007
18806TIP3    H177909   5.306   3.253  15.945 -0.2807  0.2778  0.2249
18806TIP3    H277910   5.284   3.137  15.850 -0.2719 -0.6094  1.2772
18807TIP3   OH277911   3.660   6.380   4.058 -0.3883  0.2955  0.1917
18807TIP3    H177912   3.651   6.373   4.153 -2.6583  0.5125  0.0563
18807TIP3    H277913   3.587   6.328   4.023  1.1180 -0.8441 -1.4968
18808TIP3   OH277914   0.686   4.813   3.279 -0.3499  0.0136 -0.0518
18808TIP3    H177915   0.632   4.749   3.326  0.6610 -1.3510 -0.6866
18808TIP3    H277916   0.648   4.815   3.191  0.0045 -0.2110 -0.2142
18809TIP3   OH277917   1.026   6.320   3.627 -0.7508 -0.0947 -0.7736
18809TIP3    H177918   1.022   6.268   3.547  0.0318 -1.0330 -0.2293
18809TIP3    H277919   1.117   6.350   3.631 -0.7294 -0.2311 -0.1388
18810TIP3   OH277920   6.347   3.658  11.250 -0.1021 -0.0522 -0.2433
18810TIP3    H177921   6.309   3.728  11.196  0.4910 -0.5613 -1.3588
18810TIP3    H277922   6.434   3.690  11.273 -0.0116 -0.2151 -0.3545
18811TIP3   OH277923   6.323   0.880   5.387  1.0459  0.1193  0.1040
18811TIP3    H177924   6.242   0.874   5.336 -0.9241  1.4079  2.8276
18811TIP3    H277925   6.320   0.805   5.445  1.6043  0.3939  0.4925
18812TIP3   OH277926   1.483   4.226  11.930  0.3916  0.0006 -0.2491
18812TIP3    H177927   1.484   4.317  11.898 -1.7897  0.3443  0.5257
18812TIP3    H277928   1.402   4.189  11.897  0.0219 -0.8825  1.5226
18813TIP3   OH277929   5.240   5.763  13.832 -0.3834 -0.3363  0.5710
18813TIP3    H177930   5.172   5.825  13.859  1.0281  1.0777  0.9992
18813TIP3    H277931   5.222   5.745  13.740 -0.2913  1.4357  0.1889
18814TIP3   OH277932   5.166   3.960  16.539 -0.0467 -0.4967  0.0454
18814TIP3    H177933   5.195   3.874  16.508  0.1192 -0.9814  1.4655
18814TIP3    H277934   5.183   3.958  16.633 -1.0511  0.6984  0.2689
18815TIP3   OH277935   1.996   4.858   2.878 -0.9245 -0.8125  0.1079
18815TIP3    H177936   1.992   4.949   2.909 -0.1706 -0.4147 -0.9379
18815TIP3    H277937   1.975   4.806   2.956 -1.6629  0.2563  0.6562
18816TIP3   OH277938   3.684   4.240   5.271 -0.1105 -0.3002 -0.2405
18816TIP3    H177939   3.727   4.176   5.214  0.9273  0.3810 -0.2342
18816TIP3    H277940   3.646   4.187   5.341  1.4653 -0.8495  0.2272
18817TIP3   OH277941   5.946   1.501   4.058 -0.4933 -0.0070 -0.1917
18817TIP3    H177942   5.875   1.524   3.998  1.3371 -2.1065 -3.5002
18817TIP3    H277943   5.978   1.416   4.025  1.9752 -0.3172  2.6225
18818TIP3   OH277944   1.050   3.208   2.611 -0.3215 -0.6134 -0.0572
18818TIP3    H177945   1.138   3.221   2.645 -0.3617  1.3226 -0.5545
18818TIP3    H277946   0.993   3.215   2.688 -0.0662 -2.1011  0.3006
18819TIP3   OH277947   0.098   1.893   5.655  0.1006  0.5438 -0.5337
18819TIP3    H177948   0.162   1.920   5.722 -1.8839  1.4872  1.1104
18819TIP3    H277949   0.023   1.951   5.670 -2.4196 -2.5655 -0.2282
18820TIP3   OH277950   5.317   5.602  13.118  0.7496  0.5381  0.2321
18820TIP3    H177951   5.362   5.520  13.097  0.3867  0.2816  0.4540
18820TIP3    H277952   5.257   5.615  13.044  0.6660  0.4981  0.2923
18821TIP3   OH277953   5.189   3.037  15.490 -0.2133 -0.2661 -0.3682
18821TIP3    H177954   5.267   3.080  15.454  0.7955  0.0738  1.9864
18821TIP3    H277955   5.223   2.954  15.524 -0.7475  0.0881  1.0911
18822TIP3   OH277956   2.247   3.043  16.275 -0.3668  0.5929 -0.1429
18822TIP3    H177957   2.183   2.974  16.258  1.0874 -0.5900 -1.0909
18822TIP3    H277958   2.296   3.050  16.193  1.0064  1.1229  0.6961
18823TIP3   OH277959   2.567   2.626  11.836 -0.7145 -0.3708 -0.0014
18823TIP3    H177960   2.491   2.569  11.846 -0.4889 -0.2796  2.9871
18823TIP3    H277961   2.554   2.696  11.899  1.8882 -0.4333  0.7317
18824TIP3   OH277962   2.431   3.284   1.594  0.0643  0.1016  0.9406
18824TIP3    H177963   2.524   3.274   1.610  0.0949 -0.3434  0.5155
18824TIP3    H277964   2.391   3.290   1.681  0.2656 -1.7588  1.1872
18825TIP3   OH277965   5.792   0.948   3.521  0.2643 -0.2530  0.0854
18825TIP3    H177966   5.745   0.865   3.522 -0.8252  0.2670 -1.9999
18825TIP3    H277967   5.884   0.924   3.508 -0.1117 -1.1283 -1.0692
18826TIP3   OH277968   0.771   1.747   0.397  0.2128 -0.1163 -0.0269
18826TIP3    H177969   0.807   1.832   0.424  0.0078 -0.1923  0.5008
18826TIP3    H277970   0.786   1.744   0.302  1.9560 -0.3406  0.2267
18827TIP3   OH277971   5.862   4.902   3.474 -0.2333  0.3157  0.4672
18827TIP3    H177972   5.951   4.929   3.452 -0.3926  1.3756  1.0192
18827TIP3    H277973   5.850   4.931   3.565 -1.1624  0.2493  0.3822
18828TIP3   OH277974   1.712   2.314  15.454 -0.1451  0.1297 -0.1999
18828TIP3    H177975   1.635   2.354  15.415 -0.8222 -0.8048  0.1477
18828TIP3    H277976   1.679   2.235  15.496  1.1825 -0.9766 -1.1339
18829TIP3   OH277977   6.461   4.877  12.405  0.4806  0.6290  0.7781
18829TIP3    H177978   6.441   4.969  12.388 -2.1585  0.3605  1.8166
18829TIP3    H277979   6.487   4.841  12.320  1.0023  2.1936  0.2493
18830TIP3   OH277980   4.550   4.036  15.096 -0.2263  0.1595  0.1762
18830TIP3    H177981   4.625   4.017  15.152 -0.2889  1.0805  0.5882
18830TIP3    H277982   4.546   3.962  15.035  1.5600  0.5194 -0.4359
18831TIP3   OH277983   4.858   0.636  14.686 -0.1211  0.0902 -0.2820
18831TIP3    H177984   4.887   0.723  14.657 -0.8518  1.4217  2.6236
18831TIP3    H277985   4.786   0.653  14.746 -0.2848 -2.5504  0.4128
18832TIP3   OH277986   6.362   1.300  13.603 -0.0755 -0.0747 -0.0077
18832TIP3    H177987   6.407   1.222  13.636 -0.9805 -1.1812 -1.3141
18832TIP3    H277988   6.290   1.266  13.549  0.0992  1.6574 -1.4201
18833TIP3   OH277989   1.876   0.209   2.835 -0.6311 -0.0725 -0.0687
18833TIP3    H177990   1.887   0.292   2.787  0.7007 -0.7489 -1.0093
18833TIP3    H277991   1.966   0.180   2.852 -1.0785 -0.4882  1.7842
18834TIP3   OH277992   0.516   4.736   2.764 -0.0255 -0.2595 -0.2544
18834TIP3    H177993   0.485   4.805   2.706  2.4608  1.8176  0.7136
18834TIP3    H277994   0.568   4.679   2.707 -0.3792 -0.1511 -0.6879
18835TIP3   OH277995   2.489   2.723   5.272  0.2439 -0.4110 -0.2847
18835TIP3    H177996   2.541   2.666   5.215  1.0097  0.3868 -0.4085
18835TIP3    H277997   2.506   2.812   5.239 -0.8718 -0.1001 -0.0585
18836TIP3   OH277998   2.627   1.034   0.806 -0.4952  0.1299  0.5763
18836TIP3    H177999   2.653   1.125   0.794 -0.0584 -0.1612 -0.9929
18836TIP3    H278000   2.532   1.037   0.816 -0.6647  0.6847 -0.8993
18837TIP3   OH278001   6.393   5.677  11.760 -0.4968  0.4161  0.4331
18837TIP3    H178002   6.446   5.656  11.683  0.7909  0.6176  1.2427
18837TIP3    H278003   6.412   5.608  11.823  3.0491  3.1370  2.7622
18838TIP3   OH278004   3.265   5.240  15.792 -0.2894  0.5440 -0.0122
18838TIP3    H178005   3.345   5.270  15.834  1.0044  0.4776 -2.2696
18838TIP3    H278006   3.293   5.211  15.705 -2.7725  0.6014 -0.9135
18839TIP3   OH278007   0.764   0.496   4.309  0.0734  0.1845  0.0734
18839TIP3    H178008   0.688   0.545   4.338  0.8044  0.2291  2.0808
18839TIP3    H278009   0.829   0.562   4.285  0.7254  0.2774  1.8872
18840TIP3   OH278010   6.779   3.866  11.196  0.0255  0.0964  0.4848
18840TIP3    H178011   6.705   3.915  11.232  0.4380  0.0265  1.4793
18840TIP3    H278012   6.790   3.900  11.108  1.1529  2.8018  1.5617
18841TIP3   OH278013   4.747   2.464   0.260 -0.1809 -0.9699 -0.6776
18841TIP3    H178014   4.806   2.453   0.335 -2.0788 -0.9864  0.8910
18841TIP3    H278015   4.765   2.553   0.229 -0.1949 -0.5113  0.5735
18842TIP3   OH278016   0.954   4.346   1.639  0.2412  0.2078  0.3669
18842TIP3    H178017   0.992   4.433   1.624 -1.1661  1.0385  1.2695
18842TIP3    H278018   0.922   4.350   1.730  1.5893 -1.8515  0.9868
18843TIP3   OH278019   0.254   5.902   5.318  0.1726  0.0851  0.5800
18843TIP3    H178020   0.193   5.851   5.371  0.3086 -0.8945 -0.1620
18843TIP3    H278021   0.205   5.980   5.292  0.8163  1.7940  3.9735
18844TIP3   OH278022   1.304   1.944   4.136 -0.0258 -0.2220 -0.0423
18844TIP3    H178023   1.271   2.015   4.191 -1.0122 -1.2391  0.7508
18844TIP3    H278024   1.356   1.890   4.196  0.9554 -0.0325 -0.7024
18845TIP3   OH278025   1.930   2.768  12.329  0.1456  0.0281  0.1089
18845TIP3    H178026   1.912   2.725  12.246  2.4273  2.1626 -1.6267
18845TIP3    H278027   1.996   2.712  12.371 -1.9577 -1.7711  1.2466
18846TIP3   OH278028   5.758   6.270  12.499  0.7724  0.5166  0.1092
18846TIP3    H178029   5.667   6.262  12.470  0.5985 -2.7167  1.1763
18846TIP3    H278030   5.757   6.344  12.560 -0.8339  1.3413 -0.8450
18847TIP3   OH278031   2.466   5.685   2.016  0.6575  0.2232  0.0612
18847TIP3    H178032   2.447   5.653   2.104  0.2678  2.2064  0.7471
18847TIP3    H278033   2.380   5.699   1.975  0.8113  0.4155 -0.2059
18848TIP3   OH278034   6.591   4.404  15.917 -0.3761  0.0212  0.3115
18848TIP3    H178035   6.553   4.317  15.931 -1.6674  0.1876 -1.7113
18848TIP3    H278036   6.520   4.465  15.938 -0.1334  0.4951 -0.2099
18849TIP3   OH278037   4.483   1.656  16.565 -0.0882  0.7484 -0.2073
18849TIP3    H178038   4.451   1.669  16.655 -0.5552  0.9703 -0.4036
18849TIP3    H278039   4.418   1.598  16.525  0.2891  0.3898 -0.3110
18850TIP3   OH278040   3.882   0.098  13.032  0.7744 -0.2618 -0.4327
18850TIP3    H178041   3.826   0.108  12.955 -1.2712  1.5565  1.1482
18850TIP3    H278042   3.822   0.072  13.102  2.6203 -2.2697  0.5187
18851TIP3   OH278043   4.750   0.278   5.205  0.6115 -0.1900  0.2778
18851TIP3    H178044   4.699   0.198   5.210  0.4287 -0.1454 -0.7308
18851TIP3    H278045   4.685   0.348   5.206  0.4941 -0.1622 -2.3453
18852TIP3   OH278046   2.054   6.717  14.313  0.4496 -0.2454 -0.7262
18852TIP3    H178047   2.033   6.649  14.249  0.5566 -0.7795 -0.2015
18852TIP3    H278048   2.149   6.709  14.326  0.6671  0.7927 -1.5455
18853TIP3   OH278049   2.606   4.497   5.101 -0.6305 -0.5982 -0.4182
18853TIP3    H178050   2.633   4.537   5.184 -1.0762  0.1299 -0.6148
18853TIP3    H278051   2.663   4.421   5.092 -0.4404 -0.5748  0.4581
18854TIP3   OH278052   5.333   5.983  12.226  0.0709 -0.2581  0.7452
18854TIP3    H178053   5.262   6.045  12.241  0.7206  1.4966 -2.5051
18854TIP3    H278054   5.299   5.924  12.159  0.3650 -1.9664  2.0243
18855TIP3   OH278055   2.666   3.612   3.537 -0.0475  0.1763  0.2901
18855TIP3    H178056   2.736   3.677   3.533  0.6787 -0.5993 -0.0584
18855TIP3    H278057   2.587   3.662   3.557  0.7211  0.9895  1.4051
18856TIP3   OH278058   2.334   1.253  13.525 -0.4762 -0.3418 -0.0353
18856TIP3    H178059   2.298   1.235  13.438  1.5310 -0.2315 -0.9531
18856TIP3    H278060   2.375   1.171  13.551 -1.0933 -0.3821  0.8448
18857TIP3   OH278061   6.535   2.513  14.988 -0.4006  0.3246 -0.0882
18857TIP3    H178062   6.603   2.578  14.970 -0.2066  0.3587  0.7443
18857TIP3    H278063   6.578   2.428  14.971  0.3131  0.2661  1.7660
18858TIP3   OH278064   2.078   2.203   6.173  0.1280  0.7936 -0.3183
18858TIP3    H178065   2.029   2.169   6.098 -1.4004 -0.3343  1.1312
18858TIP3    H278066   2.159   2.152   6.172 -0.3043  0.0930 -0.6430
18859TIP3   OH278067   2.594   5.763  15.762 -0.2341  0.0465  0.4255
18859TIP3    H178068   2.598   5.856  15.785  1.2157 -0.1880  1.2612
18859TIP3    H278069   2.681   5.743  15.727 -0.4977 -1.0203  0.3462
18860TIP3   OH278070   4.802   0.482   0.795 -0.0940 -0.3683  0.5607
18860TIP3    H178071   4.876   0.515   0.846  0.3338  2.6317 -1.7059
18860TIP3    H278072   4.801   0.388   0.813  1.3522  0.1346  4.2256
18861TIP3   OH278073   2.657   5.823  11.014  0.0064  0.3622 -0.2419
18861TIP3    H178074   2.631   5.740  10.975  0.1998  0.4720 -0.6139
18861TIP3    H278075   2.716   5.862  10.949  1.4217 -0.0621  0.7291
18862TIP3   OH278076   4.723   3.091  15.720 -0.5223 -0.4334 -0.5689
18862TIP3    H178077   4.777   3.045  15.655  0.7668 -1.4981  1.1824
18862TIP3    H278078   4.717   3.180  15.686 -0.0150 -0.9753 -2.2128
18863TIP3   OH278079   4.543   0.383  12.920  0.1849 -0.0889  0.4935
18863TIP3    H178080   4.507   0.412  13.003 -0.9736  0.4093 -0.1645
18863TIP3    H278081   4.476   0.325  12.883  0.2978  0.3726 -0.4779
18864TIP3   OH278082   3.181   1.573   1.781 -0.0565 -0.1767 -0.6553
18864TIP3    H178083   3.208   1.489   1.745 -2.4026 -1.5942  0.6156
18864TIP3    H278084   3.115   1.550   1.847  1.0511  2.5127  1.5872
18865TIP3   OH278085   1.305   5.477  15.832  0.5150 -0.2090 -0.4088
18865TIP3    H178086   1.399   5.468  15.848  0.5827  0.6970 -0.2241
18865TIP3    H278087   1.300   5.513  15.743  0.3678  0.2193 -0.2297
18866TIP3   OH278088   2.189   6.322   2.345  0.1016  0.5013 -0.6462
18866TIP3    H178089   2.255   6.314   2.275 -0.7322  0.2923 -1.4326
18866TIP3    H278090   2.114   6.363   2.302  0.0625  1.6810  0.4861
18867TIP3   OH278091   5.835   3.847  16.117 -0.3331  0.3130 -0.4524
18867TIP3    H178092   5.812   3.794  16.193  3.0385 -1.9365 -0.7371
18867TIP3    H278093   5.872   3.928  16.154 -0.0220 -0.1515  0.2796
18868TIP3   OH278094   1.292   3.273  12.123 -0.4020  0.5780  0.0466
18868TIP3    H178095   1.336   3.258  12.040 -0.6866  0.3313 -0.0643
18868TIP3    H278096   1.201   3.290  12.099 -0.5429  0.2356  0.3183
18869TIP3   OH278097   0.474   2.751   5.247  0.1270 -0.6200  0.6636
18869TIP3    H178098   0.387   2.790   5.252  0.8311  1.7851 -2.2929
18869TIP3    H278099   0.478   2.714   5.158  2.7167  1.2088 -0.0947
18870TIP3   OH278100   4.793   6.602  11.197  0.0237  0.1870  0.0554
18870TIP3    H178101   4.745   6.658  11.258  0.3582  0.1494  0.3554
18870TIP3    H278102   4.862   6.659  11.163  1.3949 -0.4879  1.5935
18871TIP3   OH278103   1.347   2.407   1.808 -0.4807  0.3864 -0.2599
18871TIP3    H178104   1.336   2.494   1.846 -1.0036  1.1644 -2.0768
18871TIP3    H278105   1.396   2.422   1.727  0.7505 -1.2178  0.1138
18872TIP3   OH278106   1.563   4.366   5.452 -0.5259 -0.0888  0.2144
18872TIP3    H178107   1.554   4.369   5.357  2.1146 -0.6350 -0.1460
18872TIP3    H278108   1.485   4.319   5.482 -1.8654  0.8701 -1.5558
18873TIP3   OH278109   2.053   0.751   0.930  0.0041 -0.0395 -0.1867
18873TIP3    H178110   1.975   0.732   0.877 -2.6646  2.6403  2.3823
18873TIP3    H278111   2.097   0.667   0.939 -2.8217 -1.8198 -1.4622
18874TIP3   OH278112   3.382   2.235  11.147  0.3357 -0.1785 -0.3264
18874TIP3    H178113   3.417   2.267  11.230  3.1583  2.5303 -2.3470
18874TIP3    H278114   3.416   2.146  11.138 -2.1047 -1.5522  2.3854
18875TIP3   OH278115   5.920   3.611   5.844  0.1617  0.6329 -0.2052
18875TIP3    H178116   5.933   3.590   5.937  1.2360  1.2510 -0.1958
18875TIP3    H278117   5.874   3.536   5.808  2.1458 -0.8838  0.2357
18876TIP3   OH278118   3.051   0.415  14.451 -0.5092  0.3081  0.1082
18876TIP3    H178119   3.113   0.488  14.454  0.6323 -0.4169 -2.7240
18876TIP3    H278120   2.986   0.441  14.386 -1.1922 -0.4302  0.4811
18877TIP3   OH278121   4.856   6.400   3.181 -0.1590 -0.2801  0.2417
18877TIP3    H178122   4.950   6.396   3.201 -0.0964  0.3376  0.0908
18877TIP3    H278123   4.814   6.351   3.252  0.3108 -1.0358  0.0178
18878TIP3   OH278124   1.733   3.972  11.053  0.0466 -0.4596  0.5898
18878TIP3    H178125   1.716   4.065  11.068  0.8413 -0.4691  1.6454
18878TIP3    H278126   1.764   3.968  10.962 -1.0102  0.1491  0.1808
18879TIP3   OH278127   3.586   1.985   0.500 -0.6065 -0.3211 -0.1233
18879TIP3    H178128   3.642   1.948   0.569  0.3210 -0.9299 -1.1676
18879TIP3    H278129   3.618   1.945   0.420  0.6644  2.9444 -1.4191
18880TIP3   OH278130   0.898   3.107   2.127 -0.0317  0.1581  0.0500
18880TIP3    H178131   0.989   3.126   2.103 -0.0270 -0.0940 -0.1337
18880TIP3    H278132   0.904   3.066   2.213 -0.0413  0.9681  0.4487
18881TIP3   OH278133   5.468   1.997  14.559  0.0832 -0.0043 -0.1765
18881TIP3    H178134   5.471   1.933  14.630 -0.4734 -1.5901 -1.5407
18881TIP3    H278135   5.542   2.055  14.577  2.4133 -2.6794 -0.4128
18882TIP3   OH278136   1.959   0.378   2.234 -0.2406 -0.2368  0.0032
18882TIP3    H178137   1.965   0.302   2.293 -1.1439 -0.2202  0.1229
18882TIP3    H278138   1.914   0.344   2.157  1.9975 -0.5800 -1.2505
18883TIP3   OH278139   2.437   4.198  13.585 -0.1555 -0.6012 -0.4314
18883TIP3    H178140   2.425   4.293  13.577  1.5984 -0.2906  0.1829
18883TIP3    H278141   2.529   4.187  13.610 -0.2827 -2.4808 -0.6257
18884TIP3   OH278142   6.013   1.164   2.484  0.2242  0.9504 -0.1428
18884TIP3    H178143   5.999   1.250   2.524 -0.5754  0.7811 -0.0495
18884TIP3    H278144   5.963   1.104   2.539 -0.3431  0.6208 -1.0107
18885TIP3   OH278145   6.619   5.770  12.437  0.0905 -0.3216  0.0211
18885TIP3    H178146   6.611   5.790  12.344  0.7338  0.7668  0.1786
18885TIP3    H278147   6.530   5.779  12.472  0.0938  0.7819 -0.2180
18886TIP3   OH278148   2.271   5.984  14.898  0.0814  0.5337  0.0707
18886TIP3    H178149   2.262   6.064  14.950  1.5324  0.1125  1.0289
18886TIP3    H278150   2.189   5.978  14.849 -1.3645  0.9603  2.3014
18887TIP3   OH278151   1.343   3.576  12.747  0.0085  0.1568 -0.0209
18887TIP3    H178152   1.281   3.503  12.754  0.7644 -0.5294 -0.3507
18887TIP3    H278153   1.357   3.603  12.838  0.9875 -1.2094  0.2623
18888TIP3   OH278154   3.399   2.304  11.481 -0.0328  0.4824  0.3235
18888TIP3    H178155   3.463   2.338  11.542 -1.0119  0.5565  1.3517
18888TIP3    H278156   3.382   2.376  11.420  1.9542 -0.0346 -0.9317
18889TIP3   OH278157   1.951   0.260  12.303 -0.5198  0.6740  0.0707
18889TIP3    H178158   1.874   0.249  12.247 -0.0952 -0.1092 -0.3699
18889TIP3    H278159   2.026   0.243  12.246 -0.1008 -0.8446  1.0109
18890TIP3   OH278160   0.599   4.868  16.491 -0.0054  0.3854 -0.4090
18890TIP3    H178161   0.604   4.953  16.446  0.5392  1.3536  1.3680
18890TIP3    H278162   0.620   4.889  16.582 -0.5197 -1.5744  0.1938
18891TIP3   OH278163   1.474   1.736  11.407  0.0611  0.2369 -0.2636
18891TIP3    H178164   1.533   1.745  11.482  0.3685  2.6464 -0.7112
18891TIP3    H278165   1.518   1.671  11.351  0.4628 -0.6482  1.0009
18892TIP3   OH278166   6.439   0.245  14.315 -0.1982 -0.6226 -0.3808
18892TIP3    H178167   6.525   0.206  14.300  0.7711  1.0438  0.6449
18892TIP3    H278168   6.402   0.195  14.387  1.3138  0.6808  1.3792
18893TIP3   OH278169   2.943   4.385   1.604 -0.2922  0.6257 -0.0593
18893TIP3    H178170   3.013   4.338   1.648  0.2166  0.9677 -0.4975
18893TIP3    H278171   2.982   4.417   1.523 -1.4243 -0.6817 -1.1703
18894TIP3   OH278172   4.507   6.560   4.720 -0.4173 -0.7315 -0.2562
18894TIP3    H178173   4.565   6.549   4.645  0.7564  0.3928  0.4253
18894TIP3    H278174   4.468   6.474   4.734  2.6410 -2.1513  0.4305
18895TIP3   OH278175   3.045   6.729   5.895 -0.2391 -0.0626  0.4712
18895TIP3    H178176   3.087   6.795   5.950  2.9655  0.0898 -1.8578
18895TIP3    H278177   3.102   6.653   5.900 -1.2117 -0.9182 -0.6776
18896TIP3   OH278178   3.000   4.344   2.175 -0.3267  0.6650 -0.4506
18896TIP3    H178179   2.906   4.335   2.165 -0.3730 -2.4384  1.5881
18896TIP3    H278180   3.017   4.319   2.266  2.6820 -1.5365 -1.4522
18897TIP3   OH278181   0.892   5.893   4.237  1.0377 -0.1845 -0.3179
18897TIP3    H178182   0.955   5.895   4.309  0.8621  1.1111 -0.1830
18897TIP3    H278183   0.807   5.884   4.280  1.0497 -1.0470 -0.4572
18898TIP3   OH278184   1.367   6.111   2.283  0.5237 -0.0688  0.4399
18898TIP3    H178185   1.287   6.059   2.268 -0.2455  1.4269 -0.9928
18898TIP3    H278186   1.430   6.048   2.317 -0.4941 -1.8654 -0.8145
18899TIP3   OH278187   4.127   2.184   3.926 -0.8289  0.2934  0.1057
18899TIP3    H178188   4.064   2.159   3.994 -0.3331  2.8440  1.6015
18899TIP3    H278189   4.210   2.191   3.972  0.3740 -1.6793 -1.5876
18900TIP3   OH278190   0.316   5.931  15.086  0.1015 -0.2228 -0.3647
18900TIP3    H178191   0.315   5.942  14.991 -1.4992  0.7807 -0.2788
18900TIP3    H278192   0.407   5.943  15.112  0.5385 -0.4072 -1.7553
18901TIP3   OH278193   5.341   1.067   5.902  0.0977  0.0473 -0.3772
18901TIP3    H178194   5.262   1.120   5.914 -0.0128 -0.1069 -0.4168
18901TIP3    H278195   5.400   1.096   5.971 -0.8807 -1.4883  1.1904
18902TIP3   OH278196   3.462   2.575   3.121 -0.3005 -1.0583  0.1949
18902TIP3    H178197   3.485   2.494   3.075 -0.7478 -1.6301  0.9673
18902TIP3    H278198   3.484   2.644   3.058  0.4573 -1.7469 -0.3251
18903TIP3   OH278199   5.199   1.366   1.231  0.4704 -0.0291 -0.3717
18903TIP3    H178200   5.201   1.400   1.321 -0.7699 -0.0828 -0.3143
18903TIP3    H278201   5.221   1.273   1.240 -0.7297 -0.2884  0.0191
18904TIP3   OH278202   3.396   1.962  11.136 -0.3085 -0.1158  0.0951
18904TIP3    H178203   3.446   1.911  11.199 -0.5597  2.2210  2.3164
18904TIP3    H278204   3.309   1.970  11.174 -0.5634  1.1064 -0.6782
18905TIP3   OH278205   3.771   3.735   1.018  0.1849  0.2587  0.1003
18905TIP3    H178206   3.863   3.739   1.046  0.0270 -2.1863  1.1919
18905TIP3    H278207   3.721   3.764   1.094 -0.0336 -0.7525  0.3464
18906TIP3   OH278208   6.143   3.291  13.067  0.1711 -0.5362  0.1301
18906TIP3    H178209   6.150   3.210  13.015 -1.6551 -0.5056 -0.2203
18906TIP3    H278210   6.110   3.262  13.152  0.5764 -0.2608  0.3883
18907TIP3   OH278211   1.370   4.927   4.429  0.7097  0.8993 -0.5518
18907TIP3    H178212   1.405   5.016   4.425 -1.3900  1.7367 -1.5191
18907TIP3    H278213   1.390   4.890   4.343 -0.1475  1.1409 -0.8594
18908TIP3   OH278214   0.731   2.756  15.464 -0.2101 -0.2605 -0.0298
18908TIP3    H178215   0.803   2.788  15.519  1.2264 -0.7616 -1.5323
18908TIP3    H278216   0.662   2.822  15.474  1.5203  1.7786 -0.7032
18909TIP3   OH278217   3.658   0.067  14.454  0.3326  0.7254  0.8452
18909TIP3    H178218   3.609   0.004  14.401  1.9474 -1.2195  1.5018
18909TIP3    H278219   3.595   0.135  14.476 -1.3102 -0.2803 -0.5330
18910TIP3   OH278220   5.223   3.842  11.088 -0.0798 -0.1789  0.4013
18910TIP3    H178221   5.246   3.818  10.998  0.6604 -0.2369  0.6005
18910TIP3    H278222   5.298   3.813  11.140  0.2389  1.3044  0.8283
18911TIP3   OH278223   2.624   3.618   0.816  0.0827 -0.0507 -0.3705
18911TIP3    H178224   2.647   3.632   0.724  0.3302  0.5720 -0.2226
18911TIP3    H278225   2.564   3.689   0.837 -0.6509 -0.6847 -0.2754
18912TIP3   OH278226   1.448   4.602  16.220  0.3181 -0.1636 -0.3969
18912TIP3    H178227   1.478   4.563  16.303 -1.7199 -0.8165  0.0939
18912TIP3    H278228   1.499   4.683  16.213  0.4626 -0.0133  1.5820
18913TIP3   OH278229   1.047   5.560  15.895  0.4922  0.1934  0.4566
18913TIP3    H178230   1.129   5.518  15.869  0.0774  0.2150 -0.9931
18913TIP3    H278231   1.027   5.524  15.981  0.9112 -1.4481 -0.1078
18914TIP3   OH278232   0.223   4.311  11.611 -0.0618  0.0838  0.0629
18914TIP3    H178233   0.301   4.348  11.652 -0.8665  2.1987 -0.1802
18914TIP3    H278234   0.201   4.235  11.665  0.9787  0.6637  1.3688
18915TIP3   OH278235   4.762   0.760   0.839 -0.1990 -0.2726 -0.1259
18915TIP3    H178236   4.729   0.672   0.858  2.2607 -1.0687  0.8566
18915TIP3    H278237   4.853   0.746   0.812  0.4161  1.9879  0.5524
18916TIP3   OH278238   4.737   5.268  15.922  0.4098 -0.2538 -0.1577
18916TIP3    H178239   4.766   5.186  15.961 -0.0868  0.0613  0.9174
18916TIP3    H278240   4.692   5.314  15.993  1.0116  1.1191 -0.6223
18917TIP3   OH278241   0.395   3.535  12.433  0.2703  0.2509  0.0367
18917TIP3    H178242   0.459   3.587  12.384  0.4018 -0.8669 -1.0423
18917TIP3    H278243   0.433   3.527  12.520  2.5267 -1.7856 -1.0078
18918TIP3   OH278244   4.062   0.125   0.645 -0.3957  0.6595  0.1818
18918TIP3    H178245   3.983   0.078   0.619  1.4729 -1.0328 -3.1862
18918TIP3    H278246   4.047   0.215   0.617 -0.7752  0.0975 -1.5809
18919TIP3   OH278247   5.597   5.179  14.076  0.7041  0.2982  0.5515
18919TIP3    H178248   5.634   5.204  14.160 -0.9769  2.8546  0.6423
18919TIP3    H278249   5.508   5.151  14.097  0.4297  0.4872 -0.3221
18920TIP3   OH278250   0.278   4.183  14.923  0.0166 -0.3223  0.3720
18920TIP3    H178251   0.357   4.232  14.944 -1.5575  1.9969  1.4301
18920TIP3    H278252   0.227   4.185  15.005 -1.1851 -1.6373 -0.2984
18921TIP3   OH278253   6.743   4.773   2.354 -0.1641 -0.1051  0.2086
18921TIP3    H178254   6.730   4.737   2.441  1.7130 -0.3252  0.4526
18921TIP3    H278255   6.657   4.804   2.327 -1.0980 -1.4812  1.4747
18922TIP3   OH278256   2.050   5.074   3.743  0.2561 -0.1678  0.6393
18922TIP3    H178257   2.044   5.101   3.835 -0.9834  0.6853  0.3322
18922TIP3    H278258   2.007   4.988   3.741 -0.7906  0.3466  0.6562
18923TIP3   OH278259   1.824   2.651  12.044 -0.8098  0.1533 -0.6115
18923TIP3    H178260   1.735   2.617  12.058 -0.6817  0.3161  0.7704
18923TIP3    H278261   1.811   2.730  11.992 -1.2960 -0.7804 -1.9748
18924TIP3   OH278262   4.539   5.657   4.068  0.4685 -0.3496  0.4832
18924TIP3    H178263   4.497   5.733   4.108  0.6933 -0.0839  0.2132
18924TIP3    H278264   4.610   5.635   4.129 -0.4806 -1.2394  1.3174
18925TIP3   OH278265   2.802   1.488   5.281 -0.0572 -0.3735 -0.0201
18925TIP3    H178266   2.781   1.557   5.344  2.0192 -1.5277  2.0787
18925TIP3    H278267   2.758   1.516   5.200 -0.9272  2.3614  1.2583
18926TIP3   OH278268   3.155   2.645   3.665  0.0918 -0.0778  0.1961
18926TIP3    H178269   3.107   2.727   3.674  0.7834  0.2990  0.5361
18926TIP3    H278270   3.245   2.667   3.691  0.4275 -0.7891 -0.3419
18927TIP3   OH278271   1.485   2.344   3.886 -0.1630 -0.1462  0.1700
18927TIP3    H178272   1.460   2.391   3.965  1.1956  0.5168  0.2288
18927TIP3    H278273   1.466   2.252   3.905 -0.0044  0.0273  1.1940
18928TIP3   OH278274   0.507   2.423  10.809  0.1322  0.3446 -0.4123
18928TIP3    H178275   0.556   2.357  10.759 -0.5557 -0.4240 -0.0829
18928TIP3    H278276   0.425   2.434  10.761 -0.7328 -0.7349  0.7539
18929TIP3   OH278277   5.794   0.571   2.030 -0.0424  0.3083  0.6234
18929TIP3    H178278   5.729   0.530   2.087 -0.5611  0.2090 -0.0284
18929TIP3    H278279   5.767   0.546   1.941  0.6461  0.6144  0.3223
18930TIP3   OH278280   1.332   2.377   3.248  0.3931 -0.2755 -0.4959
18930TIP3    H178281   1.240   2.388   3.224  0.3527 -0.0998 -0.2644
18930TIP3    H278282   1.339   2.284   3.270  0.0669 -0.1217  0.3079
18931TIP3   OH278283   6.556   5.615  13.891 -0.3652  0.7975  0.0733
18931TIP3    H178284   6.550   5.673  13.967 -1.7502 -0.1410  0.7233
18931TIP3    H278285   6.499   5.541  13.913 -1.7470  1.0351 -2.3364
18932TIP3   OH278286   3.296   4.800  11.844 -0.1165  0.4353  0.4712
18932TIP3    H178287   3.326   4.713  11.820  1.5935  1.5123 -1.7325
18932TIP3    H278288   3.204   4.802  11.816  0.4131 -0.0562 -1.4895
18933TIP3   OH278289   6.748   4.308  11.725  0.4223  0.1633  0.0112
18933TIP3    H178290   6.730   4.361  11.647  0.7703  1.1794  0.6038
18933TIP3    H278291   6.761   4.219  11.691  0.8918  0.6448 -1.1204
18934TIP3   OH278292   5.933   4.422  13.116  0.2867  0.3778  0.2845
18934TIP3    H178293   5.940   4.329  13.138  2.1883  0.5124  0.3964
18934TIP3    H278294   5.975   4.467  13.189  2.2792  1.1109 -1.2240
18935TIP3   OH278295   6.357   3.825   3.167 -0.2675  0.1482  0.4653
18935TIP3    H178296   6.410   3.903   3.151  2.0147 -1.2992  0.5085
18935TIP3    H278297   6.276   3.841   3.118  0.2152  2.4127  0.2883
18936TIP3   OH278298   0.872   6.051  15.285  0.0330 -0.0157  0.1197
18936TIP3    H178299   0.846   6.134  15.324 -1.1441  0.3652 -1.4060
18936TIP3    H278300   0.927   6.075  15.210 -1.9497 -0.4463 -1.5691
18937TIP3   OH278301   3.605   6.102   0.145 -0.5770  0.4430  0.2887
18937TIP3    H178302   3.676   6.063   0.198 -0.7446  0.2285  0.3601
18937TIP3    H278303   3.526   6.058   0.176 -0.5888 -0.2709 -0.6839
18938TIP3   OH278304   4.164   1.478   3.375 -0.5321 -0.4389 -0.0201
18938TIP3    H178305   4.173   1.554   3.432  0.4405 -0.5094 -0.0562
18938TIP3    H278306   4.077   1.443   3.394  0.3808 -1.4744  2.6925
18939TIP3   OH278307   1.479   0.587  16.212 -0.3767 -0.1351 -0.4122
18939TIP3    H178308   1.435   0.594  16.297  1.1744 -0.4313  0.4641
18939TIP3    H278309   1.540   0.513  16.223  0.3401  0.2658 -1.5440
18940TIP3   OH278310   5.173   2.837   5.538 -0.2939 -0.4134 -0.1556
18940TIP3    H178311   5.217   2.892   5.473 -0.3525  1.4333  1.2799
18940TIP3    H278312   5.244   2.803   5.592 -0.4205  0.7791  0.8102
18941TIP3   OH278313   1.923   4.595   2.941  0.1663 -0.7161  0.0575
18941TIP3    H178314   1.920   4.534   2.867 -0.6457 -0.4415 -0.1513
18941TIP3    H278315   1.831   4.604   2.968  0.0129  1.5955 -0.9363
18942TIP3   OH278316   3.881   1.669   2.360 -0.4433  0.8295 -0.0080
18942TIP3    H178317   3.952   1.728   2.335 -0.0537  0.9046  1.2062
18942TIP3    H278318   3.922   1.606   2.418 -0.4966 -1.6472 -2.4538
18943TIP3   OH278319   4.383   5.683  14.072 -0.0473 -0.4825 -0.0284
18943TIP3    H178320   4.321   5.657  14.004  1.5018 -2.3082 -0.8470
18943TIP3    H278321   4.334   5.742  14.129 -1.9155 -0.3031 -1.7287
18944TIP3   OH278322   2.197   1.247  13.921  0.0418 -0.5739 -0.2426
18944TIP3    H178323   2.220   1.320  13.863  0.4196  1.0657  1.8776
18944TIP3    H278324   2.113   1.216  13.887  1.1534 -1.0219 -2.8495
18945TIP3   OH278325   5.110   5.637  15.616  0.1031  0.5282  0.1043
18945TIP3    H178326   5.077   5.563  15.564  0.5144  2.4146 -3.1123
18945TIP3    H278327   5.030   5.682  15.646 -0.1456 -0.9699  1.8964
18946TIP3   OH278328   0.092   1.387   5.210 -0.3778 -0.3851 -0.3847
18946TIP3    H178329   0.132   1.473   5.202  1.0903 -0.9709  0.1705
18946TIP3    H278330   0.002   1.404   5.238 -0.2933  0.9663 -0.8866
18947TIP3   OH278331   1.018   6.526  13.858  0.3898  0.9574 -0.1831
18947TIP3    H178332   1.095   6.582  13.845  2.2447 -1.1792  0.8140
18947TIP3    H278333   1.008   6.482  13.773  1.6473 -0.2938  0.2771
18948TIP3   OH278334   5.466   1.681  11.025  0.4729  0.7446 -0.9275
18948TIP3    H178335   5.492   1.740  10.955  0.8563  0.1377 -1.3070
18948TIP3    H278336   5.465   1.594  10.985 -0.6515  0.5554 -0.5272
18949TIP3   OH278337   4.423   3.727   3.476  0.2024  0.0552  0.0996
18949TIP3    H178338   4.447   3.805   3.425  1.7745 -0.9682 -0.7861
18949TIP3    H278339   4.454   3.745   3.564  1.6400 -0.0176 -0.3661
18950TIP3   OH278340   0.139   1.576   4.486  0.0069  0.0133  0.3492
18950TIP3    H178341   0.216   1.605   4.439 -1.1237  0.9262 -1.0279
18950TIP3    H278342   0.071   1.640   4.463 -1.3995 -1.2768  0.7445
18951TIP3   OH278343   5.531   3.899  12.210 -0.2637  0.5051 -0.4527
18951TIP3    H178344   5.440   3.894  12.183 -0.4165  1.0162 -0.0523
18951TIP3    H278345   5.539   3.984  12.253  0.2387  0.1917  0.0947
18952TIP3   OH278346   6.362   2.995   6.018  0.4725  0.3125  0.1706
18952TIP3    H178347   6.415   2.922   5.987  1.0478  1.6109 -2.1582
18952TIP3    H278348   6.366   2.990   6.113 -0.3187 -3.2251  0.1521
18953TIP3   OH278349   6.703   2.789  11.686  0.4047  0.1290  0.1866
18953TIP3    H178350   6.672   2.849  11.618 -2.1065 -1.7588 -0.4908
18953TIP3    H278351   6.797   2.783  11.671  0.2052  1.2002 -1.9604
18954TIP3   OH278352   2.786   6.155  16.107 -0.5671  0.0507 -0.2196
18954TIP3    H178353   2.876   6.123  16.100 -0.3216  1.0811 -2.7930
18954TIP3    H278354   2.732   6.082  16.080 -0.2392  0.5193 -2.2645
18955TIP3   OH278355   2.798   6.073  16.834  0.7558 -0.0760  0.1588
18955TIP3    H178356   2.891   6.071  16.852  0.7765  2.0787  0.5988
18955TIP3    H278357   2.764   6.146  16.887 -0.8806  0.1945 -1.1512
18956TIP3   OH278358   4.338   6.390   2.302  0.4450  0.2633 -0.2278
18956TIP3    H178359   4.303   6.354   2.384  1.1024  0.4660  0.1504
18956TIP3    H278360   4.280   6.356   2.234  1.6780 -2.4992 -0.0323
18957TIP3   OH278361   3.989   5.541  16.890  0.3282 -0.3741  0.0013
18957TIP3    H178362   3.926   5.538  16.962 -0.2482  0.5596 -0.4491
18957TIP3    H278363   3.940   5.577  16.816  1.8432  2.1829  0.1350
18958TIP3   OH278364   4.112   0.388   0.998 -0.0066 -0.5748  0.1975
18958TIP3    H178365   4.070   0.451   0.939  0.7694  0.8397  1.0883
18958TIP3    H278366   4.199   0.374   0.961  0.1523 -0.3943  0.4986
18959TIP3   OH278367   6.092   5.986  12.439  0.4191 -0.3851 -0.3160
18959TIP3    H178368   6.134   5.918  12.388 -0.6387  0.8169 -2.9759
18959TIP3    H278369   6.132   6.068  12.407 -1.3867  0.5119 -0.4064
18960TIP3   OH278370   2.224   3.319   5.694  0.3904 -0.1163 -0.0018
18960TIP3    H178371   2.146   3.372   5.711  1.1893  1.6930 -1.6794
18960TIP3    H278372   2.295   3.383   5.687  1.2942 -1.3069 -2.7490
18961TIP3   OH278373   5.216   4.021   1.701 -0.2114  0.1776 -0.2103
18961TIP3    H178374   5.138   3.970   1.683 -0.3770  0.3393  0.0499
18961TIP3    H278375   5.263   3.972   1.769 -0.4116  0.4116  0.0985
18962TIP3   OH278376   0.758   0.853  15.501  0.4833 -0.1412  0.2860
18962TIP3    H178377   0.680   0.816  15.459 -0.0093  0.7016  0.4536
18962TIP3    H278378   0.735   0.944  15.520  1.3896  0.0242  0.6415
18963TIP3   OH278379   1.063   0.694   2.760  0.3920 -0.2589  0.0980
18963TIP3    H178380   1.154   0.684   2.789  0.4502 -0.9147 -0.2925
18963TIP3    H278381   1.023   0.752   2.825  1.6239  1.7434 -0.8418
18964TIP3   OH278382   4.041   5.815  13.897 -0.5552  0.0120 -0.0089
18964TIP3    H178383   3.956   5.828  13.856  0.2810  0.6093 -1.6533
18964TIP3    H278384   4.096   5.884  13.859  0.8062 -0.7074  0.6001
18965TIP3   OH278385   5.798   1.362   5.503 -0.5273 -0.0034 -0.0310
18965TIP3    H178386   5.890   1.363   5.530 -0.9454 -2.9405  2.0401
18965TIP3    H278387   5.794   1.296   5.433 -1.1439 -0.2433  0.2240
18966TIP3   OH278388   4.043   4.577  14.761  0.0732  0.4768 -0.0312
18966TIP3    H178389   4.068   4.626  14.839  0.1532 -0.2591  0.4129
18966TIP3    H278390   4.001   4.642  14.704  1.7195  1.4460 -0.2000
18967TIP3   OH278391   6.650   3.697   0.531 -0.3131 -0.3407 -0.2482
18967TIP3    H178392   6.658   3.738   0.445 -0.9857  0.7108  0.1718
18967TIP3    H278393   6.714   3.744   0.585 -1.2503  0.3385  0.2937
18968TIP3   OH278394   6.697   1.430  16.765 -0.1855  0.3917 -0.0814
18968TIP3    H178395   6.630   1.428  16.696 -1.3267  2.4520  0.8623
18968TIP3    H278396   6.729   1.340  16.770 -0.7180 -0.0309 -2.6244
18969TIP3   OH278397   0.113   3.085   3.720 -0.6797  0.0891  0.6596
18969TIP3    H178398   0.051   3.035   3.773  0.6193 -0.6592  1.5308
18969TIP3    H278399   0.102   3.051   3.632  1.8386 -3.6482  1.5627
18970TIP3   OH278400   3.869   4.139   1.473  0.0531 -0.4301 -0.9590
18970TIP3    H178401   3.877   4.210   1.410  1.0131  1.3115  0.9947
18970TIP3    H278402   3.919   4.169   1.549 -1.3715 -2.2323  0.7994
18971TIP3   OH278403   6.443   0.641   4.490  0.3428 -0.7120  0.0865
18971TIP3    H178404   6.536   0.633   4.512  0.6383 -0.1348 -0.8878
18971TIP3    H278405   6.413   0.552   4.474  1.1928 -0.7574 -1.3676
18972TIP3   OH278406   0.598   5.183   0.467 -0.4909 -0.0382 -0.5068
18972TIP3    H178407   0.543   5.205   0.542  0.9168  1.7754  0.0861
18972TIP3    H278408   0.570   5.244   0.399  0.4676  0.6673 -0.3067
18973TIP3   OH278409   2.664   4.458  12.274  0.1347  0.1406 -0.2859
18973TIP3    H178410   2.742   4.477  12.326  0.5019 -0.1642 -0.7106
18973TIP3    H278411   2.673   4.513  12.196  0.3224 -0.4498 -0.6956
18974TIP3   OH278412   2.573   2.830   1.901  0.1860 -0.1693 -0.4641
18974TIP3    H178413   2.651   2.885   1.905  0.2960 -0.2653 -1.2080
18974TIP3    H278414   2.605   2.744   1.874 -0.2810  0.0362 -1.7349
18975TIP3   OH278415   0.195   2.747   2.328  0.1810 -0.5450  0.1791
18975TIP3    H178416   0.139   2.713   2.259  0.9286 -1.3494 -0.0501
18975TIP3    H278417   0.145   2.819   2.366  0.0530  0.4392 -1.7080
18976TIP3   OH278418   2.310   0.532   0.295 -0.3228  0.0474  0.2104
18976TIP3    H178419   2.292   0.546   0.202 -0.5401  2.0786  0.4969
18976TIP3    H278420   2.393   0.578   0.310 -0.7457  0.5213  1.1801
18977TIP3   OH278421   0.346   1.618   5.266  0.4418  0.7445 -0.2681
18977TIP3    H178422   0.417   1.582   5.319  1.1599  2.5509  0.0938
18977TIP3    H278423   0.373   1.604   5.176  0.5000  0.0102 -0.1374
18978TIP3   OH278424   1.761   6.815  16.669 -0.1229 -0.1830  0.1367
18978TIP3    H178425   1.750   6.891  16.613  2.6842  0.0271 -0.2763
18978TIP3    H278426   1.697   6.751  16.637 -0.1345  0.7519 -1.8170
18979TIP3   OH278427   3.722   4.933   3.032 -0.2987 -0.5558 -0.0423
18979TIP3    H178428   3.776   4.927   3.111 -0.3352  2.3758  0.3153
18979TIP3    H278429   3.685   5.021   3.035 -0.5510 -0.4498 -3.1817
18980TIP3   OH278430   1.174   2.810  15.616  0.2390 -0.3814 -0.3462
18980TIP3    H178431   1.191   2.727  15.661  1.4256 -1.7408 -3.0827
18980TIP3    H278432   1.086   2.835  15.645 -0.0710 -2.4839  0.7387
18981TIP3   OH278433   4.720   1.987  11.433 -0.4923  0.0493  0.5637
18981TIP3    H178434   4.684   2.019  11.350  1.1259 -0.6244 -0.4603
18981TIP3    H278435   4.792   2.047  11.453 -1.2430  0.5662  1.8351
18982TIP3   OH278436   4.865   5.798   0.495 -0.5147  0.1922  0.1058
18982TIP3    H178437   4.899   5.782   0.583  1.8373  1.4114 -0.4738
18982TIP3    H278438   4.832   5.714   0.466  2.8281 -1.4401  0.5401
18983TIP3   OH278439   1.136   5.034  11.174 -0.2716 -0.4616 -0.0351
18983TIP3    H178440   1.157   5.082  11.093 -3.1502 -0.4056 -0.8505
18983TIP3    H278441   1.134   5.101  11.242 -0.8803  0.0428 -0.5340
18984TIP3   OH278442   3.229   0.960  14.695  0.8617  0.6961  0.3055
18984TIP3    H178443   3.185   1.041  14.668 -0.5848  0.3352  1.4109
18984TIP3    H278444   3.186   0.936  14.777  1.6201 -0.9289  0.2714
18985TIP3   OH278445   0.178   0.375  16.218 -0.1744 -0.1479  0.6356
18985TIP3    H178446   0.162   0.465  16.247 -0.2661 -0.6760  2.3147
18985TIP3    H278447   0.272   0.363  16.229  0.0133  0.0293 -0.5525
18986TIP3   OH278448   1.323   6.376  13.609 -0.0023  0.6515 -0.7505
18986TIP3    H178449   1.231   6.396  13.590  0.1849  0.8511 -1.4885
18986TIP3    H278450   1.320   6.322  13.688 -0.5887  3.0933  1.0239
18987TIP3   OH278451   2.631   6.462   1.497  0.2144  0.1443  0.3321
18987TIP3    H178452   2.634   6.557   1.485  0.6280  0.2170  0.9323
18987TIP3    H278453   2.709   6.430   1.451 -0.2442  0.0299 -0.3747
18988TIP3   OH278454   6.250   0.258  15.434 -0.4229  0.3062 -0.0132
18988TIP3    H178455   6.217   0.259  15.524  1.1302 -0.5342  0.6097
18988TIP3    H278456   6.173   0.276  15.380 -1.6807 -0.5636  1.4048
18989TIP3   OH278457   0.606   5.691   4.661  0.4905 -0.4152 -0.2010
18989TIP3    H178458   0.550   5.613   4.657 -0.3348  0.2124 -1.9779
18989TIP3    H278459   0.621   5.705   4.754  0.7349 -2.7343  0.1732
18990TIP3   OH278460   0.796   6.525   2.473 -0.8419  0.0912 -0.1318
18990TIP3    H178461   0.830   6.567   2.552 -0.6328 -1.9930  0.9531
18990TIP3    H278462   0.874   6.492   2.429 -0.7947  2.4843 -2.0837
18991TIP3   OH278463   6.475   1.642   4.246 -0.1587  0.9710  0.4627
18991TIP3    H178464   6.506   1.561   4.286  0.7094  2.2322  2.5503
18991TIP3    H278465   6.427   1.614   4.169 -0.9064 -1.5965  1.7451
18992TIP3   OH278466   3.689   5.821   4.479  1.1559  0.0748  0.5286
18992TIP3    H178467   3.764   5.878   4.500  1.5950 -1.3196  3.1550
18992TIP3    H278468   3.651   5.860   4.400  2.2332  3.1884  1.3958
18993TIP3   OH278469   6.810   1.692   3.518  0.0410 -0.6094 -0.0471
18993TIP3    H178470   6.792   1.601   3.495  0.3299 -0.9101  0.8659
18993TIP3    H278471   6.763   1.706   3.600 -0.6663  0.3189 -0.5924
18994TIP3   OH278472   4.910   2.798  17.173 -0.0147 -0.3852 -0.0071
18994TIP3    H178473   4.914   2.878  17.120 -0.7705 -0.7992 -0.7248
18994TIP3    H278474   4.949   2.731  17.117  0.3583 -0.5788  0.4787
18995TIP3   OH278475   4.806   3.198  14.275 -0.6741  0.1977 -0.0342
18995TIP3    H178476   4.755   3.164  14.348 -2.2240  1.3879 -0.5230
18995TIP3    H278477   4.772   3.151  14.199 -0.5655  0.5070 -0.2752
18996TIP3   OH278478   1.614   5.309  10.894 -0.0968  0.3043 -0.1735
18996TIP3    H178479   1.705   5.325  10.921  0.4190 -0.4605 -1.4103
18996TIP3    H278480   1.620   5.239  10.830 -1.8328 -1.6337  1.6501
18997TIP3   OH278481   0.002   2.608   4.719 -0.2147 -0.3114  0.4857
18997TIP3    H178482   0.047   2.684   4.681 -0.3595  0.2900  1.4769
18997TIP3    H278483  -0.091   2.627   4.706 -0.2399 -0.5133  0.3745
18998TIP3   OH278484   2.360   4.133  14.479  0.2494  0.3431 -0.3132
18998TIP3    H178485   2.391   4.131  14.569  3.1341  1.5230 -1.1461
18998TIP3    H278486   2.429   4.090  14.428 -0.6339  0.9093 -2.1002
18999TIP3   OH278487   0.021   6.009   0.371 -0.1157  0.2450  0.1451
18999TIP3    H178488  -0.029   6.039   0.295  0.4159 -0.4914 -0.5058
18999TIP3    H278489   0.025   5.914   0.361 -0.2268  0.1144  1.2217
19000TIP3   OH278490   4.912   5.760   3.603  0.6076  0.5538  0.1189
19000TIP3    H178491   4.978   5.740   3.669 -0.2098 -0.3941  0.6919
19000TIP3    H278492   4.961   5.794   3.529  1.5743  1.3931  1.1143
19001TIP3   OH278493   2.995   2.918  12.658 -0.4463  0.8554 -0.1808
19001TIP3    H178494   3.046   2.838  12.650 -2.4933 -0.9120  2.5259
19001TIP3    H278495   2.998   2.938  12.752 -2.9470  1.8438 -0.2528
19002TIP3   OH278496   2.008   5.560  16.811 -0.2419 -0.6178 -0.4732
19002TIP3    H178497   1.925   5.564  16.763  0.6577  1.0259 -2.0304
19002TIP3    H278498   2.027   5.652  16.831  0.4954 -1.1037  1.1865
19003TIP3   OH278499   0.553   2.015   2.402 -0.5046 -0.4894  0.0780
19003TIP3    H178500   0.492   2.045   2.335  0.0926  1.6837  0.4261
19003TIP3    H278501   0.508   2.033   2.485 -0.2568 -0.8787  0.2996
19004TIP3   OH278502   0.201   2.134  14.113  0.0735 -0.2016 -0.4142
19004TIP3    H178503   0.230   2.102  14.198 -1.9480  1.0530  0.8352
19004TIP3    H278504   0.277   2.178  14.076  0.4656  1.0490  1.7185
19005TIP3   OH278505   0.201   5.011  11.228 -0.4086 -0.4254  0.4366
19005TIP3    H178506   0.244   4.926  11.215  2.1177  0.9294 -0.5948
19005TIP3    H278507   0.267   5.076  11.205 -3.0452  1.8610 -1.3782
19006TIP3   OH278508   6.062   2.328   4.219 -0.5000 -0.4529 -0.2445
19006TIP3    H178509   6.040   2.347   4.310  1.3524  0.1008  0.1304
19006TIP3    H278510   6.023   2.242   4.203  0.1044 -1.1076  1.4581
19007TIP3   OH278511   0.223   3.966   2.751 -0.4446 -0.6517 -0.6625
19007TIP3    H178512   0.154   3.902   2.735  0.6559 -1.6006 -1.7741
19007TIP3    H278513   0.176   4.047   2.773 -1.9136 -1.1965 -1.6538
19008TIP3   OH278514   0.493   0.952   4.529 -0.0506 -0.0839 -0.4137
19008TIP3    H178515   0.580   0.913   4.529 -0.9050 -2.1520 -1.3740
19008TIP3    H278516   0.450   0.917   4.607  0.5462  2.5152  1.2007
19009TIP3   OH278517   5.772   4.369   4.814  0.2396 -0.6341  0.4365
19009TIP3    H178518   5.716   4.444   4.834  1.2987 -0.1749  1.7887
19009TIP3    H278519   5.813   4.391   4.731 -1.9249 -1.2182 -0.8877
19010TIP3   OH278520   4.523   3.640   2.981  0.1285  0.3865  0.0183
19010TIP3    H178521   4.554   3.574   2.918 -0.6922 -0.8224  0.8246
19010TIP3    H278522   4.496   3.588   3.057 -0.3437  1.6971  0.7615
19011TIP3   OH278523   0.020   3.604   3.635 -0.4979  0.0580  0.3470
19011TIP3    H178524   0.048   3.517   3.664 -2.3858 -0.7106 -0.0319
19011TIP3    H278525   0.053   3.611   3.546  0.7360  0.2661  0.8005
19012TIP3   OH278526   5.146   5.138   3.103  0.0551  0.0040 -0.8655
19012TIP3    H178527   5.180   5.228   3.107 -0.4787  0.1819  0.3750
19012TIP3    H278528   5.179   5.097   3.183 -2.2804  0.0866  0.2147
19013TIP3   OH278529   0.997   0.244   1.694  0.4054  0.2842 -0.0024
19013TIP3    H178530   1.019   0.201   1.776  0.8701 -0.8386 -0.6904
19013TIP3    H278531   1.036   0.188   1.627  1.8951  2.2839 -0.9040
19014TIP3   OH278532   1.941   2.384  11.464 -0.1064 -0.6153  0.1466
19014TIP3    H178533   1.854   2.357  11.434  0.0796 -0.9296 -0.1195
19014TIP3    H278534   1.939   2.370  11.558 -0.7125  0.4122  0.3051
19015TIP3   OH278535   1.150   1.837   0.414 -0.2672  0.9757  0.0145
19015TIP3    H178536   1.182   1.870   0.498 -0.1398  0.7715  0.0461
19015TIP3    H278537   1.164   1.910   0.353  0.2716  0.8862  0.0234
19016TIP3   OH278538   5.098   2.126   5.106 -0.7982  0.5548  0.5311
19016TIP3    H178539   5.156   2.190   5.065 -0.3045  0.1278  0.5561
19016TIP3    H278540   5.018   2.129   5.053 -0.3099  0.2819 -0.2438
19017TIP3   OH278541   1.697   1.957   5.460  0.3747  0.8188 -0.0584
19017TIP3    H178542   1.653   1.989   5.381 -0.7418  0.9873  0.6123
19017TIP3    H278543   1.628   1.916   5.512  1.4234 -0.9522  0.0107
19018TIP3   OH278544   4.157   4.562  12.187  0.2410 -0.4603 -0.0795
19018TIP3    H178545   4.151   4.548  12.093 -0.9220 -0.4361 -0.0220
19018TIP3    H278546   4.246   4.597  12.200  0.7342 -1.2981 -1.0391
19019TIP3   OH278547   1.695   3.536   3.779  0.0166  0.0864  0.8649
19019TIP3    H178548   1.635   3.560   3.709 -0.7572 -2.4244  0.5613
19019TIP3    H278549   1.767   3.491   3.734 -0.3845 -1.3737  1.6326
19020TIP3   OH278550   1.545   2.926   4.009 -0.0103  0.3644 -0.3224
19020TIP3    H178551   1.477   2.945   3.945  0.1019  1.1772 -0.2130
19020TIP3    H278552   1.550   2.831   4.012 -0.7020  0.3097 -0.7944
19021TIP3   OH278553   6.703   3.707   4.186 -0.5724  0.0894 -0.4582
19021TIP3    H178554   6.701   3.676   4.277 -1.5306  0.5622 -0.3126
19021TIP3    H278555   6.621   3.754   4.174  0.5936  2.1706 -0.8178
19022TIP3   OH278556   3.763   4.302   0.369 -0.6746 -0.1622  0.4324
19022TIP3    H178557   3.791   4.392   0.354  0.2944 -0.4370  0.5323
19022TIP3    H278558   3.750   4.296   0.464  0.3745 -0.4239  0.5739
19023TIP3   OH278559   4.185   3.647  16.712  0.6217  0.3288 -0.0413
19023TIP3    H178560   4.227   3.651  16.626  0.3266  0.3483 -0.1839
19023TIP3    H278561   4.253   3.611  16.770  0.1211 -1.8648 -0.7262
19024TIP3   OH278562   5.273   1.065   0.963  0.2676 -0.4139  0.0468
19024TIP3    H178563   5.188   1.021   0.970  0.0309 -0.0216 -0.3201
19024TIP3    H278564   5.320   1.016   0.895 -0.2794  0.3318 -0.9020
19025TIP3   OH278565   5.972   3.002   3.232  0.3883 -0.1973  0.6056
19025TIP3    H178566   5.949   3.045   3.149 -0.3271 -1.8092 -0.0851
19025TIP3    H278567   5.890   2.963   3.262  1.0256 -1.1710  1.1202
19026TIP3   OH278568   2.761   2.908  14.451  0.7320  0.4639 -0.1534
19026TIP3    H178569   2.766   2.998  14.482  0.6566  0.7026 -0.8340
19026TIP3    H278570   2.667   2.887  14.452  0.7494  0.3864  0.0053
19027TIP3   OH278571   5.703   4.698  13.760  0.1212 -0.2446  0.3664
19027TIP3    H178572   5.622   4.686  13.810  0.5029  0.3814  1.1638
19027TIP3    H278573   5.766   4.731  13.824  0.5688  0.8122 -0.5864
19028TIP3   OH278574   5.588   5.734   0.580 -0.3773 -0.7164 -0.1408
19028TIP3    H178575   5.539   5.808   0.615  3.1001  1.3926  0.8584
19028TIP3    H278576   5.636   5.771   0.505  0.6456 -2.2132 -0.2674
19029TIP3   OH278577   0.033   4.412   0.766 -0.3773  0.1555  0.1137
19029TIP3    H178578   0.043   4.327   0.723 -0.1524  1.5374 -2.7579
19029TIP3    H278579   0.099   4.468   0.725 -2.8653  2.6798 -0.7393
19030TIP3   OH278580   3.501   3.043  14.246 -0.2126  0.4175 -0.5275
19030TIP3    H178581   3.461   3.029  14.160 -0.6715  2.9179 -0.8138
19030TIP3    H278582   3.428   3.040  14.308 -0.2457  0.8966 -0.5361
19031TIP3   OH278583   0.937   4.582  16.680 -0.6827 -0.0220  0.7204
19031TIP3    H178584   0.950   4.675  16.658 -0.4281 -0.4102 -0.9085
19031TIP3    H278585   0.864   4.555  16.625 -1.3212 -0.5964  1.8219
19032TIP3   OH278586   1.694   6.569   1.578 -0.6264  0.1871 -0.5157
19032TIP3    H178587   1.669   6.556   1.670  1.2651  0.5264  0.0990
19032TIP3    H278588   1.671   6.486   1.535 -0.4158 -0.4463  0.5483
19033TIP3   OH278589   3.407   2.693   2.352  0.3325  0.0489 -0.5473
19033TIP3    H178590   3.411   2.598   2.347 -0.5226  0.0052 -0.4399
19033TIP3    H278591   3.360   2.712   2.433  2.3206  0.6113  0.5450
19034TIP3   OH278592   6.624   6.668  12.176  0.9067  1.0348 -0.2745
19034TIP3    H178593   6.630   6.641  12.085  0.5973 -1.7492  0.4507
19034TIP3    H278594   6.713   6.654  12.211  0.4060 -0.5461  0.4602
19035TIP3   OH278595   3.633   4.777  14.793 -0.6640  0.1998 -0.3220
19035TIP3    H178596   3.584   4.848  14.752  0.5086 -0.3054 -2.7541
19035TIP3    H278597   3.582   4.698  14.773 -0.7719  0.0869  0.3743
19036TIP3   OH278598   5.396   6.021  16.435  0.0589  0.4275  0.5425
19036TIP3    H178599   5.437   6.035  16.350  0.0670  3.8523  0.9852
19036TIP3    H278600   5.303   6.012  16.416 -0.1542  2.8956  0.2229
19037TIP3   OH278601   3.146   1.899  16.977 -0.8588 -0.2065  0.5539
19037TIP3    H178602   3.170   1.931  17.065 -1.0910  2.4598 -0.2579
19037TIP3    H278603   3.056   1.867  16.987 -0.3240 -1.4970  1.5984
19038TIP3   OH278604   5.641   2.819  15.646 -0.4122  0.0010 -0.7828
19038TIP3    H178605   5.614   2.911  15.649  3.3534  1.2886 -0.6988
19038TIP3    H278606   5.577   2.774  15.701 -0.9627  3.0426  1.3757
19039TIP3   OH278607   1.676   3.313   4.767  0.0124 -0.7987 -0.2655
19039TIP3    H178608   1.724   3.379   4.716  0.1802 -0.7479 -0.0430
19039TIP3    H278609   1.728   3.233   4.757  1.9094 -0.0823  2.4575
19040TIP3   OH278610   5.868   3.253  14.933  0.2399  0.1851 -0.1862
19040TIP3    H178611   5.906   3.246  14.845  0.2335  3.1067 -0.5359
19040TIP3    H278612   5.775   3.266  14.919  0.3034  1.1607  0.1871
19041TIP3   OH278613   4.960   2.418   1.567 -0.4862 -0.0115 -0.5410
19041TIP3    H178614   5.008   2.492   1.603  0.2208  0.3857 -2.1991
19041TIP3    H278615   4.992   2.342   1.616 -1.9155  0.8152  1.8602
19042TIP3   OH278616   6.408   2.146  16.197  0.0574  0.1859 -0.0519
19042TIP3    H178617   6.417   2.054  16.221  1.7812  1.2402  4.2046
19042TIP3    H278618   6.314   2.161  16.191 -0.2594 -1.6928 -0.2946
19043TIP3   OH278619   0.281   2.493   0.843  0.1617  0.0750  1.1772
19043TIP3    H178620   0.367   2.525   0.817 -0.3983  0.4317 -0.3543
19043TIP3    H278621   0.285   2.399   0.828 -0.0670  0.2431  0.0172
19044TIP3   OH278622   0.139   3.705   6.135  0.6582  0.4819  0.3807
19044TIP3    H178623   0.134   3.798   6.155  0.0037  0.4526  0.3936
19044TIP3    H278624   0.224   3.677   6.168 -1.1284 -0.0882  5.4968
19045TIP3   OH278625   1.495   0.884  16.206 -0.6112 -0.2757  0.3600
19045TIP3    H178626   1.508   0.794  16.236 -2.8551 -0.7081  0.2253
19045TIP3    H278627   1.469   0.932  16.284 -0.1902  0.0768  0.2856
19046TIP3   OH278628   0.341   3.138   4.901  0.1951  0.0511 -0.2021
19046TIP3    H178629   0.294   3.098   4.827  1.4069  0.3403 -1.1619
19046TIP3    H278630   0.396   3.067   4.935 -0.4749 -0.1263  0.5525
19047TIP3   OH278631   2.919   3.362  10.324  0.1522  0.2257  0.5785
19047TIP3    H178632   2.988   3.417  10.288  2.3478 -1.7937  1.4064
19047TIP3    H278633   2.927   3.279  10.276 -1.7244 -0.0715  0.7120
19048TIP3   OH278634   1.454   4.003   4.950  0.0565  0.3191  0.5540
19048TIP3    H178635   1.525   3.963   4.900  1.5734  1.2203  1.8887
19048TIP3    H278636   1.461   3.964   5.037  0.0267  1.6489  1.1766
19049TIP3   OH278637   1.592   2.874   2.125  0.2393 -0.6259 -0.2675
19049TIP3    H178638   1.667   2.918   2.085 -1.4374  1.7123 -0.9879
19049TIP3    H278639   1.563   2.932   2.194 -2.1219 -0.4448 -1.3130
19050TIP3   OH278640   5.268   2.583   4.324  0.1000 -0.1144  0.9484
19050TIP3    H178641   5.258   2.642   4.248  1.8480 -0.7666  0.1533
19050TIP3    H278642   5.268   2.642   4.399  2.1528  1.0126  0.1490
19051TIP3   OH278643   3.048   3.630  11.273  0.1297  0.1474 -0.6932
19051TIP3    H178644   3.021   3.564  11.209  1.7992 -0.5318 -0.7471
19051TIP3    H278645   2.980   3.628  11.340 -0.7013 -0.4282 -1.5240
19052TIP3   OH278646   2.506   4.036   0.108  0.6335  0.0583 -0.3733
19052TIP3    H178647   2.503   4.059   0.015 -2.4903 -0.4138 -0.5036
19052TIP3    H278648   2.488   3.942   0.110 -1.5003  0.4159  0.7242
19053TIP3   OH278649   2.708   3.510   2.428  0.5773 -0.5353 -0.4260
19053TIP3    H178650   2.723   3.489   2.521 -0.7107 -1.6000 -0.4339
19053TIP3    H278651   2.791   3.489   2.386  1.5224  0.9245  0.6110
19054TIP3   OH278652   2.563   0.192   0.882  0.3314  0.1184 -0.3732
19054TIP3    H178653   2.602   0.165   0.966  0.7639 -1.4195 -1.0316
19054TIP3    H278654   2.572   0.115   0.826  2.0943  1.8034 -2.5747
19055TIP3   OH278655   2.677   0.390   5.169 -0.4948 -0.0006  0.1493
19055TIP3    H178656   2.627   0.405   5.089  0.7134  0.2983 -0.5714
19055TIP3    H278657   2.736   0.465   5.175 -0.3239 -0.1961  1.1389
19056TIP3   OH278658   1.325   3.763   2.618 -0.0326 -0.0767 -0.5181
19056TIP3    H178659   1.283   3.790   2.537  0.2862 -1.4116 -1.1611
19056TIP3    H278660   1.384   3.835   2.640 -1.7474  1.2768 -0.2448
19057TIP3   OH278661   0.460   2.255   1.943 -0.2596  0.0943  0.0698
19057TIP3    H178662   0.485   2.164   1.927 -0.0779  0.3991 -1.5780
19057TIP3    H278663   0.505   2.305   1.874  1.1770  1.7000  2.0536
19058TIP3   OH278664   5.124   1.692   2.443 -0.3991 -0.4660  0.2872
19058TIP3    H178665   5.135   1.690   2.538 -1.5711  0.4037  0.4699
19058TIP3    H278666   5.039   1.653   2.427 -1.1616  1.2772 -0.1922
19059TIP3   OH278667   3.854   0.792  15.218 -0.3426 -0.2548 -0.4443
19059TIP3    H178668   3.835   0.788  15.124  1.1071  0.0593 -0.7844
19059TIP3    H278669   3.900   0.876  15.230 -1.4669  0.2306  0.7553
19060TIP3   OH278670   1.132   0.365  12.081 -0.4808 -0.4450  0.0349
19060TIP3    H178671   1.138   0.411  12.164  0.0854 -0.8212  0.2033
19060TIP3    H278672   1.202   0.301  12.083 -0.9485 -0.9867 -0.4097
19061TIP3   OH278673   5.106   1.597   4.623  0.2631  0.3101  0.3173
19061TIP3    H178674   5.140   1.579   4.711 -0.1148  0.2051  0.4411
19061TIP3    H278675   5.024   1.644   4.638 -0.8172 -1.4224  0.0617
19062TIP3   OH278676   5.896   3.669  14.978 -0.5235 -0.1358  0.6487
19062TIP3    H178677   5.879   3.727  15.052  1.2216  0.4126  0.6643
19062TIP3    H278678   5.987   3.640  14.991  0.1317  0.6742 -1.7153
19063TIP3   OH278679   5.368   0.539  13.741  0.4090  0.0803 -0.1628
19063TIP3    H178680   5.413   0.622  13.757  0.4304  0.2846 -1.2565
19063TIP3    H278681   5.315   0.555  13.663 -1.4362 -0.2175  0.9715
19064TIP3   OH278682   4.741   3.643  11.200  0.7694 -0.2161 -0.3143
19064TIP3    H178683   4.797   3.692  11.139  0.9039 -1.1842 -1.0016
19064TIP3    H278684   4.762   3.551  11.182  1.3249 -0.5235  1.6937
19065TIP3   OH278685   2.640   3.757  10.967  0.0441 -0.0713 -0.1759
19065TIP3    H178686   2.561   3.806  10.988 -0.9540 -1.1944 -1.1439
19065TIP3    H278687   2.688   3.752  11.049 -1.8249 -1.0187  0.9323
19066TIP3   OH278688   2.725   0.439  13.643  0.1424  0.9107  0.0981
19066TIP3    H178689   2.734   0.491  13.724  2.0764  2.0526 -0.7613
19066TIP3    H278690   2.812   0.402  13.630 -0.4944 -0.3148 -0.8024
19067TIP3   OH278691   2.129   1.112   0.184 -0.3182  0.9934  0.1837
19067TIP3    H178692   2.180   1.068   0.251  0.3760  0.6011 -0.5843
19067TIP3    H278693   2.063   1.048   0.157  1.3205 -0.0056 -1.6449
19068TIP3   OH278694   5.711   2.083  13.915  0.3365  0.2390  0.3366
19068TIP3    H178695   5.713   1.998  13.870 -0.4752  0.1927  0.3692
19068TIP3    H278696   5.772   2.138  13.866  1.0166 -0.4093  0.4211
19069TIP3   OH278697   1.067   0.206   4.937  0.0809 -0.3104  0.4665
19069TIP3    H178698   1.148   0.231   4.894 -0.1907 -0.5387 -0.1905
19069TIP3    H278699   1.017   0.287   4.943  0.3814 -0.1582  0.9265
19070TIP3   OH278700   1.987   5.150  14.109  0.3604 -0.8400  0.2168
19070TIP3    H178701   2.077   5.181  14.120  0.7597 -1.4069 -1.2844
19070TIP3    H278702   1.977   5.082  14.176  0.6350  0.0469  1.1884
19071TIP3   OH278703   0.294   3.063   3.020  0.4050 -0.2607  0.2432
19071TIP3    H178704   0.285   3.155   2.994  1.0481  0.1011  1.2090
19071TIP3    H278705   0.279   3.013   2.940  1.4696  0.7559 -0.6296
19072TIP3   OH278706   1.963   2.259   4.676 -0.1061  0.6400 -0.0922
19072TIP3    H178707   1.886   2.251   4.619 -0.2051  3.1351 -0.4415
19072TIP3    H278708   1.927   2.264   4.764 -0.1933 -0.0334 -0.0850
19073TIP3   OH278709   1.237   0.799  16.882 -0.0201 -0.5940 -0.7151
19073TIP3    H178710   1.145   0.811  16.905 -0.2331 -0.7548 -1.4465
19073TIP3    H278711   1.262   0.881  16.839  0.0499 -0.7111 -0.9011
19074TIP3   OH278712   4.880   6.322  13.864 -0.1275  0.2108  0.3849
19074TIP3    H178713   4.807   6.289  13.916 -0.2003 -0.5919 -0.2066
19074TIP3    H278714   4.954   6.323  13.926 -0.0191 -1.4974  0.3486
19075TIP3   OH278715   6.382   1.212  15.862  0.1263 -0.3137  0.3896
19075TIP3    H178716   6.321   1.160  15.811  2.3886 -0.5841 -2.2667
19075TIP3    H278717   6.327   1.269  15.915 -2.3964 -1.0584 -1.2755
19076TIP3   OH278718   1.669   6.147   0.035 -1.0142 -0.2916 -0.1367
19076TIP3    H178719   1.665   6.135  -0.060  0.8613  0.6611 -0.3982
19076TIP3    H278720   1.713   6.231   0.046 -0.1270 -0.9355  1.5679
19077TIP3   OH278721   2.070   6.707  16.923  0.4132  0.1311  0.7448
19077TIP3    H178722   2.085   6.761  16.845 -2.2621 -2.5437 -1.9249
19077TIP3    H278723   2.148   6.720  16.976  1.7971  3.2216 -1.6893
19078TIP3   OH278724   5.635   1.318   0.580  0.1350 -0.0424  0.2825
19078TIP3    H178725   5.605   1.406   0.603 -3.0361 -0.5738 -1.2548
19078TIP3    H278726   5.671   1.328   0.492  3.9152  0.3797  1.7099
19079TIP3   OH278727   3.353   2.221   3.906  0.1568 -0.3830 -0.2473
19079TIP3    H178728   3.336   2.130   3.932  2.9678 -1.1068 -0.6528
19079TIP3    H278729   3.353   2.219   3.810  2.0117 -0.4231 -0.2918
19080TIP3   OH278730   0.075   4.017  13.133 -0.1097 -0.4963  0.1807
19080TIP3    H178731   0.068   3.949  13.066 -1.6298  0.6827 -0.9173
19080TIP3    H278732   0.120   4.089  13.090  1.1794 -0.6502  1.2323
19081TIP3   OH278733   6.400   6.074  12.008  0.1778 -0.6094 -0.2443
19081TIP3    H178734   6.328   6.136  12.017  0.1115 -0.5767 -0.9155
19081TIP3    H278735   6.380   6.026  11.927  1.0051 -0.4709 -0.5386
19082TIP3   OH278736   4.188   3.995  12.369 -0.0419 -0.7585  0.4300
19082TIP3    H178737   4.147   3.975  12.453 -1.7545 -0.3765 -0.2674
19082TIP3    H278738   4.153   4.080  12.344  1.6560 -0.1283  0.0301
19083TIP3   OH278739   0.986   3.203   4.266  0.8598 -0.3705  0.6831
19083TIP3    H178740   1.038   3.156   4.331  0.7869  0.4368  1.3427
19083TIP3    H278741   1.007   3.160   4.183  4.1650  1.1340  0.5548
19084TIP3   OH278742   4.113   2.800   3.619 -0.2771 -0.3661  0.1176
19084TIP3    H178743   4.131   2.888   3.651  0.4329 -0.2616 -0.5325
19084TIP3    H278744   4.062   2.758   3.689  0.6024  0.0852  1.0450
19085TIP3   OH278745   3.089   6.714  15.580  0.1727  0.5844 -0.1502
19085TIP3    H178746   3.115   6.623  15.597 -0.8597  0.2406 -0.3815
19085TIP3    H278747   3.061   6.715  15.488 -3.3635  0.2528  0.7944
19086TIP3   OH278748   4.938   2.320   1.168  0.0099  0.2433 -0.1173
19086TIP3    H178749   5.017   2.274   1.197 -0.9758 -0.9903  0.7418
19086TIP3    H278750   4.892   2.257   1.113 -0.6241  0.7622 -0.1927
19087TIP3   OH278751   6.373   1.928   5.537  0.0262  0.2618  0.2166
19087TIP3    H178752   6.418   2.009   5.559  0.7472  0.4654 -1.7914
19087TIP3    H278753   6.357   1.934   5.443 -0.5321 -1.6279  0.1477
19088TIP3   OH278754   0.056   0.944  16.522 -0.1707 -0.3722  0.0151
19088TIP3    H178755   0.115   1.019  16.510  1.1688 -1.2488  0.8209
19088TIP3    H278756  -0.031   0.983  16.528  0.3792  1.0320 -0.5390
19089TIP3   OH278757   2.077   4.710   1.576  0.0192  0.2064 -0.2246
19089TIP3    H178758   2.033   4.730   1.658 -1.5876  1.2906 -1.2973
19089TIP3    H278759   2.145   4.777   1.568 -0.2840  0.5325 -0.1070
19090TIP3   OH278760   1.618   1.107  13.872 -0.3165  0.0199  0.6559
19090TIP3    H178761   1.643   1.181  13.815 -0.4414 -1.2953 -1.2126
19090TIP3    H278762   1.695   1.093  13.926  0.2991  0.5568 -0.0446
19091TIP3   OH278763   5.691   4.607   2.049  0.0368  0.0853 -0.7162
19091TIP3    H178764   5.671   4.523   2.007 -1.7857  0.8676 -1.5236
19091TIP3    H278765   5.733   4.584   2.131 -0.9629 -1.6459 -0.6544
19092TIP3   OH278766   6.120   2.158   1.847 -0.0545  0.0205 -0.0228
19092TIP3    H178767   6.181   2.208   1.901 -1.5220  0.0558  1.7271
19092TIP3    H278768   6.084   2.222   1.785  0.6511  0.3011 -0.1533
19093TIP3   OH278769   0.649   4.667   0.603  0.2278 -0.3511  0.3889
19093TIP3    H178770   0.634   4.634   0.692 -2.3202 -1.2159 -0.2743
19093TIP3    H278771   0.582   4.735   0.592  1.6080  0.9608 -0.3375
19094TIP3   OH278772   1.692   3.975   5.898  0.2981  0.1151  0.1964
19094TIP3    H178773   1.630   4.006   5.831  0.3189  0.1721  0.2039
19094TIP3    H278774   1.777   3.976   5.855 -0.0401 -2.7512 -0.8028
19095TIP3   OH278775   2.344   3.382  14.209  0.5147 -0.3768 -0.3661
19095TIP3    H178776   2.298   3.339  14.136  0.8582  2.9485 -2.7820
19095TIP3    H278777   2.275   3.407  14.270 -0.2027 -0.3290 -1.1855
19096TIP3   OH278778   5.485   0.422  11.107 -0.3059 -0.1228 -0.0350
19096TIP3    H178779   5.518   0.421  11.017  0.6205 -0.9253  0.2920
19096TIP3    H278780   5.564   0.428  11.161 -0.8598  0.4557  0.7287
19097TIP3   OH278781   5.838   5.337  16.561  0.2590 -0.1734  0.4288
19097TIP3    H178782   5.841   5.264  16.499  0.3384 -0.7758  1.1253
19097TIP3    H278783   5.761   5.320  16.614  0.1124  0.4166  0.4084
19098TIP3   OH278784   4.557   3.137   4.047 -0.3503  0.3664 -0.1760
19098TIP3    H178785   4.520   3.147   4.135 -0.5151 -0.5946 -0.1218
19098TIP3    H278786   4.482   3.118   3.991 -0.3369  1.7088 -0.6653
19099TIP3   OH278787   1.310   0.527  11.319 -0.0878  0.0173 -0.1352
19099TIP3    H178788   1.394   0.548  11.279 -0.8659  0.3907 -1.6444
19099TIP3    H278789   1.251   0.597  11.289 -1.0929 -0.5863  0.3656
19100TIP3   OH278790   6.645   3.732   2.611 -0.2773  0.0749 -0.2079
19100TIP3    H178791   6.710   3.663   2.621  1.0031  1.0018 -1.6960
19100TIP3    H278792   6.671   3.800   2.673  0.1269  0.3949 -0.7194
19101TIP3   OH278793   0.416   1.728   5.752 -0.5619  0.0035  0.1681
19101TIP3    H178794   0.472   1.688   5.687 -1.2869  0.2148 -0.6046
19101TIP3    H278795   0.419   1.822   5.734 -2.4393 -0.0976 -0.9814
19102TIP3   OH278796   1.896   4.411   3.410  0.3505  0.3041 -0.0087
19102TIP3    H178797   1.861   4.322   3.411 -1.2916  0.9200  0.0279
19102TIP3    H278798   1.938   4.422   3.495  0.2750 -0.3199  0.1072
19103TIP3   OH278799   6.066   3.846  13.271  0.7577  0.5787 -0.1634
19103TIP3    H178800   6.153   3.874  13.302  0.6977  1.7357 -0.9448
19103TIP3    H278801   6.079   3.832  13.177  0.1639  0.4835 -0.2309
19104TIP3   OH278802   4.384   5.656   5.242 -0.4289 -0.7561  0.4961
19104TIP3    H178803   4.393   5.707   5.322  0.3899 -0.6091  0.3256
19104TIP3    H278804   4.438   5.578   5.257 -0.2549 -0.7179  0.0827
19105TIP3   OH278805   5.838   3.538  11.955 -0.1377  0.2718  0.2062
19105TIP3    H178806   5.784   3.501  11.885  0.2372 -0.7751  0.4423
19105TIP3    H278807   5.818   3.631  11.955 -0.3887  0.2343 -1.0743
19106TIP3   OH278808   2.098   3.375  16.869  0.0710 -0.0905  0.7660
19106TIP3    H178809   2.129   3.451  16.919  2.3630 -0.3313 -0.1566
19106TIP3    H278810   2.061   3.317  16.935  0.9321  0.5902  1.8838
19107TIP3   OH278811   0.928   3.299  14.177 -0.5206  0.4096  0.1899
19107TIP3    H178812   1.001   3.290  14.116 -1.7951 -1.5034 -1.1797
19107TIP3    H278813   0.879   3.375  14.144 -0.7206 -0.0822 -0.6871
19108TIP3   OH278814   2.022   3.371   4.784  0.1428 -0.1764  0.2066
19108TIP3    H178815   2.068   3.338   4.707  1.4608 -0.9918  1.3054
19108TIP3    H278816   1.997   3.460   4.760  0.5365 -0.4035 -1.1498
19109TIP3   OH278817   3.263   4.365   4.108 -0.2125  0.6182 -0.0011
19109TIP3    H178818   3.326   4.436   4.123 -1.9193  1.9763  1.3097
19109TIP3    H278819   3.267   4.312   4.188 -0.4815  0.5502 -0.0301
19110TIP3   OH278820   6.072   5.538  11.833  0.2295 -0.4470  0.9500
19110TIP3    H178821   6.044   5.447  11.820 -3.4548  0.5733  0.7084
19110TIP3    H278822   6.118   5.560  11.752 -0.5546 -1.5536  0.1695
19111TIP3   OH278823   2.821   1.288   3.925  0.0891  0.0782  0.4613
19111TIP3    H178824   2.812   1.305   4.019 -1.0478  3.9141 -0.1682
19111TIP3    H278825   2.731   1.290   3.892  0.4964 -0.9013 -0.7885
19112TIP3   OH278826   1.234   4.671   6.187  0.0168 -0.1624 -0.1167
19112TIP3    H178827   1.272   4.586   6.163  0.0178 -0.4478  0.8488
19112TIP3    H278828   1.302   4.735   6.167  0.6902 -0.5798  0.7877
19113TIP3   OH278829   5.684   5.593  14.673 -0.6394 -0.8203 -0.8607
19113TIP3    H178830   5.767   5.546  14.663  0.1530  0.0678  1.0342
19113TIP3    H278831   5.655   5.572  14.762 -0.9470  1.1193 -0.4566
19114TIP3   OH278832   2.201   1.464   4.774 -0.0780  0.0320 -0.5675
19114TIP3    H178833   2.279   1.495   4.729  0.1705  0.4848  0.1592
19114TIP3    H278834   2.129   1.514   4.736  0.0219 -0.1713 -1.0258
19115TIP3   OH278835   6.530   3.286   1.272 -0.0594 -0.5758  0.5149
19115TIP3    H178836   6.465   3.235   1.225 -0.1567 -0.5603  0.6339
19115TIP3    H278837   6.610   3.233   1.267 -0.2970 -0.9978  1.1144
19116TIP3   OH278838   3.721   3.475  10.472  0.3405  0.0335 -0.1339
19116TIP3    H178839   3.725   3.559  10.516 -0.3173  0.7026 -1.3111
19116TIP3    H278840   3.629   3.450  10.475  0.1818  0.3810 -1.6331
19117TIP3   OH278841   2.850   4.509   3.058 -0.2595  0.7376  0.3144
19117TIP3    H178842   2.781   4.457   3.100 -1.0412  0.3680 -1.3526
19117TIP3    H278843   2.840   4.596   3.096  0.3427  0.0007  2.3130
19118TIP3   OH278844   3.572   5.722  12.897  0.3457 -0.2457  0.2765
19118TIP3    H178845   3.611   5.789  12.842 -1.2016 -0.1560 -0.7861
19118TIP3    H278846   3.604   5.639  12.860  0.8955 -0.1379  0.5086
19119TIP3   OH278847   3.991   4.790   5.952  0.8189  0.3419 -0.5886
19119TIP3    H178848   3.964   4.837   6.031  2.2348  1.1486 -0.5436
19119TIP3    H278849   3.999   4.699   5.981 -2.0489 -0.0476 -0.7047
19120TIP3   OH278850   2.376   5.594   4.215 -0.0622  0.5814  0.3326
19120TIP3    H178851   2.348   5.654   4.145  1.5665  1.0056  0.0009
19120TIP3    H278852   2.464   5.567   4.189  0.4271  0.4484  2.0337
19121TIP3   OH278853   0.944   1.530  16.514 -0.2803  0.3914  0.1576
19121TIP3    H178854   0.942   1.582  16.595 -0.1374 -0.2758  0.5990
19121TIP3    H278855   0.907   1.588  16.448  0.4223  1.2631  0.5110
19122TIP3   OH278856   1.705   6.335  16.002  0.1483 -0.2032  0.3714
19122TIP3    H178857   1.692   6.286  15.921  2.9418 -1.3883  0.5290
19122TIP3    H278858   1.750   6.415  15.974  0.8792 -0.4952  0.6713
19123TIP3   OH278859   3.467   1.811  16.168 -0.1403  0.0546  0.2642
19123TIP3    H178860   3.518   1.828  16.248  1.0184 -2.0384  0.0535
19123TIP3    H278861   3.387   1.769  16.199  0.4172 -0.9804  0.3442
19124TIP3   OH278862   4.714   0.104  12.267  0.5503 -0.7033 -0.5392
19124TIP3    H178863   4.681   0.193  12.252 -0.2557 -0.8569  0.2269
19124TIP3    H278864   4.654   0.048  12.218  0.6778 -0.8687 -0.5054
19125TIP3   OH278865   2.708   4.391   3.467  0.0960 -0.6822 -0.3500
19125TIP3    H178866   2.638   4.326   3.466 -0.3981 -0.1817  0.6990
19125TIP3    H278867   2.785   4.343   3.496 -0.1578 -0.8995 -0.0375
19126TIP3   OH278868   2.833   3.848   0.570 -0.1021  0.7783  0.4290
19126TIP3    H178869   2.743   3.823   0.590  0.5336 -0.4496  2.0343
19126TIP3    H278870   2.828   3.896   0.487 -2.0949 -0.1148 -0.0092
19127TIP3   OH278871   4.971   1.539  11.630  0.4305 -0.2928 -0.3269
19127TIP3    H178872   5.059   1.536  11.667 -0.8511 -0.1803  3.1690
19127TIP3    H278873   4.957   1.450  11.596  1.6879 -0.4942 -0.3700
19128TIP3   OH278874   4.472   5.641  14.313  0.4550 -0.1882  0.4963
19128TIP3    H178875   4.460   5.665  14.222 -1.1191  1.5744  1.1057
19128TIP3    H278876   4.424   5.558  14.323 -1.2606  0.7182  0.1728
19129TIP3   OH278877   6.253   5.746  12.372  0.0356 -0.0403 -0.4532
19129TIP3    H178878   6.215   5.659  12.357  0.8232 -0.7623  1.4856
19129TIP3    H278879   6.293   5.741  12.459 -0.9649  2.6381  0.2779
19130TIP3   OH278880   0.051   1.221   1.487 -0.4865 -0.4599 -0.2244
19130TIP3    H178881   0.065   1.150   1.424  1.0356  0.3874 -0.8959
19130TIP3    H278882   0.047   1.301   1.434 -0.0337  0.1832  0.6735
19131TIP3   OH278883   3.748   5.645  11.276  0.2037 -0.8151  0.5804
19131TIP3    H178884   3.781   5.568  11.323 -0.0941 -1.2534  0.0738
19131TIP3    H278885   3.721   5.706  11.345  1.8863 -0.5163  1.0183
19132TIP3   OH278886   2.289   1.697  14.432 -0.1562  0.3414 -0.0279
19132TIP3    H178887   2.335   1.719  14.513 -1.8090 -1.3971  1.4879
19132TIP3    H278888   2.200   1.729  14.445 -0.2620  0.7568 -1.5398
19133TIP3   OH278889   6.702   0.081   1.423 -0.5348  0.0119 -0.7806
19133TIP3    H178890   6.698   0.004   1.367  0.5394 -0.0080 -0.8424
19133TIP3    H278891   6.770   0.135   1.385 -1.2193  0.9652 -0.6808
19134TIP3   OH278892   3.042   4.713   0.205  0.3494  0.1467  0.0895
19134TIP3    H178893   3.016   4.662   0.282  1.6378 -2.4795 -1.1120
19134TIP3    H278894   2.960   4.748   0.171 -0.8234 -2.2239  0.2737
19135TIP3   OH278895   3.302   3.732   0.100  0.6858  0.2044 -0.2770
19135TIP3    H178896   3.260   3.775   0.174 -0.2409 -1.1768  0.0244
19135TIP3    H278897   3.389   3.708   0.132  0.0910 -0.8789  0.5538
19136TIP3   OH278898   6.098   0.189  13.235 -0.1215  0.1913 -0.0898
19136TIP3    H178899   6.136   0.112  13.193 -1.4684 -0.2911 -0.4578
19136TIP3    H278900   6.089   0.164  13.327  0.2353  0.2344 -0.0400
19137TIP3   OH278901   3.579   0.268  15.889 -0.3609  0.2920  0.1360
19137TIP3    H178902   3.569   0.285  15.795  0.6936 -0.4597 -0.1325
19137TIP3    H278903   3.490   0.270  15.923 -0.7195  1.0709 -0.7885
19138TIP3   OH278904   4.531   0.262  14.324 -0.5472  0.2081  0.6044
19138TIP3    H178905   4.624   0.242  14.331 -0.3480 -0.5485 -2.5338
19138TIP3    H278906   4.528   0.347  14.279 -1.3891  0.2507  0.7208
19139TIP3   OH278907   2.044   4.173  15.488  0.1748 -0.1283 -0.2314
19139TIP3    H178908   2.122   4.186  15.542  0.8848  0.4118 -1.3678
19139TIP3    H278909   2.060   4.226  15.410 -0.6292 -1.2726 -1.1882
19140TIP3   OH278910   2.820   2.296   3.479  0.6275 -0.4238 -0.9330
19140TIP3    H178911   2.726   2.282   3.488  0.5334  0.5264 -0.3075
19140TIP3    H278912   2.827   2.377   3.429  1.1126 -0.2361 -0.5631
19141TIP3   OH278913   5.414   2.704   3.362  1.1245  0.4688  0.2945
19141TIP3    H178914   5.395   2.695   3.269 -3.1797 -1.4119  1.1118
19141TIP3    H278915   5.479   2.636   3.380  0.8184 -0.2162 -1.0743
19142TIP3   OH278916   5.437   1.169   2.668  0.2540  0.1188 -0.2161
19142TIP3    H178917   5.401   1.139   2.585 -0.0406  1.2325 -0.5062
19142TIP3    H278918   5.387   1.122   2.734 -1.7572  1.6124 -0.6129
19143TIP3   OH278919   0.225   2.046  13.498  0.6231 -0.1344  0.0206
19143TIP3    H178920   0.132   2.040  13.520  0.4555 -0.1354 -0.6596
19143TIP3    H278921   0.260   2.109  13.560 -0.1057  0.8488 -0.5405
19144TIP3   OH278922   0.780   1.007  17.235  0.1152  0.1546  0.4957
19144TIP3    H178923   0.843   1.069  17.272  0.0137  0.6441 -0.1111
19144TIP3    H278924   0.814   0.988  17.147 -0.2992  0.0134  0.3607
19145TIP3   OH278925   6.173   6.450  14.240 -0.4915  0.1090 -0.2502
19145TIP3    H178926   6.220   6.367  14.250 -2.5277 -0.8500  2.5868
19145TIP3    H278927   6.111   6.433  14.169  0.1532 -0.2545 -0.7403
19146TIP3   OH278928   2.856   1.517  13.714  0.8798 -0.1864 -0.4996
19146TIP3    H178929   2.915   1.497  13.641  2.2141  1.0567  0.1761
19146TIP3    H278930   2.823   1.432  13.742 -0.4220 -0.6363 -3.1107
19147TIP3   OH278931   6.127   4.302   1.601 -0.1105  0.2840 -0.4634
19147TIP3    H178932   6.160   4.213   1.588 -1.5563 -0.1752 -1.2217
19147TIP3    H278933   6.198   4.348   1.646  1.7565 -0.4923 -2.4313
19148TIP3   OH278934   3.383   3.064  11.706 -0.3039  0.2526 -0.0028
19148TIP3    H178935   3.383   3.061  11.802  2.0127  0.6413  0.0672
19148TIP3    H278936   3.295   3.036  11.682 -0.8620 -0.1704  2.2249
19149TIP3   OH278937   0.749   4.198  11.519 -0.1919  0.6617  0.3945
19149TIP3    H178938   0.669   4.152  11.492  0.8251  0.0929 -1.9149
19149TIP3    H278939   0.770   4.160  11.604 -1.5653 -0.2501  0.3768
19150TIP3   OH278940   2.027   5.231  15.701 -0.2895  0.7525 -0.3809
19150TIP3    H178941   1.969   5.156  15.712  0.5764  0.0385 -0.5178
19150TIP3    H278942   2.030   5.245  15.606 -1.4437  1.7867 -0.2881
19151TIP3   OH278943   0.735   3.844  14.530  0.3128  0.0367  0.1185
19151TIP3    H178944   0.743   3.752  14.552  0.6143  0.0278 -0.0275
19151TIP3    H278945   0.820   3.882  14.554 -0.1307  0.4646  1.0745
19152TIP3   OH278946   5.942   4.720  14.507  0.0909  0.4083 -0.0911
19152TIP3    H178947   5.977   4.634  14.530 -0.8645  0.0202 -0.0346
19152TIP3    H278948   5.930   4.717  14.412  1.2817  0.9559 -0.2694
19153TIP3   OH278949   1.355   2.646   1.506 -0.1917 -0.4359  0.0497
19153TIP3    H178950   1.321   2.716   1.560 -0.7582 -1.0509  0.5000
19153TIP3    H278951   1.412   2.596   1.564  1.3042  0.4176 -0.6174
19154TIP3   OH278952   2.243   1.830  10.893 -0.0874 -0.0803  0.3916
19154TIP3    H178953   2.220   1.797  10.806  0.1808 -0.4586  0.4566
19154TIP3    H278954   2.334   1.859  10.883 -0.2587  0.4573  0.3883
19155TIP3   OH278955   3.567   2.186  16.608  0.4745  0.1700 -0.5420
19155TIP3    H178956   3.551   2.243  16.683 -1.0544 -1.4944  0.4558
19155TIP3    H278957   3.660   2.198  16.588  0.7877  1.0294  1.2762
19156TIP3   OH278958   5.574   1.434  14.402 -0.5315  0.1296 -0.5245
19156TIP3    H178959   5.572   1.351  14.450  0.9616 -1.9427 -3.7248
19156TIP3    H278960   5.484   1.447  14.374 -0.9920  0.2382  0.8937
19157TIP3   OH278961   5.346   1.238   4.137  0.1152 -0.0361  0.1979
19157TIP3    H178962   5.286   1.210   4.206  0.1488 -1.4790 -0.3224
19157TIP3    H278963   5.417   1.174   4.141 -1.2004 -1.8922 -2.9376
19158TIP3   OH278964   0.692   2.971  14.578  0.0052  0.1615  0.0753
19158TIP3    H178965   0.725   2.932  14.659  1.5398  1.0906 -0.0526
19158TIP3    H278966   0.751   2.938  14.510 -0.0651  0.8977 -0.3581
19159TIP3   OH278967   3.228   3.532   5.413  0.4974  1.0866  0.7517
19159TIP3    H178968   3.207   3.522   5.320  0.8494  3.2050  0.3942
19159TIP3    H278969   3.143   3.544   5.456  0.2312 -1.0372  0.9292
19160TIP3   OH278970   3.483   6.818  15.290  0.0543 -0.0264  0.6886
19160TIP3    H178971   3.420   6.875  15.247 -1.2189 -2.1786 -0.5280
19160TIP3    H278972   3.453   6.813  15.381 -2.0094 -1.4760  0.0113
19161TIP3   OH278973   0.782   3.582   0.155  0.0245 -0.2306  0.3677
19161TIP3    H178974   0.691   3.568   0.128  0.1943  0.2735 -0.5153
19161TIP3    H278975   0.825   3.499   0.137 -0.0751 -0.1958 -0.0365
19162TIP3   OH278976   0.073   0.553  14.137 -0.7306 -0.2024 -0.0412
19162TIP3    H178977   0.161   0.540  14.171 -1.2118 -1.3034  0.8840
19162TIP3    H278978   0.076   0.638  14.092  1.1937 -0.9318 -1.4262
19163TIP3   OH278979   2.236   6.790   4.002 -0.5414 -0.2661  0.4796
19163TIP3    H178980   2.327   6.766   4.017 -0.3574  0.0395 -0.1571
19163TIP3    H278981   2.194   6.708   3.976 -0.4238 -0.3771  0.6332
19164TIP3   OH278982   0.695   2.727  14.023  0.5789 -0.5579 -0.2113
19164TIP3    H178983   0.676   2.725  14.117 -1.8718 -1.1138 -0.6609
19164TIP3    H278984   0.644   2.800  13.990 -0.1427 -1.5554 -1.3881
19165TIP3   OH278985   3.488   6.050  16.826  0.7545 -0.2370  0.0011
19165TIP3    H178986   3.521   5.977  16.774  3.0828  0.8961 -0.2434
19165TIP3    H278987   3.534   6.127  16.793 -0.0364  1.0255  1.6546
19166TIP3   OH278988   4.149   2.359  13.912 -0.5289  0.1407 -0.9120
19166TIP3    H178989   4.210   2.359  13.837  0.5715  0.1448 -0.0449
19166TIP3    H278990   4.188   2.297  13.974 -2.0288 -0.7274 -0.8044
19167TIP3   OH278991   1.310   0.595   5.679  0.0084  0.1074  0.1050
19167TIP3    H178992   1.235   0.586   5.738  0.1920  0.9287  0.4780
19167TIP3    H278993   1.322   0.507   5.643 -1.4601  0.0806 -0.3780
19168TIP3   OH278994   5.707   4.604   3.109 -0.3395  0.3624  0.1235
19168TIP3    H178995   5.671   4.528   3.154  1.9053 -0.5114  0.5347
19168TIP3    H278996   5.707   4.673   3.175 -0.6451  0.2021  0.2943
19169TIP3   OH278997   6.305   5.987   2.681  0.0856  0.1838  0.0907
19169TIP3    H178998   6.324   5.942   2.763  3.8041  2.9463  1.0121
19169TIP3    H278999   6.372   5.957   2.620 -1.4763 -0.4113 -1.4038
19170TIP3   OH279000   5.012   0.999  15.889 -0.2717 -0.3740 -0.4251
19170TIP3    H179001   4.941   0.935  15.894 -2.2464  1.7213  0.5392
19170TIP3    H279002   5.028   1.010  15.796  0.4364 -2.5246 -0.6102
19171TIP3   OH279003   6.436   5.699   3.964  0.3223 -0.1585 -0.2854
19171TIP3    H179004   6.491   5.732   3.893 -0.1130  0.7665 -0.2081
19171TIP3    H279005   6.436   5.769   4.029 -0.2321 -0.5146  0.1090
19172TIP3   OH279006   4.572   5.935   4.179 -0.0756 -0.8229  0.3830
19172TIP3    H179007   4.520   6.016   4.187  0.6703 -0.0315 -1.8583
19172TIP3    H279008   4.640   5.943   4.245 -1.3069 -0.7134  1.6965
19173TIP3   OH279009   5.492   4.274   5.228 -0.0588  0.1539 -0.3843
19173TIP3    H179010   5.536   4.317   5.302  0.0291 -1.7608  0.7651
19173TIP3    H279011   5.502   4.334   5.155  1.9519  1.0672  0.5775
19174TIP3   OH279012   0.377   5.249  11.236  0.3565  0.4658  0.2627
19174TIP3    H179013   0.398   5.216  11.149  0.7016 -0.0472  0.5326
19174TIP3    H279014   0.358   5.342  11.223 -1.1426  0.0698 -0.5839
19175TIP3   OH279015   0.446   0.433   6.057 -0.0700  0.5585 -0.2596
19175TIP3    H179016   0.381   0.373   6.019  3.1516 -2.8288 -0.9514
19175TIP3    H279017   0.447   0.412   6.150 -1.6756  2.5187  0.2730
19176TIP3   OH279018   5.264   4.430   3.376  0.0445 -0.3003 -0.1349
19176TIP3    H179019   5.214   4.507   3.406  2.7039  1.1855  0.8171
19176TIP3    H279020   5.255   4.367   3.447 -0.2824  0.0379  0.1347
19177TIP3   OH279021   6.133   2.649   2.857 -0.3220  0.7856 -0.6528
19177TIP3    H179022   6.188   2.725   2.837 -1.2183  1.2566 -1.3996
19177TIP3    H279023   6.156   2.585   2.790 -0.2567  0.7572 -0.6033
19178TIP3   OH279024   0.065   5.566  11.180 -0.0806  0.4632  0.1495
19178TIP3    H179025   0.023   5.513  11.113  1.5385 -0.1329 -0.4440
19178TIP3    H279026   0.033   5.655  11.164  0.0040  0.2757 -1.2000
19179TIP3   OH279027   5.325   3.734   6.351  0.3192  0.2589  0.9094
19179TIP3    H179028   5.381   3.709   6.277 -0.8790  0.0496  0.0352
19179TIP3    H279029   5.257   3.666   6.353  0.4904  0.0952  2.4080
19180TIP3   OH279030   0.793   4.453  12.861 -0.0825 -0.0435  0.2749
19180TIP3    H179031   0.860   4.387  12.844  0.5473  0.8355 -0.7729
19180TIP3    H279032   0.797   4.468  12.955 -0.2910 -1.5284  0.5435
19181TIP3   OH279033   5.977   0.801  13.856 -0.1729 -0.6988  0.7053
19181TIP3    H179034   5.950   0.761  13.774 -0.1107  0.0931  0.2869
19181TIP3    H279035   5.970   0.731  13.921 -1.2688 -1.0514  0.2299
19182TIP3   OH279036   4.409   0.012  15.854  0.7643 -0.1000 -0.1994
19182TIP3    H179037   4.403   0.077  15.924  0.0588 -1.1038  0.7184
19182TIP3    H279038   4.350  -0.058  15.882  1.9200 -1.3956 -0.8586
19183TIP3   OH279039   3.134   6.094  13.201 -0.5107 -0.2196  0.3486
19183TIP3    H179040   3.210   6.149  13.179 -0.0419  0.0481  2.4388
19183TIP3    H279041   3.149   6.013  13.153  0.8808  0.0047  0.3578
19184TIP3   OH279042   6.550   2.372  13.655 -0.4908 -0.4292 -0.3741
19184TIP3    H179043   6.470   2.410  13.692  0.5492  2.5212 -0.8855
19184TIP3    H279044   6.616   2.385  13.723 -0.0607 -1.3197 -0.6094
19185TIP3   OH279045   1.144   0.913   2.309  0.2896  0.7112  0.1711
19185TIP3    H179046   1.115   0.936   2.397 -0.2416  2.1421 -0.3562
19185TIP3    H279047   1.063   0.892   2.262  0.5957 -0.3123  0.0812
19186TIP3   OH279048   5.757   2.213   2.073  0.2302  0.3973 -0.3051
19186TIP3    H179049   5.769   2.133   2.125  2.2977  0.6826 -0.2613
19186TIP3    H279050   5.703   2.269   2.128 -0.1595 -0.4735  0.2278
19187TIP3   OH279051   6.176   1.021  15.778 -0.3695  0.0414 -0.3445
19187TIP3    H179052   6.261   0.982  15.795 -0.9799 -0.7221  1.2425
19187TIP3    H279053   6.115   0.971  15.833 -1.9224  0.2540 -1.7756
19188TIP3   OH279054   5.868   5.237  17.229 -0.1832  0.0807 -0.2055
19188TIP3    H179055   5.796   5.174  17.235  0.2037 -0.2631  1.1881
19188TIP3    H279056   5.920   5.221  17.307 -0.4076  2.5505  0.5225
19189TIP3   OH279057   5.095   2.841  14.014 -0.2791  0.0122  0.2090
19189TIP3    H179058   5.091   2.781  14.088 -3.0023  0.0380  0.1569
19189TIP3    H279059   5.009   2.835  13.973  0.2970  1.9242 -1.4368
19190TIP3   OH279060   1.435   5.383   2.240  0.4276  0.0641 -0.4580
19190TIP3    H179061   1.417   5.457   2.299 -0.5032 -0.1659 -0.4341
19190TIP3    H279062   1.503   5.333   2.284  0.2611  0.2938  0.0675
19191TIP3   OH279063   4.376   0.643   3.510  0.3664  0.6058 -0.3570
19191TIP3    H179064   4.302   0.637   3.570 -0.5235  0.6137 -1.4148
19191TIP3    H279065   4.441   0.582   3.544  0.3595  1.4367  1.2295
19192TIP3   OH279066   6.533   4.503   2.505 -0.5138 -0.3074  0.1798
19192TIP3    H179067   6.492   4.587   2.525  3.6275  1.7687  1.0371
19192TIP3    H279068   6.514   4.448   2.581 -1.2223  0.7541  0.7875
19193TIP3   OH279069   3.778   5.996  14.517  0.5665 -0.4028 -0.3826
19193TIP3    H179070   3.804   5.906  14.497  1.5218  0.0351 -1.1936
19193TIP3    H279071   3.683   5.992  14.530  0.7489 -1.7013  0.6304
19194TIP3   OH279072   5.052   4.093   1.143  0.0533 -0.6168  0.6918
19194TIP3    H179073   5.079   4.065   1.230 -0.1158 -2.2916  0.2333
19194TIP3    H279074   4.960   4.067   1.136 -0.2482  0.4851  0.4000
19195TIP3   OH279075   4.418   4.467  14.078  0.7577  0.3562 -0.2120
19195TIP3    H179076   4.361   4.497  14.149 -0.6815 -0.9413 -0.7630
19195TIP3    H279077   4.359   4.431  14.013  2.2209 -1.5621 -0.5776
19196TIP3   OH279078   6.213   2.816  13.966  0.0099  0.2478 -0.0334
19196TIP3    H179079   6.260   2.805  13.883  1.5884  1.1279  0.7037
19196TIP3    H279080   6.252   2.894  14.005  0.5172 -1.0956  2.3038
19197TIP3   OH279081   5.151   4.679  17.071 -0.2438 -0.5790 -0.0656
19197TIP3    H179082   5.062   4.647  17.057 -1.0538  1.2496  0.6261
19197TIP3    H279083   5.173   4.725  16.990 -0.2299 -0.3420  0.0736
19198TIP3   OH279084   0.499   1.333  12.080 -0.2631  0.3213 -0.4362
19198TIP3    H179085   0.532   1.290  12.158 -1.2587  0.9698  0.3701
19198TIP3    H279086   0.546   1.416  12.076 -1.0695  0.8303  0.1882
19199TIP3   OH279087   1.814   2.582   0.504  0.0242  0.0470 -0.2234
19199TIP3    H179088   1.779   2.635   0.431 -0.4462  0.9171  0.6123
19199TIP3    H279089   1.900   2.620   0.522 -0.2854  0.4941  0.3336
19200TIP3   OH279090   1.244   2.156  16.569  0.4507  0.0314 -0.4892
19200TIP3    H179091   1.327   2.122  16.534  2.7154  2.5478  1.9737
19200TIP3    H279092   1.256   2.156  16.664 -3.2115 -1.2363  0.1513
19201TIP3   OH279093   6.108   4.830  17.142 -0.4534 -0.4020  0.2618
19201TIP3    H179094   6.130   4.747  17.184  0.8937 -1.0040 -1.5192
19201TIP3    H279095   6.170   4.893  17.180  2.1506 -1.3475 -2.0603
19202TIP3   OH279096   3.701   2.869   4.356  0.2485  0.1267 -0.9647
19202TIP3    H179097   3.656   2.952   4.366 -0.0701 -0.2781  1.4881
19202TIP3    H279098   3.778   2.875   4.414  0.9192 -0.8306 -1.7064
19203TIP3   OH279099   6.426   6.066   1.767  0.6548  0.2928  0.2693
19203TIP3    H179100   6.402   6.152   1.731 -3.2768 -0.8873 -0.3868
19203TIP3    H279101   6.417   6.006   1.693 -0.0058 -1.1226  1.4425
19204TIP3   OH279102   2.910   2.420   1.031  0.4300 -0.4754 -0.2480
19204TIP3    H179103   2.852   2.381   1.096 -0.5169 -1.4849 -1.6247
19204TIP3    H279104   2.998   2.391   1.057  0.0840 -0.7631  0.6270
19205TIP3   OH279105   6.470   2.324   1.495  0.4521 -0.1394 -1.0159
19205TIP3    H179106   6.421   2.282   1.425 -0.4044  0.9918 -1.1099
19205TIP3    H279107   6.509   2.401   1.454 -0.7404  0.9955 -0.0773
19206TIP3   OH279108   0.656   1.885  12.170  0.6202  0.0103  0.1583
19206TIP3    H179109   0.722   1.944  12.206 -1.4203  1.5367  1.7157
19206TIP3    H279110   0.671   1.886  12.076  1.3387  2.2482  0.2331
19207TIP3   OH279111   1.986   0.032  14.886  0.3077  0.7633  0.2395
19207TIP3    H179112   1.960   0.073  14.803  1.4535  1.3327  0.1419
19207TIP3    H279113   2.082   0.036  14.885  0.3268  1.6813  2.0365
19208TIP3   OH279114   4.983   1.087   5.130  0.0521  0.1215 -0.0950
19208TIP3    H179115   4.905   1.082   5.075 -0.5889  1.7361  0.6045
19208TIP3    H279116   5.013   1.177   5.122  0.5099  0.1407  1.4114
19209TIP3   OH279117   5.812   5.495  16.311  0.2274  0.7906  0.1763
19209TIP3    H179118   5.732   5.496  16.258  0.2750  3.3469 -0.0114
19209TIP3    H279119   5.780   5.507  16.401  0.2475 -1.8291  0.5880
19210TIP3   OH279120   2.336   6.611   5.107 -0.7355 -0.0371 -0.6906
19210TIP3    H179121   2.429   6.592   5.096 -0.4200  1.6668 -1.2304
19210TIP3    H279122   2.306   6.633   5.019 -1.3309  0.7503 -0.3021
19211TIP3   OH279123   2.460   1.143   2.755 -0.8418 -0.3815 -0.4095
19211TIP3    H179124   2.553   1.121   2.760 -0.0251  2.7222  0.1204
19211TIP3    H279125   2.415   1.064   2.784  1.6991 -1.4798  0.8237
19212TIP3   OH279126   4.416   1.041   0.785  0.2831  0.1230 -0.0468
19212TIP3    H179127   4.489   1.092   0.820  1.0444  0.1899 -1.6423
19212TIP3    H279128   4.434   0.952   0.814  0.4176  0.3129  0.4661
19213TIP3   OH279129   0.491   3.383  11.665 -0.2914 -0.5069 -0.2970
19213TIP3    H179130   0.542   3.328  11.724  0.5962 -0.0661 -0.6315
19213TIP3    H279131   0.419   3.415  11.718  0.1054 -0.6810  0.3567
19214TIP3   OH279132   3.669   5.799  12.199  0.1619  0.2407  0.0925
19214TIP3    H179133   3.704   5.879  12.160  1.4735  0.5499  1.7876
19214TIP3    H279134   3.612   5.830  12.269 -0.3580 -0.3115 -0.0801
19215TIP3   OH279135   5.040   4.440   2.033 -0.8320  0.2819 -0.4611
19215TIP3    H179136   5.045   4.363   2.090 -3.4644 -2.2173 -3.2469
19215TIP3    H279137   5.072   4.512   2.087  0.1417 -2.4162  2.9255
19216TIP3   OH279138   3.836   2.493   5.263  0.6799 -0.0084  0.1129
19216TIP3    H179139   3.828   2.402   5.235  1.2184  0.0831 -0.3586
19216TIP3    H279140   3.757   2.510   5.314 -0.3624 -0.1788 -1.3750
19217TIP3   OH279141   5.083   0.834  15.175  0.4027  0.2462 -0.5305
19217TIP3    H179142   5.174   0.842  15.147  0.7166 -0.1833  0.3201
19217TIP3    H279143   5.071   0.904  15.240  0.6919 -0.8030  0.7126
19218TIP3   OH279144   2.536   3.695  11.850  0.4474  0.2790 -0.2323
19218TIP3    H179145   2.631   3.685  11.854  0.4430  0.4926  1.0300
19218TIP3    H279146   2.522   3.790  11.846  0.3052  0.2107 -2.6388
19219TIP3   OH279147   3.551   5.927  16.349 -0.3192 -0.6882 -0.0708
19219TIP3    H179148   3.582   5.985  16.418  1.7830  0.7068 -2.0504
19219TIP3    H279149   3.481   5.976  16.305 -0.0230 -0.5632 -0.4055
19220TIP3   OH279150   5.748   5.980  12.887  0.3677  0.3400 -0.0187
19220TIP3    H179151   5.686   6.051  12.905  0.6275  0.1300  1.9191
19220TIP3    H279152   5.740   5.965  12.793 -1.7712  1.0053 -0.0103
19221TIP3   OH279153   6.356   0.808  15.344 -0.4273  0.3236 -0.6115
19221TIP3    H179154   6.406   0.756  15.407 -1.1825  0.4753  0.1259
19221TIP3    H279155   6.387   0.778  15.259 -0.3456 -0.8296 -0.1961
19222TIP3   OH279156   4.930   6.819   5.633 -0.1938  0.0733 -0.0562
19222TIP3    H179157   4.956   6.810   5.542  2.0076 -1.5951  0.6616
19222TIP3    H279158   4.963   6.904   5.660  2.3356 -0.8880  0.0866
19223TIP3   OH279159   2.348   1.044  11.489  0.1050  0.0973  0.2232
19223TIP3    H179160   2.426   1.061  11.435 -0.5206 -4.0596 -2.4407
19223TIP3    H279161   2.378   0.985  11.557 -0.3951 -0.1071  0.2689
19224TIP3   OH279162   3.375   3.489   6.045 -0.2361  0.1955 -0.4984
19224TIP3    H179163   3.428   3.556   6.002 -0.7888  1.5123  0.7867
19224TIP3    H279164   3.438   3.436   6.093  0.1008  0.5010 -0.6034
19225TIP3   OH279165   3.653   0.203  15.038 -0.2494 -0.4204  0.1716
19225TIP3    H179166   3.735   0.243  15.067 -0.7909  0.5509  0.4208
19225TIP3    H279167   3.590   0.226  15.106 -0.8192 -0.8403 -0.2010
19226TIP3   OH279168   0.743   2.659  12.743  0.1020 -0.0795  0.2477
19226TIP3    H179169   0.650   2.681  12.748  0.0340 -0.3969  0.3815
19226TIP3    H279170   0.787   2.744  12.733 -0.2145  0.0523 -0.0452
19227TIP3   OH279171   6.095   4.604   0.067  0.4745 -0.2725 -0.8397
19227TIP3    H179172   6.004   4.621   0.093  0.5673 -0.4346 -0.3904
19227TIP3    H279173   6.107   4.510   0.083  0.3489 -0.5203 -2.0808
19228TIP3   OH279174   2.322   5.059   3.622 -0.6475  0.4537  0.3938
19228TIP3    H179175   2.231   5.061   3.653 -0.4216 -1.5230  1.3660
19228TIP3    H279176   2.368   5.007   3.688  0.9745  0.5209 -0.6388
19229TIP3   OH279177   5.497   1.000  11.726 -0.1440 -0.1839  0.4420
19229TIP3    H179178   5.564   0.932  11.727 -0.9343 -1.0400 -0.9044
19229TIP3    H279179   5.544   1.082  11.741  1.2739 -0.7045 -0.9504
19230TIP3   OH279180   4.629   1.126  11.431 -0.2705  1.4461 -0.4136
19230TIP3    H179181   4.601   1.145  11.341  0.2191 -1.1072 -1.1950
19230TIP3    H279182   4.580   1.047  11.454 -0.4122  2.0790  1.6198
19231TIP3   OH279183   0.092   5.317  12.849 -0.9516  0.2498 -0.1080
19231TIP3    H179184   0.124   5.266  12.924 -0.0723  1.5643  0.4501
19231TIP3    H279185   0.165   5.376  12.828 -1.9019  1.2128 -0.7779
19232TIP3   OH279186   5.835   3.791   5.219 -0.4778 -0.4332 -0.2089
19232TIP3    H179187   5.811   3.865   5.163 -1.4656 -0.7299 -0.1947
19232TIP3    H279188   5.771   3.794   5.291 -0.1607 -0.9585  0.1005
19233TIP3   OH279189   2.661   0.358   2.087 -0.0406  0.9660  0.0395
19233TIP3    H179190   2.688   0.386   2.000  0.4511  0.7718  0.1216
19233TIP3    H279191   2.593   0.420   2.113 -0.9561  0.3856 -0.9162
19234TIP3   OH279192   0.832   5.148   1.715  0.1514  0.3248 -0.4266
19234TIP3    H179193   0.772   5.215   1.681 -0.3872  0.8544  1.3959
19234TIP3    H279194   0.898   5.198   1.763 -0.0954 -0.4087  0.7270
19235TIP3   OH279195   5.162   6.248   2.558  0.1990  0.0873 -0.0403
19235TIP3    H179196   5.236   6.218   2.610 -0.1846  0.2783  0.6279
19235TIP3    H279197   5.180   6.216   2.470  2.9176  3.1699 -0.7837
19236TIP3   OH279198   2.097   2.406   2.264  0.3633  0.2577  0.9008
19236TIP3    H179199   2.188   2.384   2.245  0.3909  0.7627  0.4339
19236TIP3    H279200   2.071   2.343   2.331  0.6610 -0.7184  0.1231
19237TIP3   OH279201   2.198   2.043   0.045 -0.3950 -0.1997  0.0960
19237TIP3    H179202   2.203   2.031  -0.050  0.6342 -2.4531  0.3592
19237TIP3    H279203   2.277   2.001   0.079  0.5372  2.6526  1.8514
19238TIP3   OH279204   2.619   4.446  15.981  0.1659 -0.2950 -0.5574
19238TIP3    H179205   2.587   4.431  16.070  0.3629 -0.1276 -0.4585
19238TIP3    H279206   2.684   4.377  15.967  0.3983 -0.1035 -0.4385
19239TIP3   OH279207   5.388   2.540  11.530 -0.3619  0.0900 -0.0901
19239TIP3    H179208   5.378   2.504  11.618 -1.3755  0.4716 -0.0410
19239TIP3    H279209   5.336   2.620  11.530 -1.1625 -0.4003 -1.3225
19240TIP3   OH279210   1.840   5.393   4.324  0.1582  0.2380 -0.2030
19240TIP3    H179211   1.870   5.371   4.236  2.1072  1.2143  0.1617
19240TIP3    H279212   1.834   5.309   4.369  1.3825 -0.1022 -0.6276
19241TIP3   OH279213   0.946   2.099  14.674  0.2581 -0.3047 -0.5669
19241TIP3    H179214   0.895   2.180  14.670 -1.0607 -1.0303  0.6631
19241TIP3    H279215   1.036   2.128  14.689 -0.2471  0.9292  0.1738
19242TIP3   OH279216   2.797   1.776   6.673 -0.7757  0.4121 -0.0219
19242TIP3    H179217   2.883   1.772   6.630 -0.7797 -0.7665  0.0251
19242TIP3    H279218   2.763   1.862   6.651 -0.9043 -0.2277 -2.7163
19243TIP3   OH279219   5.989   5.663   4.537 -0.0176  0.0338  0.1216
19243TIP3    H179220   5.946   5.580   4.556 -2.3430  0.7284 -1.6242
19243TIP3    H279221   5.922   5.715   4.491  1.0852  3.1372  1.6984
19244TIP3   OH279222   2.485   1.365  11.599  0.1715 -0.2000  0.5331
19244TIP3    H179223   2.451   1.395  11.515 -0.3442  1.8752  1.4170
19244TIP3    H279224   2.580   1.364  11.587  0.1673  1.1555  0.2242
19245TIP3   OH279225   4.297   4.797   4.642  0.0065  0.0016 -0.2167
19245TIP3    H179226   4.303   4.705   4.617 -0.9091  0.2584 -1.4604
19245TIP3    H279227   4.230   4.799   4.710 -1.9254  0.0524 -2.0312
19246TIP3   OH279228   2.687   3.483  14.825 -0.0660 -0.2561 -0.4763
19246TIP3    H179229   2.670   3.487  14.919 -2.4970  1.6546 -0.9111
19246TIP3    H279230   2.614   3.434  14.789  1.2174 -1.6107 -1.3708
19247TIP3   OH279231   6.336   4.545  12.027 -0.3081  0.4552  0.1122
19247TIP3    H179232   6.311   4.592  12.106  1.1272  0.1976  0.7387
19247TIP3    H279233   6.327   4.610  11.957 -0.8281  0.9054  0.5910
19248TIP3   OH279234   4.123   6.257  12.474  0.1921 -0.2566  0.1748
19248TIP3    H179235   4.074   6.271  12.393 -1.6508 -1.9120  0.9275
19248TIP3    H279236   4.123   6.343  12.517  1.2685  0.6655 -1.5639
19249TIP3   OH279237   3.287   5.079  16.139 -0.5332 -0.3000  0.2365
19249TIP3    H179238   3.303   5.070  16.233 -3.3046 -1.4586  0.6947
19249TIP3    H279239   3.194   5.101  16.133 -0.4390 -0.3470 -2.2483
19250TIP3   OH279240   2.567   3.050  15.682 -1.0266 -0.0388 -0.0749
19250TIP3    H179241   2.493   3.090  15.636 -2.4589 -1.0468  1.2362
19250TIP3    H279242   2.531   2.970  15.720  0.2960  0.2699  1.9928
19251TIP3   OH279243   0.100   6.564  15.170 -0.9092 -0.1098  0.5598
19251TIP3    H179244   0.011   6.592  15.148 -0.9770 -0.8135 -0.1011
19251TIP3    H279245   0.088   6.505  15.245 -0.8741  0.7069  1.2245
19252TIP3   OH279246   5.512   3.514   3.485 -0.2375 -0.2278 -0.3363
19252TIP3    H179247   5.533   3.583   3.422  1.4641 -0.2472  0.1753
19252TIP3    H279248   5.571   3.529   3.559  1.0085 -2.8920 -0.6714
19253TIP3   OH279249   0.485   0.525  16.751 -1.4727  0.1248  0.8804
19253TIP3    H179250   0.560   0.529  16.692  0.3801  0.8467  3.0927
19253TIP3    H279251   0.523   0.500  16.836 -3.7398  0.5109  2.0985
19254TIP3   OH279252   1.128   6.343  15.352 -0.2807  0.2574 -0.2766
19254TIP3    H179253   1.126   6.433  15.385 -0.4895  0.4328 -0.7529
19254TIP3    H279254   1.167   6.352  15.265  2.1963 -0.4354  0.6714
19255TIP3   OH279255   4.170   2.559  16.791  0.0470  0.4621 -0.5953
19255TIP3    H179256   4.161   2.653  16.772  1.0253  0.6725 -0.0675
19255TIP3    H279257   4.252   2.535  16.749  1.2303  0.4817  1.5868
19256TIP3   OH279258   5.126   3.453  14.593 -0.2222 -0.2492 -0.4304
19256TIP3    H179259   5.031   3.444  14.598 -0.1829 -0.2662  0.5652
19256TIP3    H279260   5.155   3.373  14.549 -0.6191 -0.5937 -0.0831
19257TIP3   OH279261   0.958   4.709  16.280  0.1591 -0.8029 -0.2048
19257TIP3    H179262   0.973   4.711  16.375 -0.3002 -3.1647 -0.0173
19257TIP3    H279263   0.873   4.667  16.270 -0.7156  1.1681 -1.6656
19258TIP3   OH279264   0.962   6.421  11.860 -0.2000 -0.2225 -0.0182
19258TIP3    H179265   1.053   6.404  11.885 -0.2275 -2.8917 -1.2819
19258TIP3    H279266   0.919   6.450  11.940  1.4831 -0.1489  0.8991
19259TIP3   OH279267   5.258   6.712   4.858 -0.3111  0.2110 -0.2714
19259TIP3    H179268   5.167   6.739   4.865 -0.3080  0.3860 -0.8775
19259TIP3    H279269   5.272   6.655   4.933 -0.8945  0.2572 -0.1272
19260TIP3   OH279270   5.879   0.039   1.691 -0.2411 -0.1641 -0.3509
19260TIP3    H179271   5.972   0.058   1.691 -0.4525  0.9624 -0.4169
19260TIP3    H279272   5.853   0.044   1.783  0.6249 -5.3981  0.4798
19261TIP3   OH279273   5.833   6.479   4.455  0.4824  0.5917 -0.3540
19261TIP3    H179274   5.886   6.400   4.443  0.7218  0.6038  0.5491
19261TIP3    H279275   5.773   6.457   4.526 -0.3559  0.7731 -0.9901
19262TIP3   OH279276   1.856   3.283   1.939 -0.7065 -0.4525 -0.1833
19262TIP3    H179277   1.948   3.282   1.966 -0.6140 -2.2373 -0.4942
19262TIP3    H279278   1.857   3.326   1.853 -0.2694  0.1647  0.1220
19263TIP3   OH279279   6.035   3.059  14.213 -0.5310  0.2491 -0.1202
19263TIP3    H179280   6.014   3.152  14.215  1.8939  0.8710  0.4412
19263TIP3    H279281   6.039   3.037  14.120  0.8547  1.2531 -0.3279
19264TIP3   OH279282   1.380   1.837   6.194 -0.7597 -0.0055 -0.8440
19264TIP3    H179283   1.468   1.872   6.184 -0.2571 -1.1112 -0.4219
19264TIP3    H279284   1.385   1.748   6.159 -1.0845 -0.9284  1.2797
19265TIP3   OH279285   1.264   6.440   3.629  0.2592 -0.1819  0.1396
19265TIP3    H179286   1.276   6.529   3.597 -0.5626 -0.0660  0.1401
19265TIP3    H279287   1.352   6.401   3.623  0.5444  0.4908 -0.2490
19266TIP3   OH279288   0.382   3.614  15.325  0.9047 -0.5713 -0.3032
19266TIP3    H179289   0.437   3.563  15.385  0.2453 -1.2059 -0.2381
19266TIP3    H279290   0.326   3.550  15.283  0.1391  0.0862 -0.3049
19267TIP3   OH279291   3.999   4.690  13.193 -0.0786  0.2822 -0.2579
19267TIP3    H179292   4.006   4.765  13.133 -0.6697 -0.7260 -1.6463
19267TIP3    H279293   4.085   4.649  13.190 -0.1051  0.2374 -0.4139
19268TIP3   OH279294   2.704   4.305  13.871  0.0919  0.7513 -0.0501
19268TIP3    H179295   2.736   4.348  13.791 -0.5490  1.9713  0.3260
19268TIP3    H279296   2.780   4.258  13.905  0.4188  0.3316 -1.2843
19269TIP3   OH279297   0.563   0.514   3.210 -0.1226  0.2848  0.2443
19269TIP3    H179298   0.596   0.479   3.127 -0.2874  0.1355  0.2410
19269TIP3    H279299   0.544   0.606   3.191  3.4090  1.3477  1.0980
19270TIP3   OH279300   1.817   3.060  14.543  0.4487 -0.7293 -0.7354
19270TIP3    H179301   1.740   3.116  14.550  0.3256 -0.9008 -0.6870
19270TIP3    H279302   1.848   3.051  14.634  0.0987 -1.2441 -0.6607
19271TIP3   OH279303   0.361   6.388   5.805 -0.0862 -0.2386  0.3724
19271TIP3    H179304   0.355   6.429   5.891 -1.8485  0.5584 -0.0789
19271TIP3    H279305   0.324   6.301   5.818  0.5445 -0.4838  0.6003
19272TIP3   OH279306   1.702   4.813  11.866 -0.0200 -0.2597 -0.6857
19272TIP3    H179307   1.782   4.862  11.847  0.2455  0.9667  2.8851
19272TIP3    H279308   1.728   4.749  11.933 -1.6790 -1.1202 -0.8063
19273TIP3   OH279309   6.476   0.002  14.883  0.0006 -0.5662 -0.6707
19273TIP3    H179310   6.541   0.047  14.936  0.3519 -1.9258  0.1188
19273TIP3    H279311   6.394   0.049  14.901  0.3352 -0.2778  0.1828
19274TIP3   OH279312   4.495   4.752   3.019  0.1397 -0.6151 -0.0225
19274TIP3    H179313   4.491   4.773   2.925 -2.0056  1.3185  0.4122
19274TIP3    H279314   4.452   4.667   3.026 -3.0029  0.8117 -0.4903
19275TIP3   OH279315   4.031   4.338   2.750 -0.1142 -0.2320  0.2566
19275TIP3    H179316   3.955   4.394   2.767 -0.3590 -0.5528  0.2290
19275TIP3    H279317   4.023   4.266   2.812  1.3108  0.7962  1.7092
19276TIP3   OH279318   4.051   4.408   0.150  0.4311 -0.1382 -0.1521
19276TIP3    H179319   4.096   4.337   0.104  0.4324  0.0570 -0.4557
19276TIP3    H279320   4.101   4.487   0.128  0.7701 -0.1239  0.6455
19277TIP3   OH279321   5.212   1.272  14.929 -0.1080 -0.6472 -0.0942
19277TIP3    H179322   5.225   1.342  14.865 -0.1648 -0.7957 -0.2688
19277TIP3    H279323   5.118   1.251  14.922  0.1122 -1.4466 -0.7796
19278TIP3   OH279324   6.715   3.903   3.642  0.2819  0.2702  0.3606
19278TIP3    H179325   6.752   3.826   3.685 -0.4770  0.0321  0.5902
19278TIP3    H279326   6.785   3.933   3.584 -0.2021 -1.9916 -1.5654
19279TIP3   OH279327   5.466   3.875  16.860 -0.0517  0.3201 -0.0372
19279TIP3    H179328   5.458   3.888  16.954 -0.7697 -0.8484  0.0817
19279TIP3    H279329   5.377   3.854  16.831  0.7025 -2.9898 -0.3525
19280TIP3   OH279330   5.402   1.802   4.955 -0.1670  0.3204  0.2338
19280TIP3    H179331   5.399   1.894   4.982  0.1358  0.2921  0.3729
19280TIP3    H279332   5.466   1.762   5.014  1.1487  0.4423 -1.0496
19281TIP3   OH279333   6.465   5.696   5.062 -0.2178  0.2834 -0.3210
19281TIP3    H179334   6.432   5.783   5.085  2.0522  1.7411 -2.1377
19281TIP3    H279335   6.541   5.683   5.119  0.4707  0.2777 -1.2113
19282TIP3   OH279336   1.987   4.473  13.985  0.0338 -0.1215  0.2034
19282TIP3    H179337   1.913   4.533  13.987  0.3138  0.2344  0.0239
19282TIP3    H279338   2.053   4.518  13.932  0.8978  0.2020  1.4967
19283TIP3   OH279339   0.079   5.648  12.877 -0.6361  0.0409 -0.4696
19283TIP3    H179340   0.028   5.684  12.805  0.4337 -0.2932 -1.4121
19283TIP3    H279341   0.165   5.630  12.840 -0.7494 -2.3928  0.2280
19284TIP3   OH279342   0.230   2.558  15.835 -0.5463 -0.0878  0.6709
19284TIP3    H179343   0.254   2.612  15.910  0.3218  1.3432 -0.5843
19284TIP3    H279344   0.263   2.470  15.856  0.3112  0.4582  1.6496
19285TIP3   OH279345   0.647   4.627  13.750  0.0192  0.0780 -0.5416
19285TIP3    H179346   0.625   4.653  13.839  0.2789 -2.5728  0.4097
19285TIP3    H279347   0.676   4.707  13.707  0.7302  1.2889  2.0193
19286TIP3   OH279348   0.301   0.379   3.807 -0.2971 -0.8955  0.0256
19286TIP3    H179349   0.217   0.332   3.808 -0.0837 -1.2747  0.4903
19286TIP3    H279350   0.318   0.399   3.899  0.2245 -1.0090 -0.0418
19287TIP3   OH279351   5.334   1.449   3.511 -0.6165 -0.1900 -0.3587
19287TIP3    H179352   5.418   1.495   3.507 -0.4015 -0.4980  0.3513
19287TIP3    H279353   5.295   1.478   3.594  0.2637 -2.4704  0.9496
19288TIP3   OH279354   6.153   6.170   0.010 -0.2676 -0.1375  0.5275
19288TIP3    H179355   6.168   6.254   0.054  1.6761  0.4377 -1.1091
19288TIP3    H279356   6.185   6.104   0.071 -4.6270 -0.1797  3.2670
19289TIP3   OH279357   4.181   5.523  10.999 -0.2728  0.1371  0.2645
19289TIP3    H179358   4.134   5.534  10.916  0.6272  2.9030  0.0296
19289TIP3    H279359   4.128   5.569  11.064  0.1056 -0.1468  0.7882
19290TIP3   OH279360   2.656   1.963   2.432 -0.2648  0.0053  0.6306
19290TIP3    H179361   2.674   2.057   2.429  1.5143 -0.3157  0.3284
19290TIP3    H279362   2.727   1.923   2.382 -0.8039 -1.5295  1.0385
19291TIP3   OH279363   6.697   5.422  12.378 -0.5187 -0.1854  0.6066
19291TIP3    H179364   6.624   5.444  12.436  1.3074  1.4424  2.4461
19291TIP3    H279365   6.735   5.343  12.417 -0.3070 -0.0869  0.5954
19292TIP3   OH279366   5.910   4.080  10.911 -0.4948  0.3695 -0.0639
19292TIP3    H179367   5.976   4.129  10.960  0.6283 -0.1301 -1.0455
19292TIP3    H279368   5.940   4.081  10.821 -0.8683 -1.4256 -0.2490
19293TIP3   OH279369   4.434   6.405   1.789 -0.1062 -0.4876 -0.0816
19293TIP3    H179370   4.416   6.476   1.727  0.9350 -1.8269 -2.0111
19293TIP3    H279371   4.513   6.434   1.836  0.9560 -0.7784 -1.6136
19294TIP3   OH279372   1.927   1.033  11.285  0.2053 -0.1430 -0.4551
19294TIP3    H179373   1.942   1.125  11.306 -0.0972 -0.3215  0.6252
19294TIP3    H279374   2.003   0.987  11.321  0.6153 -0.2687 -1.4569
19295TIP3   OH279375   5.387   3.946  10.390 -0.4955 -0.3544  0.5463
19295TIP3    H179376   5.442   4.012  10.348 -2.4674  1.5228  0.7563
19295TIP3    H279377   5.443   3.868  10.393  2.4226  1.5858  1.4377
19296TIP3   OH279378   0.402   0.878  11.736 -0.1028 -0.9131  0.1724
19296TIP3    H179379   0.344   0.854  11.808 -0.1332 -1.8756 -0.1660
19296TIP3    H279380   0.383   0.971  11.721 -0.1862 -0.7269  1.3106
19297TIP3   OH279381   5.188   3.687   2.302 -0.4952 -0.8238 -0.0876
19297TIP3    H179382   5.207   3.771   2.259 -1.7192 -0.8498 -0.7366
19297TIP3    H279383   5.270   3.662   2.343 -0.5140  1.5320  1.5921
19298TIP3   OH279384   6.814   4.597  13.943 -0.1638  0.0584  0.3934
19298TIP3    H179385   6.731   4.583  13.897 -1.1002  2.3826  1.1818
19298TIP3    H279386   6.857   4.668  13.894 -0.4155  1.4304  2.0502
19299TIP3   OH279387   5.976   2.667   4.084  0.7256  0.2301 -0.1496
19299TIP3    H179388   5.905   2.611   4.053  0.5100  0.1901  0.4148
19299TIP3    H279389   5.959   2.678   4.177  1.3485  0.3882 -0.0518
19300TIP3   OH279390   0.238   5.277   4.525 -0.1073  0.1336 -0.0069
19300TIP3    H179391   0.218   5.187   4.499  0.3571 -0.3484  1.2396
19300TIP3    H279392   0.159   5.306   4.572  0.3382 -0.1860  0.9609
19301TIP3   OH279393   0.959   4.298   6.020 -0.1207 -0.3911  0.0311
19301TIP3    H179394   0.910   4.224   5.984 -0.5109  0.4323 -1.1924
19301TIP3    H279395   1.049   4.265   6.029 -1.0813 -2.6263  4.3080
19302TIP3   OH279396   5.184   4.195  11.683  0.1490  0.3122  0.1878
19302TIP3    H179397   5.200   4.136  11.757  1.3370  0.0218 -0.2892
19302TIP3    H279398   5.099   4.234  11.703  0.2940  0.0002  1.5520
19303TIP3   OH279399   4.125   6.212  15.040 -0.5302 -0.1163  0.5412
19303TIP3    H179400   4.132   6.292  15.092 -0.6953 -0.3977  1.0026
19303TIP3    H279401   4.059   6.232  14.974  1.2118  0.9955 -0.9576
19304TIP3   OH279402   5.350   3.614   3.724  0.4875 -0.3990 -0.2718
19304TIP3    H179403   5.323   3.660   3.646  0.0796  0.1680  0.1995
19304TIP3    H279404   5.346   3.521   3.700 -0.5980 -0.2723 -0.6089
19305TIP3   OH279405   1.426   0.053  16.692 -0.5681 -0.7865 -0.3076
19305TIP3    H179406   1.480  -0.022  16.668 -1.5447 -0.7644 -2.7528
19305TIP3    H279407   1.483   0.106  16.748  0.9427 -2.1376 -0.4990
19306TIP3   OH279408   2.452   2.021  11.813  0.3527 -0.7589  0.2715
19306TIP3    H179409   2.448   2.026  11.717  0.1301  1.2608  0.3406
19306TIP3    H279410   2.377   2.073  11.842  1.4051  0.0997  1.5335
19307TIP3   OH279411   3.032   0.776  11.929  0.7434  0.0034  0.3705
19307TIP3    H179412   3.043   0.803  12.020  0.4444 -0.0583  0.4276
19307TIP3    H279413   3.024   0.680  11.934  1.7222 -0.0953  0.1808
19308TIP3   OH279414   3.642   2.325  16.351  0.0498 -0.0190 -0.5626
19308TIP3    H179415   3.708   2.304  16.418 -1.0152 -0.2230  0.4551
19308TIP3    H279416   3.642   2.249  16.293 -0.6682 -0.9160  0.5737
19309TIP3   OH279417   4.036   3.152  14.767 -0.2589  0.7289 -0.2449
19309TIP3    H179418   4.013   3.062  14.746  1.5985  0.9701 -4.1992
19309TIP3    H279419   3.954   3.191  14.796 -1.3186 -1.9310  0.6411
19310TIP3   OH279420   3.946   4.418  12.777  0.4163 -0.4290  0.0582
19310TIP3    H179421   3.994   4.355  12.832  0.3679  0.5474  1.2524
19310TIP3    H279422   4.014   4.474  12.739  0.2895  0.9807  1.7838
19311TIP3   OH279423   5.124   1.410  12.942 -0.2433  0.3851 -0.8294
19311TIP3    H179424   5.207   1.386  12.899  1.6716  2.9720  1.1246
19311TIP3    H279425   5.129   1.369  13.028 -0.5482  1.3597 -0.3424
19312TIP3   OH279426   1.520   3.316  13.686  0.5050 -0.2487  0.2371
19312TIP3    H179427   1.516   3.393  13.742  0.3018 -0.1950  0.1489
19312TIP3    H279428   1.516   3.351  13.597  2.3674 -0.2082  0.1321
19313TIP3   OH279429   4.755   1.307   6.560 -0.3404  0.9751 -0.0800
19313TIP3    H179430   4.693   1.242   6.594 -1.9408  1.5697 -1.6872
19313TIP3    H279431   4.819   1.318   6.630 -0.2378 -2.0048  0.4104
19314TIP3   OH279432   5.996   0.516   2.258 -0.1046  0.0567  0.0397
19314TIP3    H179433   5.936   0.557   2.197 -0.7783 -1.5232 -0.4134
19314TIP3    H279434   6.067   0.483   2.203 -0.1469 -0.3766  0.2380
19315TIP3   OH279435   4.210   3.155  14.517 -0.0284 -0.6992  0.1878
19315TIP3    H179436   4.184   3.064  14.513 -0.0232 -0.7866  1.4769
19315TIP3    H279437   4.196   3.180  14.609  1.4553  0.1272  0.2281
19316TIP3   OH279438   0.830   5.939  15.606 -0.1567 -0.6568 -0.2127
19316TIP3    H179439   0.814   5.880  15.680 -2.5118 -0.4668 -0.4942
19316TIP3    H279440   0.864   6.019  15.646 -1.9221 -0.3504  0.7918
19317TIP3   OH279441   5.990   0.392   2.531  0.6068  0.1325 -0.5902
19317TIP3    H179442   6.034   0.406   2.447  0.6433 -1.3716 -0.8419
19317TIP3    H279443   5.915   0.452   2.528  0.5730  0.0507 -1.7184
19318TIP3   OH279444   5.238   3.560  16.630 -0.3884 -0.6981  0.1869
19318TIP3    H179445   5.293   3.483  16.643  1.7903  0.9059  1.0317
19318TIP3    H279446   5.191   3.571  16.712 -0.2462 -0.8128  0.2827
19319TIP3   OH279447   5.158   5.406   4.729  0.5578  0.5562  0.2338
19319TIP3    H179448   5.228   5.359   4.684  0.7710 -0.0808  1.1833
19319TIP3    H279449   5.085   5.406   4.667  0.8279 -0.3201 -0.0980
19320TIP3   OH279450   3.284   3.622   5.059  0.4311  0.5768 -0.9821
19320TIP3    H179451   3.266   3.663   4.975 -0.8346 -1.0203 -1.5579
19320TIP3    H279452   3.200   3.583   5.085  0.6873  1.3394  1.2166
19321TIP3   OH279453   2.552   4.207  15.719 -0.0030 -0.4603 -0.1194
19321TIP3    H179454   2.611   4.271  15.679 -0.2685 -0.3882 -0.4003
19321TIP3    H279455   2.568   4.215  15.813  0.0015 -0.0154 -0.1560
19322TIP3   OH279456   4.481   3.191   3.345 -0.1057  0.3233  0.6675
19322TIP3    H179457   4.563   3.239   3.353  0.5293 -0.7552  0.8354
19322TIP3    H279458   4.466   3.152   3.431 -0.3889 -0.1174  0.4270
19323TIP3   OH279459   0.045   1.284  12.536  0.3162 -0.4562  0.3725
19323TIP3    H179460   0.044   1.263  12.443  0.6328 -0.4389  0.3636
19323TIP3    H279461   0.059   1.379  12.538 -0.5126 -0.3310  0.4234
19324TIP3   OH279462   1.164   2.232  12.545 -0.9843 -0.0039 -0.5207
19324TIP3    H179463   1.070   2.231  12.558 -1.0344 -1.4186 -0.8305
19324TIP3    H279464   1.185   2.144  12.515  0.5532  0.0445  0.3264
19325TIP3   OH279465   2.722   0.993   4.676 -0.0489  0.1544  0.0780
19325TIP3    H179466   2.689   0.924   4.617  1.1904  0.4311 -0.9840
19325TIP3    H279467   2.663   1.067   4.661 -0.3029 -0.0875 -0.1359
19326TIP3   OH279468   3.970   3.590   4.325  0.7631 -0.1403  0.2054
19326TIP3    H179469   3.984   3.660   4.261 -1.2960  1.6318  1.5550
19326TIP3    H279470   3.977   3.509   4.273  0.5684  1.1462 -1.9632
19327TIP3   OH279471   6.246   2.412  16.503  0.0209  0.1780 -0.4472
19327TIP3    H179472   6.328   2.376  16.537 -0.5997  0.1154  1.0742
19327TIP3    H279473   6.272   2.460  16.424  1.5443  0.3021  0.0893
19328TIP3   OH279474   0.930   0.892   4.035  0.4112  0.1977 -0.1070
19328TIP3    H179475   0.993   0.945   4.083  0.6819  1.2470 -1.5613
19328TIP3    H279476   0.968   0.883   3.947 -0.6275 -0.6587 -0.4910
19329TIP3   OH279477   3.127   5.789  11.947 -0.3141  0.6277  0.6837
19329TIP3    H179478   3.127   5.743  11.863 -1.0002 -0.1211  1.0820
19329TIP3    H279479   3.209   5.763  11.989 -1.0958 -1.0045  1.2937
19330TIP3   OH279480   1.023   4.327   2.275 -0.1700  0.4266 -0.6093
19330TIP3    H179481   0.942   4.329   2.325  1.6196 -0.1390  2.5569
19330TIP3    H279482   1.052   4.418   2.270  0.9819  0.2728  1.9342
19331TIP3   OH279483   3.810   0.467   2.027 -0.0625 -0.2302  0.2444
19331TIP3    H179484   3.745   0.525   2.068  0.9209  0.5194  0.7931
19331TIP3    H279485   3.800   0.483   1.933 -1.2642 -0.7872  0.2562
19332TIP3   OH279486   1.755   0.772  16.480  0.4418 -0.1235 -0.2177
19332TIP3    H179487   1.776   0.740  16.392  0.2794 -2.0075  0.3688
19332TIP3    H279488   1.835   0.815  16.510  0.7574 -0.1510 -0.9891
19333TIP3   OH279489   3.550   1.126  12.291  0.6705  0.2753  0.2544
19333TIP3    H179490   3.557   1.071  12.368 -0.8501  1.2796  1.1642
19333TIP3    H279491   3.635   1.170  12.285  0.6223  0.6038  1.6829
19334TIP3   OH279492   4.229   3.644  11.179 -0.0906 -0.2014  0.2457
19334TIP3    H179493   4.265   3.731  11.168  0.4539 -0.5650 -0.9539
19334TIP3    H279494   4.295   3.597  11.230 -0.6205  0.2173  1.3494
19335TIP3   OH279495   2.779   2.642  15.508  0.0774 -0.3613  0.7931
19335TIP3    H179496   2.690   2.635  15.541 -1.7335  0.1472 -3.3147
19335TIP3    H279497   2.799   2.555  15.473  0.1310  0.1634 -0.5405
19336TIP3   OH279498   0.764   2.286   3.118  0.4546 -0.3797 -0.1839
19336TIP3    H179499   0.832   2.234   3.160  0.5799 -1.7149 -1.9370
19336TIP3    H279500   0.812   2.352   3.068  0.4717 -1.0453 -1.0666
19337TIP3   OH279501   3.637   2.320  17.067  0.0435 -0.2814 -0.7273
19337TIP3    H179502   3.700   2.324  16.995 -1.4103 -0.1449 -2.0565
19337TIP3    H279503   3.579   2.395  17.052 -1.3795 -1.3025 -0.5079
19338TIP3   OH279504   3.507   6.752  12.990  0.1166  0.4333 -0.3787
19338TIP3    H179505   3.547   6.670  12.960  2.2462  0.8122  1.1995
19338TIP3    H279506   3.432   6.724  13.043  1.0003 -0.5338  0.4019
19339TIP3   OH279507   6.461   5.179   2.075  0.0779  0.3526  0.5543
19339TIP3    H179508   6.492   5.104   2.025  0.0449  0.2764  0.6468
19339TIP3    H279509   6.530   5.195   2.139  0.8947  1.4753 -0.5530
19340TIP3   OH279510   3.559   5.308  13.029 -0.0403  0.2071  0.4649
19340TIP3    H179511   3.538   5.339  13.117 -0.5783  2.4705 -0.4156
19340TIP3    H279512   3.474   5.296  12.986  0.2353  1.4704 -0.4909
19341TIP3   OH279513   4.774   2.383   2.418 -0.8838 -0.3235 -0.3635
19341TIP3    H179514   4.755   2.369   2.510  0.2068 -1.8499 -0.3356
19341TIP3    H279515   4.775   2.478   2.408 -1.0060 -0.1327  1.1940
19342TIP3   OH279516   6.385   1.446   1.980 -0.3367 -0.2235  0.0660
19342TIP3    H179517   6.406   1.481   1.893  1.5676 -1.5451 -0.0600
19342TIP3    H279518   6.307   1.392   1.966 -1.5293  1.5083 -0.2964
19343TIP3   OH279519   1.629   4.058   1.056 -0.3666 -0.9690  0.4008
19343TIP3    H179520   1.616   4.063   1.151  0.7775  0.1162  0.5207
19343TIP3    H279521   1.549   4.095   1.019  0.4620  1.7194  1.0410
19344TIP3   OH279522   4.737   5.550   6.243  0.5325 -0.2686  0.1156
19344TIP3    H179523   4.793   5.627   6.253 -0.1639 -0.0448  3.4602
19344TIP3    H279524   4.797   5.475   6.250  0.7541 -0.0073  1.2690
19345TIP3   OH279525   3.642   0.708   5.535  0.2824 -0.4746  0.0792
19345TIP3    H179526   3.562   0.697   5.483  0.8347 -1.5217 -0.5852
19345TIP3    H279527   3.641   0.800   5.561  0.0999  0.1519 -1.9514
19346TIP3   OH279528   0.752   4.417   0.783 -0.0866 -0.2016 -0.0346
19346TIP3    H179529   0.829   4.360   0.777 -0.7483 -1.2717  1.1701
19346TIP3    H279530   0.779   4.488   0.841  0.0664 -0.4617  0.2164
19347TIP3   OH279531   2.178   3.409  11.978  0.5941 -0.1569 -0.3210
19347TIP3    H179532   2.236   3.380  12.048  0.3840  0.1472 -0.0148
19347TIP3    H279533   2.182   3.504  11.981 -1.8937 -0.0007  1.4493
19348TIP3   OH279534   0.642   0.677   2.532 -0.3036 -0.2330 -0.1411
19348TIP3    H179535   0.616   0.597   2.485 -0.2076 -1.5133  1.8414
19348TIP3    H279536   0.735   0.687   2.511  0.1379 -1.6871  0.8918
19349TIP3   OH279537   3.531   1.509  15.011 -0.5455 -0.1893 -0.3152
19349TIP3    H179538   3.480   1.471  14.939 -2.1661  0.8391  0.2196
19349TIP3    H279539   3.591   1.569  14.969 -0.5943 -0.5380 -0.8979
19350TIP3   OH279540   4.180   4.338   2.002  0.1032 -0.1150 -0.1808
19350TIP3    H179541   4.089   4.319   2.024  0.4084 -0.4992  0.7810
19350TIP3    H279542   4.224   4.348   2.087  0.4818  2.4714 -0.5773
19351TIP3   OH279543   6.544   1.011   1.199  0.2541  0.0001  0.3731
19351TIP3    H179544   6.504   0.926   1.177  0.5763 -0.1089  0.1913
19351TIP3    H279545   6.537   1.061   1.118  0.1178  0.1277  0.4634
19352TIP3   OH279546   4.380   0.969   5.323  0.5887  0.1026  0.7022
19352TIP3    H179547   4.475   0.981   5.321  0.8359 -0.7146  3.6024
19352TIP3    H279548   4.347   1.039   5.378 -0.6219  0.6987 -0.6950
19353TIP3   OH279549   2.625   4.921   9.864  0.1367  0.3859  0.4136
19353TIP3    H179550   2.556   4.983   9.840 -0.8314 -1.4924 -2.1729
19353TIP3    H279551   2.600   4.890   9.951 -0.5915  1.9532  0.7995
19354TIP3   OH279552   4.675   3.841  13.405 -0.3563 -0.3742 -0.6581
19354TIP3    H179553   4.624   3.915  13.437  0.8752  0.2902 -0.1202
19354TIP3    H279554   4.735   3.822  13.477  1.8925  0.5556 -2.1699
19355TIP3   OH279555   0.917   3.834   1.928 -0.3904 -0.5437 -0.1803
19355TIP3    H179556   0.885   3.840   1.838 -1.1219 -0.2741  0.0934
19355TIP3    H279557   0.849   3.784   1.974  0.3741 -1.4074  0.0426
19356TIP3   OH279558   1.527   3.150  16.222  0.3883  0.3147 -0.1117
19356TIP3    H179559   1.458   3.152  16.155 -0.2108 -1.8730  0.3757
19356TIP3    H279560   1.609   3.152  16.171 -0.0559 -0.4719 -0.8883
19357TIP3   OH279561   0.931   3.824   6.084 -0.5877  0.0738  0.4010
19357TIP3    H179562   0.956   3.741   6.124 -0.6944 -0.3448 -0.3833
19357TIP3    H279563   1.001   3.884   6.107 -1.4606  0.3320  2.6661
19358TIP3   OH279564   0.348   2.898  13.841  0.1934  0.2478  0.2881
19358TIP3    H179565   0.406   2.973  13.853  0.0476  0.8615 -2.2007
19358TIP3    H279566   0.382   2.854  13.763 -3.0081  1.0609 -1.7477
19359TIP3   OH279567   0.257   0.706  15.389  0.6095 -0.1130 -0.1308
19359TIP3    H179568   0.165   0.702  15.413  0.8047  0.4160  0.7442
19359TIP3    H279569   0.293   0.622  15.419  0.8258  0.4907  1.3720
19360TIP3   OH279570   0.516   0.594   4.286 -0.5690  0.0076  0.1017
19360TIP3    H179571   0.528   0.525   4.222 -0.3196 -0.0686  0.2290
19360TIP3    H279572   0.422   0.601   4.297 -0.6303  0.2722 -0.5439
19361TIP3   OH279573   6.225   5.715   1.686  0.6867  0.4639  0.2366
19361TIP3    H179574   6.179   5.702   1.769 -1.4323  2.8374 -0.4139
19361TIP3    H279575   6.195   5.644   1.630 -0.9863  1.0425  0.3471
19362TIP3   OH279576   1.442   0.743  14.015  0.0011  0.2317  0.2085
19362TIP3    H179577   1.468   0.706  13.931 -0.8729 -1.4264  0.6085
19362TIP3    H279578   1.523   0.779  14.051  0.5557  0.2138 -0.9701
19363TIP3   OH279579   5.148   0.420   1.225  0.1427  0.0761  0.2084
19363TIP3    H179580   5.116   0.347   1.172  0.7956 -0.2158  0.2149
19363TIP3    H279581   5.166   0.380   1.311  0.0012  0.3560  0.3705
19364TIP3   OH279582   2.894   2.756   2.079 -0.4119  0.3545  0.7123
19364TIP3    H179583   2.825   2.699   2.115  1.0301 -0.5809  2.1042
19364TIP3    H279584   2.916   2.716   1.995 -1.4086  0.5485  0.3477
19365TIP3   OH279585   1.926   5.335   2.177  0.0870 -0.6229 -0.7180
19365TIP3    H179586   1.832   5.340   2.191  0.2613  0.2303  0.2605
19365TIP3    H279587   1.939   5.255   2.126 -1.1327 -0.8664 -0.6639
19366TIP3   OH279588   3.740   4.626  15.916 -0.0862 -0.0690  0.2452
19366TIP3    H179589   3.725   4.714  15.880 -0.9709 -0.1518  0.3817
19366TIP3    H279590   3.804   4.639  15.985  0.9939  0.2273 -0.7736
19367TIP3   OH279591   0.939   5.344   1.137  0.1768  0.2141 -0.3704
19367TIP3    H179592   0.984   5.379   1.060  1.8961 -0.3344  0.3167
19367TIP3    H279593   0.846   5.353   1.117  0.4791 -1.6202 -3.3563
19368TIP3   OH279594   4.788   0.867  14.558  0.2412  0.3904 -0.8400
19368TIP3    H179595   4.716   0.889  14.501 -0.2444  1.5012  0.1600
19368TIP3    H279596   4.774   0.920  14.637  1.5787 -0.1307 -0.2113
19369TIP3   OH279597   1.935   6.193   3.030  0.9677 -0.2229  0.6586
19369TIP3    H179598   1.973   6.257   2.970 -0.1526 -0.6992 -0.6250
19369TIP3    H279599   1.899   6.125   2.973 -0.7149 -0.3889  1.8371
19370TIP3   OH279600   5.768   1.631  14.519  0.4172 -0.0367  0.3613
19370TIP3    H179601   5.741   1.707  14.468  1.2266 -0.9171 -1.4509
19370TIP3    H279602   5.718   1.558  14.482 -0.1178 -0.4796  1.8639
19371TIP3   OH279603   3.504   6.754  16.188 -0.0415 -0.0197  0.0030
19371TIP3    H179604   3.558   6.744  16.266  3.5325  1.8199 -1.9831
19371TIP3    H279605   3.439   6.821  16.212  0.0111 -0.5498  1.7561
19372TIP3   OH279606   3.695   3.818   2.046  0.9183  0.1758 -0.0014
19372TIP3    H179607   3.644   3.841   2.124  0.3755 -0.0668 -0.2834
19372TIP3    H279608   3.664   3.731   2.021  0.7895  0.4258 -0.7396
19373TIP3   OH279609   1.713   6.360   4.878  0.0262  0.0166  0.0213
19373TIP3    H179610   1.750   6.368   4.966 -1.1363  2.3050  0.4012
19373TIP3    H279611   1.620   6.345   4.893 -0.8256  3.6037 -0.6131
19374TIP3   OH279612   6.417   2.204  11.936 -0.4879  0.2562  0.1366
19374TIP3    H179613   6.396   2.298  11.942  0.4747  0.4239  1.0901
19374TIP3    H279614   6.457   2.194  11.850  1.8388  1.2520  1.0329
19375TIP3   OH279615   2.366   2.605   0.804 -0.0559  0.1123 -0.3713
19375TIP3    H179616   2.453   2.600   0.845 -0.4864 -0.0545  0.5597
19375TIP3    H279617   2.382   2.587   0.712  0.8301 -0.5194 -0.1150
19376TIP3   OH279618   5.919   0.409   0.614 -0.7731 -0.1562 -0.1510
19376TIP3    H179619   5.853   0.477   0.603 -1.1306 -0.2648  1.1786
19376TIP3    H279620   5.917   0.388   0.707  0.4954 -0.8164 -0.2454
19377TIP3   OH279621   2.936   6.543  15.897  0.4084  0.1451  0.1050
19377TIP3    H179622   3.000   6.477  15.870 -0.6096 -0.4599 -0.9000
19377TIP3    H279623   2.947   6.614  15.833 -0.2329 -0.1756 -0.3817
19378TIP3   OH279624   3.366   4.068   0.346  0.4300  0.2785  0.3978
19378TIP3    H179625   3.392   4.159   0.335  0.4715  0.1271 -0.9918
19378TIP3    H279626   3.305   4.052   0.273 -0.7483 -0.3893  1.4869
19379TIP3   OH279627   5.002   4.461  12.660 -0.7345  0.4457  0.1148
19379TIP3    H179628   5.029   4.524  12.593 -2.2101  0.0295 -0.9136
19379TIP3    H279629   4.983   4.514  12.737  1.6675  0.8764  0.5040
19380TIP3   OH279630   0.159   2.038   0.890  0.0430 -0.0497 -0.0580
19380TIP3    H179631   0.218   2.080   0.953  0.6408 -0.1842 -0.5138
19380TIP3    H279632   0.095   2.106   0.869 -0.0442  0.0598  0.5415
19381TIP3   OH279633   2.631   5.918   5.561 -0.8317  0.2619  0.1808
19381TIP3    H179634   2.724   5.896   5.556 -0.5584  1.6031 -2.3217
19381TIP3    H279635   2.588   5.835   5.581  0.8899 -0.3422  1.6200
19382TIP3   OH279636   3.525   3.203   3.475 -0.1612  0.4630  0.9743
19382TIP3    H179637   3.617   3.195   3.448 -0.7419 -0.9813 -0.8116
19382TIP3    H279638   3.497   3.113   3.489 -1.2479  0.9146  1.7382
19383TIP3   OH279639   1.487   5.329  16.716 -0.0877  0.1963  0.3896
19383TIP3    H179640   1.570   5.376  16.715 -1.3717  2.6431 -0.8362
19383TIP3    H279641   1.511   5.237  16.705  2.4236  0.8389 -0.0763
19384TIP3   OH279642   0.087   2.107  11.106 -0.4344 -0.1575 -0.3014
19384TIP3    H179643   0.176   2.136  11.085  0.6205  0.9738  4.3906
19384TIP3    H279644   0.030   2.162  11.053  1.7009  1.9710 -0.5896
19385TIP3   OH279645   2.902   0.880   4.431 -0.4205 -0.2053 -0.0533
19385TIP3    H179646   2.849   0.804   4.455 -0.3050 -1.0036 -2.0590
19385TIP3    H279647   2.838   0.944   4.397 -0.3286 -0.2351 -0.2858
19386TIP3   OH279648   6.700   0.040   1.042 -0.1150  0.5438 -0.2895
19386TIP3    H179649   6.750   0.117   1.014 -1.0601  1.0549 -0.5784
19386TIP3    H279650   6.681  -0.007   0.961 -0.5409  0.6149 -0.2296
19387TIP3   OH279651   2.402   4.452   0.150 -0.0594 -0.2021  0.2394
19387TIP3    H179652   2.431   4.409   0.231  1.3526  1.5853  0.7640
19387TIP3    H279653   2.311   4.425   0.139 -0.0666 -1.0439  2.0539
19388TIP3   OH279654   4.762   6.202  15.582 -0.0432  0.3401  0.1700
19388TIP3    H179655   4.686   6.201  15.640  1.5749  0.8432  2.4609
19388TIP3    H279656   4.779   6.295  15.568 -1.0102  0.2424 -2.0771
19389TIP3   OH279657   5.921   5.192  13.660  0.4073 -0.7300  0.5780
19389TIP3    H179658   5.837   5.224  13.628  0.1758 -2.8774 -1.2183
19389TIP3    H279659   5.901   5.151  13.745 -0.4903 -1.6666 -0.0652
19390TIP3   OH279660   2.369   2.186   2.310 -0.6056  0.0047  0.2487
19390TIP3    H179661   2.452   2.194   2.357  0.9584  0.9546 -2.4774
19390TIP3    H279662   2.322   2.118   2.358  2.1009 -1.2097  1.4133
19391TIP3   OH279663   5.745   0.869   5.633 -0.9620  0.1007  0.1322
19391TIP3    H179664   5.742   0.843   5.725 -1.3635 -0.8361 -0.1306
19391TIP3    H279665   5.818   0.930   5.627 -2.6322  2.4275  1.6161
19392TIP3   OH279666   3.210   3.089  16.858 -0.4037 -0.1109 -0.0199
19392TIP3    H179667   3.194   2.996  16.842  0.2912 -0.1463 -0.5742
19392TIP3    H279668   3.154   3.134  16.794 -1.3891 -0.1178  0.8252
19393TIP3   OH279669   2.800   4.224  15.953 -0.0252  0.1131  0.0262
19393TIP3    H179670   2.844   4.207  16.037 -1.1105 -1.6634  0.2925
19393TIP3    H279671   2.840   4.162  15.892 -0.6661 -0.0298 -0.2540
19394TIP3   OH279672   2.354   6.391  13.749 -0.0295 -0.4993 -0.0487
19394TIP3    H179673   2.274   6.441  13.767  0.0002 -0.0135 -1.1967
19394TIP3    H279674   2.424   6.444  13.787 -0.0525  0.1047 -0.8268
19395TIP3   OH279675   1.608   1.029  11.447  0.3013  0.2974 -1.4125
19395TIP3    H179676   1.546   0.956  11.454  2.9179 -1.9834  0.1773
19395TIP3    H279677   1.664   1.005  11.373  1.1706  0.6948 -0.8963
19396TIP3   OH279678   6.183   4.825  13.217  0.5125 -0.2322 -0.1165
19396TIP3    H179679   6.121   4.842  13.146 -0.2357  1.1781  0.8205
19396TIP3    H279680   6.148   4.747  13.260  1.2037 -1.3594 -1.4954
19397TIP3   OH279681   1.468   2.043  16.441  0.2494  0.4342  0.6087
19397TIP3    H179682   1.432   2.074  16.358  0.2775  2.6513  1.3602
19397TIP3    H279683   1.529   1.973  16.416  0.4536  1.2223 -1.2664
19398TIP3   OH279684   0.649   5.489  11.032 -0.1155 -0.5955 -0.4131
19398TIP3    H179685   0.714   5.423  11.010  0.4226 -0.1120 -0.3042
19398TIP3    H279686   0.565   5.446  11.017  0.2283 -1.0182 -1.1934
19399TIP3   OH279687   2.013   5.350  14.727 -0.1006 -0.1148  0.4486
19399TIP3    H179688   2.011   5.369  14.820 -1.1087  1.6497  0.1064
19399TIP3    H279689   1.976   5.427  14.685  1.0072 -0.5529 -1.4840
19400TIP3   OH279690   0.212   5.882  16.505  0.8658 -0.3650 -0.1203
19400TIP3    H179691   0.261   5.808  16.469 -1.6859 -1.5040 -1.5300
19400TIP3    H279692   0.128   5.844  16.533 -0.2574  1.8667 -0.2513
19401TIP3   OH279693   3.031   5.173  16.145 -0.5158  0.1364 -0.1979
19401TIP3    H179694   2.984   5.237  16.198 -0.5083 -0.4726  0.5559
19401TIP3    H279695   2.996   5.185  16.056 -1.0345  0.6818  0.0725
19402TIP3   OH279696   6.277   0.192   4.771  0.1588  0.2804 -0.0608
19402TIP3    H179697   6.370   0.173   4.770  0.8741  3.2046 -2.1051
19402TIP3    H279698   6.239   0.135   4.705  0.8602  0.4945 -0.6471
19403TIP3   OH279699   5.706   2.838   2.154  0.3358 -0.2868 -0.0697
19403TIP3    H179700   5.727   2.782   2.228  1.5423  0.8515  0.4826
19403TIP3    H279701   5.619   2.809   2.126  0.2599 -1.3488  1.1874
19404TIP3   OH279702   5.211   1.369   3.126 -0.1424  0.3570 -0.1243
19404TIP3    H179703   5.293   1.417   3.138 -0.1871  0.5565 -0.5970
19404TIP3    H279704   5.144   1.438   3.125 -0.2916  0.2144  0.0186
19405TIP3   OH279705   0.347   1.194   1.033 -0.0578 -0.1492 -0.2363
19405TIP3    H179706   0.324   1.148   1.113  0.0453  1.8326  1.0037
19405TIP3    H279707   0.291   1.155   0.966 -0.9740 -1.0777  1.0218
19406TIP3   OH279708   1.829   6.048  15.058  0.5055 -0.3078  0.1252
19406TIP3    H179709   1.755   6.037  15.117 -1.5463  1.1261 -2.0175
19406TIP3    H279710   1.904   6.017  15.108 -1.5488 -2.1753  2.2832
19407TIP3   OH279711   0.122   2.561   5.463 -0.3121 -0.1519 -0.0061
19407TIP3    H179712   0.066   2.629   5.426 -0.7440 -0.5765 -0.1586
19407TIP3    H279713   0.085   2.479   5.428  0.4721 -0.4355 -0.2002
19408TIP3   OH279714   0.254   2.862   4.309 -0.2254  0.3485  0.5348
19408TIP3    H179715   0.223   2.829   4.225 -0.3239  0.6497  0.4499
19408TIP3    H279716   0.330   2.808   4.330 -1.7579 -1.5511  1.5512
19409TIP3   OH279717   4.629   0.216   1.377 -0.1644 -0.4266 -0.4204
19409TIP3    H179718   4.692   0.245   1.312 -0.2920 -1.0243 -0.8197
19409TIP3    H279719   4.666   0.245   1.461  1.8047 -2.6550 -0.4036
19410TIP3   OH279720   6.202   2.269   1.422 -0.1630 -0.1470 -0.0156
19410TIP3    H179721   6.197   2.297   1.513 -2.8109  1.0982 -0.4257
19410TIP3    H279722   6.174   2.178   1.423 -2.3506  0.4572  0.2905
19411TIP3   OH279723   5.718   2.892  16.953 -0.8351  0.4361 -0.3282
19411TIP3    H179724   5.661   2.905  17.029 -1.1847 -0.6301 -0.4044
19411TIP3    H279725   5.728   2.797  16.946  0.2329  0.5740 -0.8551
19412TIP3   OH279726   5.721   5.733  15.965 -0.1599  0.2416 -0.2395
19412TIP3    H179727   5.635   5.754  16.002  0.5132 -0.0121  1.5738
19412TIP3    H279728   5.784   5.775  16.023  0.9751  0.6733 -1.7064
19413TIP3   OH279729   5.330   6.431   2.313  0.2827  0.1061  0.1731
19413TIP3    H179730   5.250   6.460   2.357 -1.4087 -2.8152 -0.7274
19413TIP3    H279731   5.398   6.436   2.381 -0.6680  2.3884  1.0325
19414TIP3   OH279732   4.169   5.952  11.276  0.0168  0.5704 -0.0396
19414TIP3    H179733   4.255   5.921  11.248 -0.2743  0.1435 -0.4935
19414TIP3    H279734   4.182   6.045  11.296  1.0546  0.0409  1.9485
19415TIP3   OH279735   4.673   3.689   6.174 -0.1111  0.0591 -0.2502
19415TIP3    H179736   4.592   3.679   6.124  0.3302 -0.7447 -0.8342
19415TIP3    H279737   4.659   3.638   6.253 -0.3273  0.2481 -0.1685
19416TIP3   OH279738   1.688   5.752   2.899  0.0861 -0.0097 -0.6893
19416TIP3    H179739   1.622   5.803   2.946  0.7624 -1.1252  1.6014
19416TIP3    H279740   1.647   5.667   2.884  0.4588 -0.2076 -0.6016
19417TIP3   OH279741   6.401   4.548   1.328  0.5180 -0.3064  0.3122
19417TIP3    H179742   6.457   4.610   1.281 -0.8048 -0.1889 -1.1783
19417TIP3    H279743   6.428   4.462   1.295 -0.0701 -0.2576 -0.3186
19418TIP3   OH279744   6.754   2.399   5.756  0.2661  0.0914 -0.5604
19418TIP3    H179745   6.747   2.375   5.848  2.0409  2.6437  0.3464
19418TIP3    H279746   6.836   2.360   5.727  0.2048  0.1339 -0.7943
19419TIP3   OH279747   3.429   2.068  11.616 -0.3319  0.2388 -0.4838
19419TIP3    H179748   3.507   2.105  11.658 -0.1536  0.5570 -1.0849
19419TIP3    H279749   3.406   2.132  11.548 -1.3517  0.3462 -0.0547
19420TIP3   OH279750   4.695   5.969  13.757 -0.8070 -0.3924  0.1480
19420TIP3    H179751   4.775   5.921  13.736 -2.4519 -3.5981  0.6358
19420TIP3    H279752   4.701   6.050  13.705  2.0843 -1.1062 -0.8224
19421TIP3   OH279753   1.589   6.662   5.888 -0.5909 -0.3651 -0.2200
19421TIP3    H179754   1.581   6.620   5.973  1.5587  1.7081  1.1448
19421TIP3    H279755   1.581   6.756   5.907 -0.0073  0.1516 -2.2611
19422TIP3   OH279756   3.185   2.075   2.454 -0.4826 -0.2297 -0.2824
19422TIP3    H179757   3.209   2.059   2.362  1.3221  3.0352 -0.5255
19422TIP3    H279758   3.268   2.081   2.500 -1.2757  0.3386  1.1344
19423TIP3   OH279759   6.303   5.912  14.464  0.2695  0.3687 -0.1848
19423TIP3    H179760   6.324   5.842  14.402  0.7079  1.6332 -1.5172
19423TIP3    H279761   6.335   5.992  14.422 -0.1319  1.3697  1.3360
19424TIP3   OH279762   6.167   0.370  14.419  0.5009 -0.2309 -0.4604
19424TIP3    H179763   6.125   0.322  14.491  0.6407  0.1710 -0.1050
19424TIP3    H279764   6.226   0.306  14.380  0.1617 -0.5597 -0.4473
19425TIP3   OH279765   4.873   6.190   0.187  0.1925 -0.5424 -0.3241
19425TIP3    H179766   4.829   6.135   0.122  1.3617 -2.2210  0.2438
19425TIP3    H279767   4.922   6.128   0.241  1.0291  1.0219  0.7648
19426TIP3   OH279768   1.525   2.602  16.978 -0.5806  0.5424  0.6398
19426TIP3    H179769   1.460   2.535  16.958  0.0039  0.1443  0.0253
19426TIP3    H279770   1.577   2.610  16.897  1.0174 -0.1417  1.5586
19427TIP3   OH279771   5.980   0.003   4.832 -0.2354  0.8219 -0.0540
19427TIP3    H179772   5.971   0.019   4.926  1.9905 -0.1290  0.3759
19427TIP3    H279773   6.053  -0.058   4.825 -2.2132 -1.5135 -2.2120
19428TIP3   OH279774   1.255   5.082   0.200  0.1513  0.6882  0.3206
19428TIP3    H179775   1.324   5.029   0.161  0.0231 -0.1881  1.2726
19428TIP3    H279776   1.277   5.172   0.175  0.3583  0.2107 -1.3229
19429TIP3   OH279777   4.960   4.380   0.977 -0.0750 -0.2625 -0.1382
19429TIP3    H179778   5.038   4.429   1.002 -0.7251  0.6154  0.2306
19429TIP3    H279779   4.988   4.289   0.979  0.1574 -0.2375  3.0820
19430TIP3   OH279780   4.395   5.731   4.996 -0.1925  0.2300  0.3179
19430TIP3    H179781   4.488   5.750   4.988 -0.2828  0.1179 -1.4261
19430TIP3    H279782   4.382   5.708   5.088  1.8079 -1.3491  0.2659
19431TIP3   OH279783   1.733   2.620  16.510  0.0107 -0.0935 -0.0983
19431TIP3    H179784   1.662   2.593  16.568 -1.9512 -0.9637 -2.6885
19431TIP3    H279785   1.774   2.694  16.554 -0.0303 -1.8471  3.2404
19432TIP3   OH279786   3.186   4.502  14.739 -0.2131 -0.1187  0.3458
19432TIP3    H179787   3.124   4.564  14.701 -0.3601  1.0498  2.3975
19432TIP3    H279788   3.152   4.416  14.712  0.2158  0.5649 -2.8672
19433TIP3   OH279789   2.513   3.970   3.968 -0.2316  0.0574 -0.3066
19433TIP3    H179790   2.502   4.004   4.056 -0.8765  0.5465 -0.5703
19433TIP3    H279791   2.568   3.892   3.979 -2.2074 -1.2678  0.8282
19434TIP3   OH279792   3.125   3.711  17.156  0.5674  0.2556  0.1661
19434TIP3    H179793   3.103   3.800  17.127  1.5051 -0.0644 -1.7010
19434TIP3    H279794   3.160   3.722  17.244  2.3747  2.0095 -0.6932
19435TIP3   OH279795   6.508   5.886   2.501  0.1215  0.5381  0.5259
19435TIP3    H179796   6.581   5.947   2.501  1.0735 -0.5536  1.0367
19435TIP3    H279797   6.462   5.902   2.419  0.4018  1.8543  0.6111
19436TIP3   OH279798   6.552   3.667  13.200 -0.2648 -0.4404 -0.6071
19436TIP3    H179799   6.634   3.666  13.150  0.2897  1.5355  0.1806
19436TIP3    H279800   6.577   3.699  13.286 -1.9657  1.0507 -0.6083
19437TIP3   OH279801   2.861   3.278   0.745 -0.1984 -0.2141 -0.4795
19437TIP3    H179802   2.859   3.361   0.698 -0.8548  0.3974  0.5724
19437TIP3    H279803   2.865   3.212   0.676  2.0011  0.7004 -1.3055
19438TIP3   OH279804   3.512   2.860   5.138  0.4115  0.1016  0.5528
19438TIP3    H179805   3.503   2.781   5.190 -1.2499 -0.3238 -0.3173
19438TIP3    H279806   3.500   2.830   5.047 -0.2206  1.3256  0.2116
19439TIP3   OH279807   4.728   2.203   1.990  0.8277  0.1931 -0.4806
19439TIP3    H179808   4.709   2.170   2.078 -0.6145 -0.9084 -1.1677
19439TIP3    H279809   4.767   2.289   2.005 -2.2948  1.4803  1.2235
19440TIP3   OH279810   6.733   2.597  14.158  0.1374 -0.0930  0.2196
19440TIP3    H179811   6.679   2.519  14.149  0.5397 -0.2824 -0.6489
19440TIP3    H279812   6.677   2.659  14.205  1.2903 -2.2924  5.1043
19441TIP3   OH279813   5.536   1.736   3.284  0.3205  0.6866 -0.1943
19441TIP3    H179814   5.503   1.818   3.320 -0.0278  0.6764 -0.4876
19441TIP3    H279815   5.602   1.762   3.219  1.0218  0.7035  0.5023
19442TIP3   OH279816   5.723   0.065   4.376  0.0570  0.0348 -0.2396
19442TIP3    H179817   5.762   0.089   4.461  1.7142  2.4276 -1.5636
19442TIP3    H279818   5.768  -0.016   4.351  0.9726  0.3710  0.2833
19443TIP3   OH279819   0.216   2.225  11.676 -0.2349 -0.3830  0.5058
19443TIP3    H179820   0.277   2.235  11.603  0.0516 -0.5974  0.7152
19443TIP3    H279821   0.134   2.197  11.635 -1.1809  2.9047 -0.1745
19444TIP3   OH279822   2.619   1.076  11.364 -0.0735 -0.3290  0.3691
19444TIP3    H179823   2.666   1.011  11.311  0.3162 -0.6989  1.1591
19444TIP3    H279824   2.665   1.076  11.448 -2.3610 -1.7529  1.6983
19445TIP3   OH279825   2.700   2.387   2.668 -0.1205 -0.8881  0.4341
19445TIP3    H179826   2.653   2.464   2.700  0.2178 -0.2846 -0.4916
19445TIP3    H279827   2.695   2.324   2.741 -0.3520  0.0189  1.2232
19446TIP3   OH279828   2.030   0.324  14.333 -0.6511 -0.3478  0.0014
19446TIP3    H179829   1.939   0.312  14.357 -1.1313  0.1281 -1.4292
19446TIP3    H279830   2.047   0.417  14.349  0.1531 -0.7868  1.9604
19447TIP3   OH279831   6.061   0.958   5.187 -0.0779  0.5323 -0.5355
19447TIP3    H179832   6.032   0.867   5.201  1.8102 -0.1299 -0.5919
19447TIP3    H279833   6.043   0.975   5.095 -1.6988  0.7174 -0.2062
19448TIP3   OH279834   3.131   0.831  14.932  0.6029 -0.0517  0.2079
19448TIP3    H179835   3.179   0.750  14.946  0.8459 -0.1948 -1.3133
19448TIP3    H279836   3.068   0.834  15.004 -2.9161 -4.1506 -2.2335
19449TIP3   OH279837   3.992   2.759   1.342  0.0412 -0.5726 -0.2322
19449TIP3    H179838   3.905   2.762   1.302  0.2698  2.2031 -0.6765
19449TIP3    H279839   4.018   2.667   1.335 -1.6190 -0.9516 -2.8021
19450TIP3   OH279840   5.254   4.687  15.368 -0.2626 -0.3716 -0.0682
19450TIP3    H179841   5.248   4.595  15.344 -1.3243 -0.1845 -0.5347
19450TIP3    H279842   5.166   4.722  15.354 -0.7721 -0.0275  3.1966
19451TIP3   OH279843   6.336   1.246  11.585  0.2322  0.2106  0.8290
19451TIP3    H179844   6.415   1.282  11.626  0.2795  0.7634  0.2566
19451TIP3    H279845   6.370   1.186  11.518  0.1549 -0.0604  1.0274
19452TIP3   OH279846   4.724   3.824  16.152 -0.4714  0.0109 -0.1033
19452TIP3    H179847   4.674   3.744  16.136  1.0383 -0.9464 -0.2245
19452TIP3    H279848   4.755   3.816  16.242  1.7496 -0.7736 -0.8815
19453TIP3   OH279849   3.684   5.011  15.479 -0.0770 -0.3242 -0.2472
19453TIP3    H179850   3.703   5.024  15.386 -2.6494 -1.1647 -0.9720
19453TIP3    H279851   3.664   4.918  15.487  2.0372 -0.7145  1.6027
19454TIP3   OH279852   4.200   3.858   0.154  0.2805 -0.5610 -0.3215
19454TIP3    H179853   4.212   3.889   0.244 -0.7407  0.3656 -0.4787
19454TIP3    H279854   4.110   3.883   0.132  0.5467 -0.6811 -1.6347
19455TIP3   OH279855   2.825   1.113   5.572 -0.0125  0.2452 -0.9762
19455TIP3    H179856   2.826   1.101   5.477 -3.0986  1.3123 -1.2664
19455TIP3    H279857   2.776   1.038   5.605  1.2472 -0.2452 -0.1573
19456TIP3   OH279858   6.314   3.981  12.318  0.3808 -0.2133  0.3860
19456TIP3    H179859   6.299   4.007  12.227 -3.6894  1.8887  1.4220
19456TIP3    H279860   6.229   3.948  12.347  1.8221 -1.7323  3.2181
19457TIP3   OH279861   2.258   0.567  13.673 -0.3651  0.1899 -0.0119
19457TIP3    H179862   2.266   0.661  13.687 -1.0343  0.3243 -0.4876
19457TIP3    H279863   2.342   0.541  13.634  0.9597  0.0642  2.6882
19458TIP3   OH279864   6.286   6.460   1.254 -0.4421 -0.0528  0.9709
19458TIP3    H179865   6.305   6.438   1.345  0.5487 -0.5628  0.6472
19458TIP3    H279866   6.340   6.401   1.203  1.8476  2.6320  0.0397
19459TIP3   OH279867   0.605   6.119  13.655 -0.0046  0.2419  0.6265
19459TIP3    H179868   0.565   6.113  13.742 -1.2097 -2.0145  0.0195
19459TIP3    H279869   0.679   6.059  13.658 -0.6970 -0.6959 -0.1633
19460TIP3   OH279870   0.995   0.631  14.194  0.1490  0.5767  0.4459
19460TIP3    H179871   1.088   0.621  14.214  0.0642  2.2159  1.9214
19460TIP3    H279872   0.980   0.572  14.121  2.5269  0.8111 -0.3352
19461TIP3   OH279873   3.908   6.462   4.546 -0.0686  0.5004  0.5064
19461TIP3    H179874   3.824   6.417   4.560 -0.2202 -0.0754 -1.8627
19461TIP3    H279875   3.974   6.393   4.555 -0.1784  0.0914 -1.4688
19462TIP3   OH279876   4.503   6.767  13.878 -0.0315  0.3838 -0.4289
19462TIP3    H179877   4.564   6.748  13.950  1.2721  3.8600 -0.4108
19462TIP3    H279878   4.559   6.780  13.802 -1.2408 -1.0566 -1.6541
19463TIP3   OH279879   6.103   2.532   6.250 -0.9043 -0.0220  0.1160
19463TIP3    H179880   6.084   2.609   6.303  1.5667  1.1367 -0.5234
19463TIP3    H279881   6.120   2.566   6.162  0.0137 -1.2830 -0.2338
19464TIP3   OH279882   2.445   5.235   2.968 -0.1686  0.5733 -0.1253
19464TIP3    H179883   2.526   5.205   3.010 -0.0524 -2.2610 -2.0656
19464TIP3    H279884   2.473   5.308   2.912  0.8158  0.4405  0.1754
19465TIP3   OH279885   3.903   6.304   1.361 -0.0942  0.0671 -0.5438
19465TIP3    H179886   3.968   6.233   1.357 -0.4377 -0.2272 -1.0835
19465TIP3    H279887   3.931   6.359   1.434  1.0548  0.2303 -1.0887
19466TIP3   OH279888   4.717   4.446  16.285  0.0383  0.3849  0.1422
19466TIP3    H179889   4.697   4.353  16.297  1.0495  0.1277 -0.0713
19466TIP3    H279890   4.673   4.490  16.358  0.5680 -0.4035  0.9549
19467TIP3   OH279891   0.629   2.308  13.050  0.7743 -0.2736  0.2831
19467TIP3    H179892   0.703   2.368  13.049  1.8369 -1.4925 -1.2918
19467TIP3    H279893   0.555   2.359  13.019  1.4774  0.4237 -0.2753
19468TIP3   OH279894   2.470   1.486   5.815  0.7978  0.0661  0.1453
19468TIP3    H179895   2.452   1.514   5.905 -1.6775  0.1297 -0.2869
19468TIP3    H279896   2.464   1.391   5.818  0.5127  0.0791  0.0208
19469TIP3   OH279897   0.908   0.516   5.485  0.1105 -0.4241 -0.0600
19469TIP3    H179898   0.939   0.602   5.514 -2.1515  0.0087  1.3624
19469TIP3    H279899   0.956   0.454   5.539  0.4567  0.0493  0.1849
19470TIP3   OH279900   5.738   1.403  12.725 -0.4075 -0.3309  0.0595
19470TIP3    H179901   5.826   1.410  12.689 -0.5411  1.5472 -0.0428
19470TIP3    H279902   5.751   1.378  12.817  0.3154  0.8714  0.3069
19471TIP3   OH279903   0.913   4.113  14.426  0.9052  0.1082 -0.2593
19471TIP3    H179904   0.985   4.050  14.434  1.3131  0.7606  1.9503
19471TIP3    H279905   0.907   4.153  14.513 -1.4207  0.8616 -0.7076
19472TIP3   OH279906   3.006   3.786  15.665  0.2515 -0.2361  0.5024
19472TIP3    H179907   3.047   3.737  15.736 -0.3054 -1.7031 -0.1598
19472TIP3    H279908   2.919   3.748  15.656 -0.0960  0.6887 -0.2335
19473TIP3   OH279909   0.165   5.493  12.469 -0.1689 -0.1596 -0.7188
19473TIP3    H179910   0.128   5.445  12.396  0.2031 -0.4483 -0.7202
19473TIP3    H279911   0.259   5.493  12.452  0.2204 -2.3852  1.0186
19474TIP3   OH279912   3.240   4.551   0.358 -0.1540 -0.3709 -0.4146
19474TIP3    H179913   3.244   4.602   0.277  0.4640  0.9620  0.4131
19474TIP3    H279914   3.171   4.487   0.343 -0.3917  0.1776 -1.8089
19475TIP3   OH279915   2.008   3.687   2.672  0.4859  0.4579  0.5001
19475TIP3    H179916   1.968   3.695   2.585  0.9124 -0.1862  0.2427
19475TIP3    H279917   2.095   3.651   2.655  0.4987  0.1532  1.2156
19476TIP3   OH279918   6.187   2.662   5.075  0.0145  0.0160  0.4151
19476TIP3    H179919   6.158   2.585   5.125 -0.7674  0.3180  0.4384
19476TIP3    H279920   6.158   2.645   4.985 -1.3813  0.8850  0.6772
19477TIP3   OH279921   3.888   3.172   2.668  0.2003  0.3614 -0.2918
19477TIP3    H179922   3.888   3.168   2.763 -1.6522  0.3710 -0.2610
19477TIP3    H279923   3.884   3.266   2.648 -1.7563  0.2982 -0.3190
19478TIP3   OH279924   1.004   2.928  16.769  0.2463 -0.1634  0.0047
19478TIP3    H179925   0.999   3.019  16.740 -0.9194 -0.8005 -2.0369
19478TIP3    H279926   1.046   2.881  16.697 -0.4894 -1.4543  0.3651
19479TIP3   OH279927   0.830   5.381  16.654 -0.1802 -0.3297 -0.5235
19479TIP3    H179928   0.907   5.430  16.683 -0.6281  1.7880 -2.5789
19479TIP3    H279929   0.760   5.409  16.713 -0.1599  0.6260 -0.9394
19480TIP3   OH279930   0.286   1.271   5.082  0.7171  0.1229 -0.0309
19480TIP3    H179931   0.226   1.317   5.141  1.8986  0.8625  0.6098
19480TIP3    H279932   0.343   1.339   5.047  1.3726 -0.6190 -0.4262
19481TIP3   OH279933   3.713   1.807   5.568  0.2839  0.1502 -0.0926
19481TIP3    H179934   3.721   1.780   5.476  1.3393 -0.2251  0.0880
19481TIP3    H279935   3.772   1.882   5.576  1.7315 -0.9929  0.6879
19482TIP3   OH279936   0.128   2.862   0.980 -0.0324 -0.2338 -0.1727
19482TIP3    H179937   0.087   2.906   0.905 -1.3716 -0.2566  0.5224
19482TIP3    H279938   0.109   2.769   0.965  0.9454 -0.3949 -0.5245
19483TIP3   OH279939   4.726   2.238  16.384 -0.5010 -0.7259  0.2631
19483TIP3    H179940   4.763   2.267  16.468  0.2100 -0.1010 -0.2447
19483TIP3    H279941   4.725   2.143  16.390  1.1076 -0.7743  0.3625
19484TIP3   OH279942   0.347   1.549  16.836  0.3848 -0.0071 -0.4197
19484TIP3    H179943   0.387   1.636  16.830  1.0674 -0.3890 -1.6365
19484TIP3    H279944   0.334   1.535  16.930  1.5876  0.8171 -0.1108
19485TIP3   OH279945   3.958   6.273  11.411  0.1260  0.3165  0.3530
19485TIP3    H179946   4.049   6.286  11.439  0.2323  0.5173 -0.0728
19485TIP3    H279947   3.965   6.220  11.332 -0.2447 -1.4373  1.4262
19486TIP3   OH279948   5.421   1.556   3.120  0.3117  0.0528 -0.2797
19486TIP3    H179949   5.468   1.611   3.183  0.4071  0.5202 -0.7497
19486TIP3    H279950   5.486   1.492   3.090  0.3763  0.0785 -0.1942
19487TIP3   OH279951   6.678   6.393  13.834 -0.2175  0.0419  0.2707
19487TIP3    H179952   6.592   6.410  13.796 -1.3647 -1.6448  1.9472
19487TIP3    H279953   6.705   6.477  13.870 -0.6358  0.8443 -1.1886
19488TIP3   OH279954   3.605   1.028   3.248  0.2190  0.0047  0.4835
19488TIP3    H179955   3.636   1.108   3.290  2.8643 -0.0780 -1.1084
19488TIP3    H279956   3.564   1.056   3.167 -1.7521 -0.0990  1.3776
19489TIP3   OH279957   3.481   4.292  11.030  0.1059  0.1821  0.2818
19489TIP3    H179958   3.472   4.264  10.939 -0.4698 -1.4748  0.8122
19489TIP3    H279959   3.427   4.372  11.037  0.4526  0.5296 -0.8965
19490TIP3   OH279960   1.214   3.261  15.157  0.3357 -0.0428 -0.3251
19490TIP3    H179961   1.152   3.317  15.204 -0.4378 -1.8386  0.9172
19490TIP3    H279962   1.160   3.217  15.091  0.8131  0.2422 -0.9077
19491TIP3   OH279963   2.424   5.030  16.523 -0.0440 -0.2064 -0.3789
19491TIP3    H179964   2.402   5.079  16.444  3.3577  0.3731 -1.1536
19491TIP3    H279965   2.423   5.095  16.593  0.2540  0.0489 -0.6071
19492TIP3   OH279966   4.825   6.412  14.993  0.1608 -0.0608 -0.2637
19492TIP3    H179967   4.828   6.362  15.075  1.0229 -0.3819 -0.4804
19492TIP3    H279968   4.738   6.394  14.958  0.3721 -1.2467 -0.2303
19493TIP3   OH279969   4.661   4.522   2.781 -0.5492 -0.2011  0.0497
19493TIP3    H179970   4.593   4.514   2.848 -0.9453 -2.6997 -0.5383
19493TIP3    H279971   4.741   4.543   2.830 -1.2624  0.2317  1.0464
19494TIP3   OH279972   2.796   6.557  13.261 -0.2166  0.5256 -0.1492
19494TIP3    H179973   2.775   6.465  13.244 -1.1011  0.5331  0.8235
19494TIP3    H279974   2.812   6.594  13.174 -1.9957 -0.0496 -0.7650
19495TIP3   OH279975   0.680   2.446  13.295  0.2893  0.1930  0.1781
19495TIP3    H179976   0.674   2.376  13.230 -2.0942  0.9777 -0.5400
19495TIP3    H279977   0.631   2.519  13.257 -1.1501  0.7022  2.7965
19496TIP3   OH279978   0.817   3.005   9.830  0.0730 -0.0386 -0.1250
19496TIP3    H179979   0.780   3.004   9.919 -0.8904  0.6242 -0.5111
19496TIP3    H279980   0.798   3.092   9.797 -0.2854 -0.5413 -1.2823
19497TIP3   OH279981   3.440   5.186   5.806 -0.2377 -0.1937 -0.2010
19497TIP3    H179982   3.460   5.213   5.896  0.6588 -0.1723 -0.4063
19497TIP3    H279983   3.408   5.096   5.815 -0.9662  0.0912  0.2210
19498TIP3   OH279984   6.562   4.644   0.858  0.4246 -0.0309  0.4961
19498TIP3    H179985   6.578   4.549   0.852 -1.2426 -0.3531  0.7357
19498TIP3    H279986   6.559   4.674   0.767  5.0517  0.6273  0.3317
19499TIP3   OH279987   6.060   5.649   5.356  0.6420  0.1291 -0.0597
19499TIP3    H179988   6.045   5.742   5.340  1.0902  0.0684 -0.8197
19499TIP3    H279989   6.121   5.647   5.430 -0.5808  0.4083  1.0024
19500TIP3   OH279990   2.013   2.019   4.924  0.1677  0.4573  0.0859
19500TIP3    H179991   2.097   2.052   4.894  1.1414 -0.7053  1.4046
19500TIP3    H279992   2.005   2.052   5.014  0.4438 -1.4828  0.8812
19501TIP3   OH279993   3.536   5.125  16.279 -0.3029  0.1014 -0.1309
19501TIP3    H179994   3.486   5.056  16.236 -0.3860  0.4199 -0.5460
19501TIP3    H279995   3.553   5.189  16.210 -0.0321  0.3904  0.2016
19502TIP3   OH279996   4.162   4.002  15.161  0.3960 -0.0841  0.5258
19502TIP3    H179997   4.213   3.922  15.145 -0.5429 -0.1915 -2.6826
19502TIP3    H279998   4.208   4.070  15.111 -0.5051  0.6943  0.7243
19503TIP3   OH279999   0.378   4.319   2.480 -0.7623  0.0667  0.3074
19503TIP3    H180000   0.303   4.356   2.433  0.2267  1.6310 -0.0870
19503TIP3    H280001   0.363   4.344   2.572 -2.9265 -3.3664  1.0853
19504TIP3   OH280002   3.880   2.243  13.532 -0.1645  0.0638 -0.0273
19504TIP3    H180003   3.897   2.299  13.608  1.3039  0.6196 -0.7185
19504TIP3    H280004   3.815   2.291  13.481 -1.4282 -0.4815  1.0214
19505TIP3   OH280005   1.171   4.865   0.396  0.5289 -0.0269  0.1439
19505TIP3    H180006   1.225   4.890   0.321 -0.1471 -1.7010 -0.9564
19505TIP3    H280007   1.179   4.770   0.400 -1.3862 -0.2030  0.6769
19506TIP3   OH280008   5.464   6.761  12.666  0.0028 -0.1028 -0.0170
19506TIP3    H180009   5.550   6.769  12.625 -0.7077 -0.2539 -1.6448
19506TIP3    H280010   5.413   6.834  12.630  0.2386  1.8154  3.2152
19507TIP3   OH280011   5.044   6.430  11.070 -0.5670 -0.0708  0.5092
19507TIP3    H180012   5.047   6.396  11.159 -1.6980 -0.4752  0.4126
19507TIP3    H280013   5.029   6.524  11.081 -0.0117 -0.0040  0.7434
19508TIP3   OH280014   6.138   1.454  15.124  0.3190 -0.1538  0.4424
19508TIP3    H180015   6.217   1.410  15.092  0.4506  0.4261 -0.0414
19508TIP3    H280016   6.152   1.462  15.218  1.1071  0.4690  0.2840
19509TIP3   OH280017   0.454   2.826  10.631  0.4489  0.3188 -0.3041
19509TIP3    H180018   0.494   2.911  10.615 -1.0964  1.0709 -0.4140
19509TIP3    H280019   0.368   2.846  10.668 -0.0618 -1.1803 -0.5765
19510TIP3   OH280020   1.900   0.478   1.202  0.3287  0.5552  0.2437
19510TIP3    H180021   1.992   0.504   1.204  0.1995  1.0234  2.0083
19510TIP3    H280022   1.890   0.433   1.118  1.6577  2.2704 -0.9273
19511TIP3   OH280023   2.853   1.338  14.783 -0.3403  0.0666 -0.3084
19511TIP3    H180024   2.824   1.288  14.860 -2.2016  0.7272 -0.5195
19511TIP3    H280025   2.832   1.429  14.805  0.5194  0.4454 -1.0114
19512TIP3   OH280026   6.569   5.485   0.329  0.3199  0.1819  0.3201
19512TIP3    H180027   6.484   5.510   0.367  0.1994  0.6154 -0.2133
19512TIP3    H280028   6.613   5.568   0.313  0.2690  0.0250 -0.6934
19513TIP3   OH280029   5.394   0.164   3.622 -0.1490  0.2552 -0.0958
19513TIP3    H180030   5.354   0.133   3.542  0.1470  1.0596 -0.5725
19513TIP3    H280031   5.468   0.105   3.638 -1.0521 -0.7797  0.3864
19514TIP3   OH280032   5.122   5.658  13.596  0.1668  0.1302 -0.1581
19514TIP3    H180033   5.209   5.666  13.557 -0.2736  0.3657 -1.1292
19514TIP3    H280034   5.071   5.609  13.532 -0.4287  0.0206  0.3873
19515TIP3   OH280035   3.248   5.425  15.357  0.0287 -0.0373  0.5798
19515TIP3    H180036   3.168   5.373  15.355  0.8749 -1.3780  0.1805
19515TIP3    H280037   3.237   5.489  15.287 -0.7097 -0.1675  0.5682
19516TIP3   OH280038   2.143   6.287  15.191  0.1626  0.1110 -0.4985
19516TIP3    H180039   2.052   6.306  15.215  0.5011  0.2375  0.7231
19516TIP3    H280040   2.165   6.355  15.127 -0.4298  0.3931 -0.4147
19517TIP3   OH280041   2.029   4.984   4.935 -0.1813  0.9237  0.5391
19517TIP3    H180042   2.124   4.971   4.935 -0.1411  1.0765 -0.7820
19517TIP3    H280043   2.010   5.016   4.847 -1.2591  2.4590  1.2936
19518TIP3   OH280044   6.627   6.219   0.523 -0.3280 -0.7233  0.6676
19518TIP3    H180045   6.554   6.270   0.487 -0.4791 -1.2052  0.2953
19518TIP3    H280046   6.705   6.270   0.500 -0.4965 -0.5209  0.5351
19519TIP3   OH280047   0.704   6.569  16.372  0.1551 -0.2124  0.4041
19519TIP3    H180048   0.683   6.662  16.363 -0.5430 -0.0603  2.9398
19519TIP3    H280049   0.637   6.534  16.431 -0.5194 -2.7248 -1.6420
19520TIP3   OH280050   0.650   1.663  16.729  0.4045  0.0713 -0.0841
19520TIP3    H180051   0.742   1.689  16.733  0.5139 -0.2157 -0.6939
19520TIP3    H280052   0.630   1.633  16.818  1.5069 -1.8867 -0.4417
19521TIP3   OH280053   3.815   3.325   3.878 -0.8365 -0.4586  0.3576
19521TIP3    H180054   3.866   3.390   3.926 -0.3113 -0.7479  0.2031
19521TIP3    H280055   3.724   3.342   3.903 -0.6880  0.2005  0.4764
19522TIP3   OH280056   3.695   6.480  16.803  0.2811  0.0340 -0.2224
19522TIP3    H180057   3.739   6.395  16.809  0.2013  0.0758  1.4523
19522TIP3    H280058   3.711   6.521  16.888 -0.9632  1.0617 -0.4606
19523TIP3   OH280059   1.445   0.993  14.573 -0.8108 -0.4823  0.6801
19523TIP3    H180060   1.384   1.008  14.501  1.1396  0.0069 -0.9935
19523TIP3    H280061   1.487   1.078  14.587 -0.6602 -0.7502  1.9255
19524TIP3   OH280062   0.908   4.628   2.785  0.1082  0.3428  0.0248
19524TIP3    H180063   0.878   4.716   2.808 -1.0007  0.1442 -0.5713
19524TIP3    H280064   1.000   4.626   2.811  0.4316  2.0149 -0.8520
19525TIP3   OH280065   4.906   5.777  11.406 -0.0385  0.1129 -0.5067
19525TIP3    H180066   4.821   5.821  11.413  0.2410  0.4832  0.8601
19525TIP3    H280067   4.968   5.837  11.448  0.8868 -0.2241 -1.3490
19526TIP3   OH280068   5.352   1.150   5.592  0.5063 -0.7688 -0.6681
19526TIP3    H180069   5.412   1.155   5.518  0.9999  0.2566 -0.2221
19526TIP3    H280070   5.406   1.122   5.666  0.0868 -1.4707 -0.6198
19527TIP3   OH280071   2.383   6.178  14.275  0.4660 -0.4213 -0.5232
19527TIP3    H180072   2.304   6.136  14.312 -1.3816  0.6473 -2.9848
19527TIP3    H280073   2.454   6.150  14.333 -1.5103 -2.4281  1.1219
19528TIP3   OH280074   3.684   4.466  12.278  0.2547 -0.1617  0.7128
19528TIP3    H180075   3.636   4.422  12.208  0.0945 -1.3569  1.5430
19528TIP3    H280076   3.759   4.409  12.296  2.4142  1.9614 -0.9732
19529TIP3   OH280077   6.120   3.582  13.012 -0.1437 -0.3372 -0.7202
19529TIP3    H180078   6.025   3.585  13.002 -0.0403  0.9768 -1.4712
19529TIP3    H280079   6.139   3.489  13.023 -1.5375 -0.5966 -0.2090
19530TIP3   OH280080   1.356   5.781   1.601 -0.2752 -0.3858 -0.5986
19530TIP3    H180081   1.322   5.756   1.515 -1.1653  0.4743 -0.5053
19530TIP3    H280082   1.421   5.848   1.581 -1.6645  1.0202 -0.5127
19531TIP3   OH280083   6.721   0.563   3.345 -0.7318  0.1977 -0.5352
19531TIP3    H180084   6.779   0.577   3.270 -2.2311  0.2766 -1.7417
19531TIP3    H280085   6.643   0.616   3.325 -1.2376  0.1044  1.0226
19532TIP3   OH280086   4.462   6.823  11.498  0.2752  0.1429 -0.3117
19532TIP3    H180087   4.479   6.916  11.513 -0.9198  0.2220  0.7322
19532TIP3    H280088   4.544   6.789  11.463  1.2953  1.2510  0.8947
19533TIP3   OH280089   0.136   1.374   2.850 -0.4058  0.8004 -0.0327
19533TIP3    H180090   0.120   1.299   2.908  0.6461  0.5213 -0.0842
19533TIP3    H280091   0.054   1.386   2.802 -0.1299 -1.2804 -1.1248
19534TIP3   OH280092   1.154   4.757  10.536  0.5810  0.1582 -0.2802
19534TIP3    H180093   1.195   4.780  10.619  2.2524  3.0172 -1.7521
19534TIP3    H280094   1.077   4.813  10.531  0.2073 -0.3675 -0.4447
19535TIP3   OH280095   5.400   6.331   4.860  0.2213  0.8417  0.5404
19535TIP3    H180096   5.360   6.360   4.777 -0.9648 -0.7053  0.5411
19535TIP3    H280097   5.457   6.259   4.834 -0.5427  0.0182  1.1217
19536TIP3   OH280098   4.090   4.580  15.281 -0.3326  0.2301  0.2209
19536TIP3    H180099   4.113   4.617  15.196  0.2212  0.5126  0.4841
19536TIP3    H280100   4.131   4.494  15.282 -2.6735 -0.9772 -0.8951
19537TIP3   OH280101   5.448   5.181  11.404 -0.5291 -0.2733 -0.1063
19537TIP3    H180102   5.439   5.201  11.311  2.4289 -0.7684 -0.5924
19537TIP3    H280103   5.413   5.258  11.448 -1.4482  0.2210 -1.6084
19538TIP3   OH280104   3.276   2.131  14.851  0.3537  0.2943  0.6244
19538TIP3    H180105   3.290   2.224  14.871  3.6646  0.6188 -2.1632
19538TIP3    H280106   3.335   2.085  14.911 -1.1661 -0.0799  1.8934
19539TIP3   OH280107   0.513   2.571  13.850  0.4808 -0.5388  0.1999
19539TIP3    H180108   0.597   2.532  13.823  0.9202 -0.8536  1.9047
19539TIP3    H280109   0.502   2.646  13.792  0.4255 -2.1967 -2.0830
19540TIP3   OH280110   0.040   3.686   0.302 -0.0217  0.3427  0.4975
19540TIP3    H180111   0.060   3.648   0.216  0.8974  1.5805  0.1316
19540TIP3    H280112   0.007   3.613   0.354  0.6817 -0.7094 -0.4982
19541TIP3   OH280113   2.644   4.504  16.857 -0.2506 -0.0747  0.6564
19541TIP3    H180114   2.703   4.484  16.929 -0.0307 -0.8968  0.2484
19541TIP3    H280115   2.698   4.551  16.794  0.1563 -1.4492 -0.0347
19542TIP3   OH280116   3.146   3.694   1.502 -0.5954  0.3926  0.3722
19542TIP3    H180117   3.239   3.672   1.494 -0.3102  1.6744 -0.0948
19542TIP3    H280118   3.141   3.748   1.580 -0.7572  1.2272 -0.2007
19543TIP3   OH280119   4.513   4.615   0.789 -0.8304 -0.5438 -0.0792
19543TIP3    H180120   4.518   4.645   0.880  0.4997 -0.3192 -0.2108
19543TIP3    H280121   4.561   4.681   0.739 -2.5242 -0.0531 -1.1237
19544TIP3   OH280122   3.646   0.574  16.456 -0.4415 -0.4457 -0.1862
19544TIP3    H180123   3.556   0.601  16.434 -0.0064 -1.4994 -4.1870
19544TIP3    H280124   3.687   0.559  16.371  3.2040 -1.1989  1.5282
19545TIP3   OH280125   1.017   1.260  13.679  0.5947  0.1285 -0.0348
19545TIP3    H180126   0.931   1.268  13.638  0.3334  1.2386  0.7010
19545TIP3    H280127   1.079   1.259  13.605 -0.0633 -1.6245 -0.6236
19546TIP3   OH280128   3.232   1.993   4.018 -0.8343  0.5152  0.4592
19546TIP3    H180129   3.150   1.991   3.968 -0.3299 -2.6226 -0.4661
19546TIP3    H280130   3.207   1.973   4.108 -1.1432 -0.0231  0.2562
19547TIP3   OH280131   3.335   4.736  15.348 -0.1055  0.2635  0.9929
19547TIP3    H180132   3.377   4.674  15.407  1.2623 -0.3957 -0.5984
19547TIP3    H280133   3.350   4.700  15.260 -0.3288  2.2021  0.1028
19548TIP3   OH280134   3.297   3.329  11.385 -0.0908  0.6896  0.3130
19548TIP3    H180135   3.276   3.247  11.339  0.5843  0.3112  0.6752
19548TIP3    H280136   3.237   3.330  11.460  1.9246 -1.0008  2.0454
19549TIP3   OH280137   6.815   2.255  12.338  0.4830 -0.2638  0.5220
19549TIP3    H180138   6.733   2.248  12.289  0.8985  0.1946 -0.2730
19549TIP3    H280139   6.843   2.165  12.353 -0.3521 -0.4302  1.1355
19550TIP3   OH280140   5.265   6.799  15.381  0.7279 -0.5105  0.2609
19550TIP3    H180141   5.324   6.752  15.441 -0.8489 -2.3713  0.4340
19550TIP3    H280142   5.189   6.742  15.372  0.6176 -0.0331 -3.1011
19551TIP3   OH280143   2.138   0.752   3.954 -0.1967  0.4235  0.0654
19551TIP3    H180144   2.092   0.725   3.875  0.6642  0.7105 -0.5446
19551TIP3    H280145   2.210   0.807   3.923  0.7992 -0.3275  0.9624
19552TIP3   OH280146   3.846   0.209   0.112 -0.3545 -0.2844 -0.6530
19552TIP3    H180147   3.798   0.292   0.108 -1.1314 -0.7045 -0.3285
19552TIP3    H280148   3.828   0.175   0.199  1.9588  0.3524  0.1310
19553TIP3   OH280149   1.942   5.486  16.437  0.7008  0.8925 -0.4892
19553TIP3    H180150   1.863   5.437  16.414  1.9333 -1.3042 -0.3494
19553TIP3    H280151   1.985   5.502  16.353  2.4527 -2.2701 -0.3561
19554TIP3   OH280152   5.334   6.509  14.315 -0.0284  0.1362  0.5962
19554TIP3    H180153   5.250   6.543  14.284  0.7460  1.1641 -0.4592
19554TIP3    H280154   5.390   6.586  14.322  0.8519 -0.5391  1.2511
19555TIP3   OH280155   3.832   1.846   4.996 -0.0906 -0.0275 -0.1792
19555TIP3    H180156   3.792   1.783   5.055  0.7317  0.1278  0.5629
19555TIP3    H280157   3.909   1.800   4.961 -0.3300  0.0355 -0.7949
19556TIP3   OH280158   5.957   1.265  13.638  0.7669  0.2601  0.0676
19556TIP3    H180159   5.987   1.205  13.706  0.3960  0.6241  0.5642
19556TIP3    H280160   5.972   1.352  13.675 -0.2620  0.4561  0.0628
19557TIP3   OH280161   0.607   1.144   5.405 -0.1607  0.4394 -0.1593
19557TIP3    H180162   0.524   1.104   5.377 -0.4398  1.2890 -0.5792
19557TIP3    H280163   0.597   1.156   5.499 -0.5465  0.6073 -0.2197
19558TIP3   OH280164   0.226   5.728   1.172 -0.3683  0.2718  0.4051
19558TIP3    H180165   0.316   5.695   1.169 -0.1098  0.6442  2.4978
19558TIP3    H280166   0.186   5.695   1.092  1.7499  0.4998 -0.8257
19559TIP3   OH280167   5.466   2.380  15.691 -0.1574 -0.1244 -0.0856
19559TIP3    H180168   5.473   2.285  15.697 -1.7057 -0.2817 -0.2925
19559TIP3    H280169   5.476   2.411  15.782 -0.4161 -0.5557  0.0914
19560TIP3   OH280170   4.713   6.286   1.299 -0.2671 -0.1883 -0.2701
19560TIP3    H180171   4.775   6.293   1.227 -0.5862 -0.6656 -0.6056
19560TIP3    H280172   4.763   6.244   1.370  0.6054  2.0154  0.4998
19561TIP3   OH280173   5.010   3.044  14.838 -0.0954  0.0109  0.8738
19561TIP3    H180174   4.959   3.087  14.907  0.6066  4.0098 -0.7974
19561TIP3    H280175   4.952   3.046  14.761  0.7954  0.0135  0.1888
19562TIP3   OH280176   4.616   2.857   4.095 -0.8317  0.0632 -0.3231
19562TIP3    H180177   4.576   2.822   4.174 -1.5457 -0.7495 -1.0230
19562TIP3    H280178   4.590   2.949   4.093 -0.9078  0.0573  0.3138
19563TIP3   OH280179   3.046   4.341  17.022 -0.0323  0.7130  0.6688
19563TIP3    H180180   3.111   4.408  17.045  1.7515 -0.6662 -0.1847
19563TIP3    H280181   3.079   4.301  16.942 -0.9318 -1.3412  1.2646
19564TIP3   OH280182   4.490   2.027  11.854 -0.8462  0.5128 -0.3046
19564TIP3    H180183   4.454   2.016  11.942  1.1062 -1.5381  0.3303
19564TIP3    H280184   4.427   1.984  11.796 -1.4015  0.5637  0.2529
19565TIP3   OH280185   1.177   2.677  14.890  0.6496 -0.3085  0.0913
19565TIP3    H180186   1.155   2.591  14.852 -0.2942  0.7133 -1.8344
19565TIP3    H280187   1.097   2.703  14.936 -0.5739  1.1225 -2.5570
19566TIP3   OH280188   1.642   6.134   3.435 -0.1634 -0.0905  0.0951
19566TIP3    H180189   1.678   6.192   3.368 -1.7241  1.2528  0.3816
19566TIP3    H280190   1.719   6.087   3.469  1.1630  1.8419 -0.0833
19567TIP3   OH280191   0.749   6.486   0.268 -0.2851 -0.2095  0.0414
19567TIP3    H180192   0.727   6.546   0.197  0.0093 -0.7028 -0.4696
19567TIP3    H280193   0.839   6.460   0.251 -0.0781 -0.0282  0.8180
19568TIP3   OH280194   2.783   4.686  13.297 -0.2795  0.0416  0.3405
19568TIP3    H180195   2.863   4.733  13.320 -0.0667 -0.2427  0.1845
19568TIP3    H280196   2.813   4.600  13.268 -0.6440 -0.0796  0.3164
19569TIP3   OH280197   6.135   3.022  12.951  0.3852  0.1782 -0.3249
19569TIP3    H180198   6.053   2.983  12.923  0.0479 -0.5133  1.4920
19569TIP3    H280199   6.203   2.964  12.914 -0.0657 -1.1929  0.8991
19570TIP3   OH280200   5.022   4.639  14.213  0.0964 -0.2594  0.7334
19570TIP3    H180201   5.062   4.552  14.205  1.9033  0.6892 -3.5508
19570TIP3    H280202   5.088   4.692  14.258 -0.1128 -0.6021  1.4586
19571TIP3   OH280203   5.409   4.345   4.519 -0.4240 -0.1811  0.3426
19571TIP3    H180204   5.386   4.412   4.583  0.5901  0.1529  0.3765
19571TIP3    H280205   5.344   4.353   4.450 -1.0026  0.0477  0.9034
19572TIP3   OH280206   3.376   2.095   0.333 -0.2249  0.7156  0.7682
19572TIP3    H180207   3.413   2.067   0.416  0.8198  1.4329  0.5659
19572TIP3    H280208   3.376   2.191   0.337  0.2351  0.7754 -0.2094
19573TIP3   OH280209   5.025   5.737  14.737 -0.0253 -0.2745  0.4107
19573TIP3    H180210   5.002   5.752  14.645 -1.4454 -0.2796  0.7390
19573TIP3    H280211   5.106   5.785  14.749 -0.6501  1.0666 -0.4459
19574TIP3   OH280212   1.735   5.617  11.997 -0.3796 -0.3401 -0.0462
19574TIP3    H180213   1.675   5.674  12.045 -0.0187 -0.4672  0.5543
19574TIP3    H280214   1.815   5.616  12.049  1.1431  1.9212 -2.0841
19575TIP3   OH280215   4.678   6.235  14.044  0.2740  0.1753  0.3567
19575TIP3    H180216   4.616   6.201  13.979  0.3584  0.2835  0.2171
19575TIP3    H280217   4.645   6.322  14.064 -0.2921 -0.2183  1.1791
19576TIP3   OH280218   6.497   4.052  16.536 -0.2729 -0.3853 -0.2846
19576TIP3    H180219   6.541   4.049  16.621  0.1900  0.4864 -0.4829
19576TIP3    H280220   6.406   4.031  16.555  0.0870 -1.5690  0.2248
19577TIP3   OH280221   2.058   0.121  13.197  0.1844  0.2825 -0.0946
19577TIP3    H180222   2.002   0.115  13.275  2.0815 -0.2211  1.2897
19577TIP3    H280223   2.113   0.043  13.201  2.1783  1.6036 -0.4052
19578TIP3   OH280224   6.793   1.731  14.329 -0.2793  0.0714  0.4300
19578TIP3    H180225   6.731   1.727  14.401  0.1567 -1.0115  0.7592
19578TIP3    H280226   6.847   1.653  14.339  0.0929  0.1482 -0.7934
19579TIP3   OH280227   1.809   5.347  15.243  0.3576 -0.7501  0.1460
19579TIP3    H180228   1.770   5.261  15.260 -0.6911  0.0618  2.1922
19579TIP3    H280229   1.735   5.405  15.229  0.9884  0.1598  0.5056
19580TIP3   OH280230   6.457   2.727   1.675 -0.1731  0.1920  0.0080
19580TIP3    H180231   6.470   2.653   1.616  1.6508 -0.5085  1.1776
19580TIP3    H280232   6.362   2.736   1.682 -0.4337 -0.7427 -1.7110
19581TIP3   OH280233   3.461   5.278   2.374 -0.3853 -0.2062 -0.3556
19581TIP3    H180234   3.421   5.363   2.359  1.4009  0.5918 -0.9294
19581TIP3    H280235   3.511   5.261   2.294  1.9959 -0.1664  1.0335
19582TIP3   OH280236   0.951   2.358  10.374 -0.0867 -0.1803  0.0850
19582TIP3    H180237   0.937   2.266  10.398  0.0466 -0.4929 -0.9912
19582TIP3    H280238   0.866   2.388  10.343  0.3958 -0.6586 -1.8277
19583TIP3   OH280239   5.682   4.602   4.940 -0.2050  0.7454  0.3035
19583TIP3    H180240   5.620   4.638   5.003 -0.4666 -0.2269  0.6211
19583TIP3    H280241   5.768   4.613   4.982 -0.4287 -0.4041  1.0928
19584TIP3   OH280242   2.375   6.806  16.885  0.2928  0.4013  0.1911
19584TIP3    H180243   2.364   6.883  16.830 -0.3557  0.8735  0.9587
19584TIP3    H280244   2.401   6.841  16.970 -1.0751 -0.1325  0.8553
19585TIP3   OH280245   1.653   4.788  15.127 -0.0482  0.0245  0.2322
19585TIP3    H180246   1.586   4.820  15.067  0.2355 -1.9474 -1.2343
19585TIP3    H280247   1.609   4.722  15.180  0.3367 -0.1095  0.3870
19586TIP3   OH280248   1.722   1.025   3.919  0.4939  0.0048 -0.2665
19586TIP3    H180249   1.632   0.998   3.900  0.2168  0.9780 -0.4130
19586TIP3    H280250   1.759   0.953   3.969 -0.2579 -0.5645 -0.5150
19587TIP3   OH280251   3.290   1.792   0.595 -0.1673 -0.3405 -0.3894
19587TIP3    H180252   3.266   1.859   0.660  0.3917 -0.3242 -0.1950
19587TIP3    H280253   3.301   1.712   0.647 -2.0381 -0.9032 -0.7653
19588TIP3   OH280254   2.556   6.210  13.550  0.1424  0.6175 -0.0935
19588TIP3    H180255   2.490   6.144  13.531  2.6206 -1.7649 -1.2530
19588TIP3    H280256   2.519   6.292  13.517 -1.4664 -0.9339 -2.4214
19589TIP3   OH280257   5.708   5.376   3.146 -0.2141  0.6873  0.0052
19589TIP3    H180258   5.684   5.297   3.195 -1.3246  1.3379  0.5479
19589TIP3    H280259   5.775   5.347   3.085 -2.5997 -1.3153 -1.8423
19590TIP3   OH280260   0.214   5.399   4.249 -0.7676 -0.5854 -0.2481
19590TIP3    H180261   0.128   5.358   4.246 -0.7324 -0.7371  0.7415
19590TIP3    H280262   0.221   5.435   4.337  0.1093 -0.4069 -0.3809
19591TIP3   OH280263   1.281   6.499   6.097 -0.3351 -0.0071  0.0965
19591TIP3    H180264   1.336   6.423   6.114  1.6565  1.1502 -0.7776
19591TIP3    H280265   1.343   6.573   6.092 -1.5458  0.9730 -3.7869
19592TIP3   OH280266   4.488   6.709  14.681 -0.1801 -0.2207  0.0779
19592TIP3    H180267   4.521   6.725  14.769  1.1938 -0.2018 -0.4185
19592TIP3    H280268   4.457   6.619  14.683 -1.5290  0.2253  0.9636
19593TIP3   OH280269   1.501   4.794  11.079 -0.1138 -0.7563  0.2791
19593TIP3    H180270   1.493   4.884  11.111 -1.3399 -0.5244 -0.5839
19593TIP3    H280271   1.415   4.755  11.096 -0.1096 -1.2652 -0.8003
19594TIP3   OH280272   3.837   1.016   2.542 -0.3077 -0.2221  0.5224
19594TIP3    H180273   3.746   1.001   2.565 -0.6854 -0.8185 -1.1903
19594TIP3    H280274   3.882   0.936   2.567 -0.7029 -0.8478 -0.7086
19595TIP3   OH280275   4.543   3.393  17.237  0.3102  0.3785  0.4258
19595TIP3    H180276   4.520   3.337  17.311 -0.5086 -0.2290 -0.2680
19595TIP3    H280277   4.466   3.390  17.180  0.3665  1.9697  0.2221
19596TIP3   OH280278   4.210   1.370   1.029  0.6656 -0.4209 -0.0956
19596TIP3    H180279   4.253   1.298   1.074 -1.3665 -0.4185  2.0343
19596TIP3    H280280   4.141   1.327   0.978  0.1004 -0.0827  0.3765
19597TIP3   OH280281   2.216   4.859   0.585 -0.1111 -0.3029  0.1456
19597TIP3    H180282   2.238   4.927   0.650 -1.4839  0.8907 -0.5649
19597TIP3    H280283   2.217   4.778   0.635  0.4204  0.3773  1.3076
19598TIP3   OH280284   4.027   2.000  16.669  0.0101  0.8364 -0.2748
19598TIP3    H180285   4.107   1.947  16.658 -0.1975 -0.3238  2.8113
19598TIP3    H280286   4.058   2.081  16.710 -0.3650  0.4108  0.8681
19599TIP3   OH280287   3.345   4.975  15.869  0.2970  0.1732  0.0775
19599TIP3    H180288   3.292   5.052  15.848  0.7389  0.4892  0.0965
19599TIP3    H280289   3.357   4.979  15.963 -0.4521 -0.4353  0.2032
19600TIP3   OH280290   0.155   4.501   4.956  0.6497  0.7933  0.3079
19600TIP3    H180291   0.223   4.468   5.016 -0.6892 -1.2990  0.7949
19600TIP3    H280292   0.100   4.557   5.010  1.1801  1.3799  0.2510
19601TIP3   OH280293   6.218   3.241   3.096  0.5995 -0.6172 -0.2041
19601TIP3    H180294   6.141   3.293   3.119  1.1525  1.0878 -1.8679
19601TIP3    H280295   6.222   3.172   3.162 -2.3515 -0.7845 -0.0987
19602TIP3   OH280296   5.515   4.846  12.114  0.3079 -0.5642 -0.5268
19602TIP3    H180297   5.577   4.782  12.149 -1.1408 -2.3478 -1.0269
19602TIP3    H280298   5.538   4.851  12.021  1.4730  0.9747 -0.1983
19603TIP3   OH280299   4.660   5.758  14.493 -0.7232  0.5517 -0.0254
19603TIP3    H180300   4.626   5.713  14.416 -1.8588  1.9469 -0.3920
19603TIP3    H280301   4.680   5.688  14.555  0.4965 -0.6361 -1.6536
19604TIP3   OH280302   0.155   3.887   0.150  0.0953  0.2046  0.0954
19604TIP3    H180303   0.250   3.897   0.150  0.3226 -1.2305  2.3062
19604TIP3    H280304   0.141   3.793   0.163 -1.6017  0.4963  0.6441
19605TIP3   OH280305   2.082   6.504  11.804 -0.1782 -1.0709  0.3983
19605TIP3    H180306   2.103   6.509  11.711  0.4846 -2.6537  0.4300
19605TIP3    H280307   1.991   6.475  11.806 -0.4945 -0.1437  0.2715
19606TIP3   OH280308   2.740   6.738   2.088  0.1791  0.1458 -0.0723
19606TIP3    H180309   2.809   6.685   2.047  0.0128  0.3607 -0.6386
19606TIP3    H280310   2.773   6.828   2.081 -0.0224  0.2184 -0.0718
19607TIP3   OH280311   2.049   3.873   1.889  0.4185  0.0137  0.0098
19607TIP3    H180312   2.134   3.848   1.927  0.6204 -0.8398 -0.9824
19607TIP3    H280313   2.022   3.798   1.837  1.0849  1.7824 -3.1494
19608TIP3   OH280314   3.344   4.542  11.726  0.8543  0.1195 -0.2795
19608TIP3    H180315   3.399   4.471  11.692  1.8039  0.1715  1.0871
19608TIP3    H280316   3.322   4.514  11.815 -3.6990 -1.2459 -1.5743
19609TIP3   OH280317   0.561   1.414  16.661  0.8188  0.6481  0.2755
19609TIP3    H180318   0.648   1.407  16.700  0.1053  0.5320  1.9190
19609TIP3    H280319   0.515   1.479  16.714  0.1960  1.4383 -1.1771
19610TIP3   OH280320   0.034   2.475  10.895 -0.0870  0.5505 -0.3573
19610TIP3    H180321   0.064   2.546  10.839  0.2977  0.7096  0.0508
19610TIP3    H280322   0.066   2.497  10.982  0.6151 -0.4542 -0.3411
19611TIP3   OH280323   4.835   0.386  11.521  0.2810  0.0817  0.0515
19611TIP3    H180324   4.913   0.433  11.494  0.6110  0.0428  0.9194
19611TIP3    H280325   4.776   0.453  11.556  1.3408 -0.2623  2.6849
19612TIP3   OH280326   2.526   1.168  11.796  0.2224 -0.6402 -0.1629
19612TIP3    H180327   2.516   1.247  11.742 -2.3166 -0.0718  1.0210
19612TIP3    H280328   2.566   1.199  11.877  0.5653 -0.8386 -0.2542
19613TIP3   OH280329   2.021   6.596  15.505  0.3337  0.9599  0.1482
19613TIP3    H180330   1.960   6.529  15.472  0.2195  1.0281  0.2183
19613TIP3    H280331   2.041   6.568  15.595  1.6447  0.0798 -0.3868
19614TIP3   OH280332   0.277   2.260   1.509  0.8965  0.6351  0.0283
19614TIP3    H180333   0.227   2.210   1.444  0.1073  1.3309  0.0865
19614TIP3    H280334   0.298   2.196   1.576 -1.0309  0.5626  0.6377
19615TIP3   OH280335   4.524   1.830  15.982  0.1512  0.0997 -0.1225
19615TIP3    H180336   4.495   1.750  16.026 -1.1532 -0.3169 -1.6269
19615TIP3    H280337   4.593   1.865  16.038  0.4477 -1.8411  0.8220
19616TIP3   OH280338   4.709   5.670   3.327  0.4410  0.0228  0.1310
19616TIP3    H180339   4.784   5.717   3.365  0.0348 -1.4086  2.9928
19616TIP3    H280340   4.733   5.655   3.236  3.1151  0.6223  0.6671
19617TIP3   OH280341   3.713   2.723  14.589 -0.3542  0.7340  0.1075
19617TIP3    H180342   3.688   2.780  14.516  0.7315  1.4543  0.2667
19617TIP3    H280343   3.729   2.638  14.548 -1.6463  0.6124 -0.1860
19618TIP3   OH280344   6.816   1.571  13.214  0.1621 -1.1392  0.2362
19618TIP3    H180345   6.770   1.489  13.196 -0.6343 -0.5844 -0.3572
19618TIP3    H280346   6.860   1.591  13.131 -0.7353 -0.3001 -0.0554
19619TIP3   OH280347   4.130   1.635   3.612  0.1904 -0.4251  0.9706
19619TIP3    H180348   4.163   1.552   3.647  2.5226 -0.3237 -0.7794
19619TIP3    H280349   4.184   1.702   3.653 -0.4962  0.1258  1.0074
19620TIP3   OH280350   4.900   1.761   0.230 -0.2323  0.4601  0.1787
19620TIP3    H180351   4.969   1.695   0.222  0.9194  1.8001 -1.4396
19620TIP3    H280352   4.830   1.730   0.174  0.1542  0.4150 -0.2840
19621TIP3   OH280353   4.697   3.554  15.460  0.4071  0.1940  0.4332
19621TIP3    H180354   4.682   3.646  15.480 -0.3116  0.0054  0.7824
19621TIP3    H280355   4.613   3.522  15.427  0.7294 -0.2643  0.0347
19622TIP3   OH280356   2.301   4.155  11.924 -0.1723  0.4310  0.0565
19622TIP3    H180357   2.302   4.061  11.907  0.9215  0.5389 -0.5374
19622TIP3    H280358   2.210   4.181  11.908 -0.4261 -0.4752 -0.0365
19623TIP3   OH280359   6.311   2.139  15.293 -0.4799  0.1501 -0.1446
19623TIP3    H180360   6.231   2.184  15.320  0.1483  0.4882  1.2953
19623TIP3    H280361   6.343   2.188  15.218 -1.5209  0.1139 -0.6237
19624TIP3   OH280362   3.758   0.880   3.990  0.1518  0.2820 -0.6179
19624TIP3    H180363   3.761   0.917   4.078 -1.0774  0.6497 -0.7147
19624TIP3    H280364   3.849   0.884   3.960  0.2040  2.6783 -0.3948
19625TIP3   OH280365   3.218   4.124  16.492 -0.0510 -0.1940  0.2766
19625TIP3    H180366   3.160   4.049  16.477 -2.4437  1.9011 -2.0680
19625TIP3    H280367   3.281   4.120  16.420 -0.4430  0.2240 -0.0980
19626TIP3   OH280368   2.005   2.926   2.555 -0.1560 -0.4819 -0.1797
19626TIP3    H180369   1.963   2.954   2.474  0.4154  1.7934  0.2231
19626TIP3    H280370   1.937   2.878   2.603 -1.1350 -0.0403 -1.0995
19627TIP3   OH280371   2.697   1.577  16.286 -0.5559 -0.0407  0.0996
19627TIP3    H180372   2.609   1.608  16.265 -0.7870 -1.1448 -0.6452
19627TIP3    H280373   2.748   1.657  16.299 -1.5211  0.6192 -0.0760
19628TIP3   OH280374   5.600   5.107  14.734 -0.4741 -0.1539 -0.2329
19628TIP3    H180375   5.656   5.031  14.715  0.4750  0.2634  0.7723
19628TIP3    H280376   5.559   5.086  14.818 -0.2535  0.3997  0.0200
19629TIP3   OH280377   5.734   5.258   5.793  0.0998 -0.7961  0.1270
19629TIP3    H180378   5.650   5.292   5.762  1.1616  2.8015  0.7613
19629TIP3    H280379   5.724   5.254   5.888  1.2321  1.6792  0.3989
19630TIP3   OH280380   2.014   0.732   2.804  0.5309 -0.2739  0.1080
19630TIP3    H180381   2.015   0.773   2.891  3.0221 -0.1033  0.0470
19630TIP3    H280382   1.935   0.677   2.806  0.6414 -0.4889  2.5769
19631TIP3   OH280383   3.412   6.374  11.088  0.1856 -0.2589 -0.3694
19631TIP3    H180384   3.465   6.324  11.150  0.8369  1.8534  0.8959
19631TIP3    H280385   3.463   6.373  11.006  2.0067  1.2461  0.6565
19632TIP3   OH280386   3.825   2.286  16.587 -0.1707  0.1905 -0.1567
19632TIP3    H180387   3.853   2.266  16.676  0.5301 -0.5445 -0.5343
19632TIP3    H280388   3.853   2.377  16.574  1.2924 -0.2453 -0.2173
19633TIP3   OH280389   5.947   6.083   1.864  0.7249  0.0786  0.8068
19633TIP3    H180390   5.853   6.097   1.857  0.4334 -1.5758  0.8591
19633TIP3    H280391   5.985   6.171   1.866 -0.7619  0.7670  0.1971
19634TIP3   OH280392   0.585   2.121   1.060  0.0190  0.3002  0.1327
19634TIP3    H180393   0.633   2.090   1.137  1.2039 -0.1912 -0.7766
19634TIP3    H280394   0.639   2.190   1.023  1.4585 -1.9965 -2.3912
19635TIP3   OH280395   0.847   0.232  15.985 -0.2737 -0.2320  0.3434
19635TIP3    H180396   0.765   0.218  16.032 -1.0333 -1.2523 -1.2199
19635TIP3    H280397   0.826   0.218  15.893  1.6479 -0.4941 -0.1134
19636TIP3   OH280398   4.706   3.536   4.917  0.1844  0.1179 -0.1336
19636TIP3    H180399   4.670   3.624   4.924  0.3926  0.3561 -1.7693
19636TIP3    H280400   4.648   3.490   4.856  0.3019 -0.7667  0.3977
19637TIP3   OH280401   1.227   5.699   1.344  0.3268  0.5353 -0.2019
19637TIP3    H180402   1.190   5.786   1.335 -0.3259  0.0956 -2.4789
19637TIP3    H280403   1.257   5.676   1.256  1.0440 -1.2892  0.4622
19638TIP3   OH280404   5.152   0.799   2.094 -0.8128  0.3246 -0.1352
19638TIP3    H180405   5.109   0.732   2.041 -0.8869  0.3671 -0.1295
19638TIP3    H280406   5.174   0.754   2.176  0.1933 -0.0148 -0.5732
19639TIP3   OH280407   0.167   4.907  10.332  0.2864  0.0509 -0.0145
19639TIP3    H180408   0.190   4.815  10.339 -0.1582  0.0477  1.7464
19639TIP3    H280409   0.160   4.923  10.237 -0.5739 -1.9497 -0.3301
19640TIP3   OH280410   2.259   5.966  14.396 -0.1221  0.5904  0.2929
19640TIP3    H180411   2.246   5.907  14.322 -1.5871 -0.5377  1.3903
19640TIP3    H280412   2.252   5.910  14.473 -0.0472  1.9601  1.3367
19641TIP3   OH280413   4.864   4.283   6.113 -0.6377  0.7070  0.2452
19641TIP3    H180414   4.942   4.304   6.062 -0.6055 -1.0285 -0.4973
19641TIP3    H280415   4.811   4.227   6.056 -1.4056  0.0908  1.4902
19642TIP3   OH280416   4.836   2.422   2.898 -0.7499 -0.5482 -0.5968
19642TIP3    H180417   4.840   2.517   2.886  1.0173 -0.3116  1.2150
19642TIP3    H280418   4.832   2.410   2.993  0.0372 -2.2868 -0.7396
19643TIP3   OH280419   6.700   4.649   3.740  0.0356  0.5546  0.5804
19643TIP3    H180420   6.706   4.742   3.721  2.8864  0.6601  1.4466
19643TIP3    H280421   6.766   4.609   3.684 -1.1696 -0.9699  0.1988
19644TIP3   OH280422   2.031   1.544  16.115 -0.1154  0.4581  0.4665
19644TIP3    H180423   2.127   1.545  16.119 -0.0508  2.4353 -0.3568
19644TIP3    H280424   2.003   1.550  16.206  0.4624 -1.9777  0.8838
19645TIP3   OH280425   5.818   4.008  12.132  0.3333  0.3423  0.3068
19645TIP3    H180426   5.844   4.094  12.098 -0.6022  0.3140 -0.5396
19645TIP3    H280427   5.749   4.027  12.195  0.7268  0.2640  0.7640
19646TIP3   OH280428   0.238   1.017   1.205 -0.3265  0.1348  0.0414
19646TIP3    H180429   0.245   0.927   1.174  3.1382  0.4143 -0.3628
19646TIP3    H280430   0.150   1.022   1.242 -0.9298 -3.1716 -0.5823
19647TIP3   OH280431   3.065   2.310  16.924  0.5263  0.4879  1.0801
19647TIP3    H180432   3.148   2.262  16.923 -0.3469 -1.0913  1.0834
19647TIP3    H280433   3.030   2.298  16.836 -0.8468 -1.0178  1.7818
19648TIP3   OH280434   2.317   5.154  14.139 -0.7600  0.0821 -0.0403
19648TIP3    H180435   2.338   5.131  14.230 -0.2642 -0.2863 -0.2479
19648TIP3    H280436   2.377   5.225  14.118 -0.5112 -0.1923 -0.2557
19649TIP3   OH280437   1.705   5.759  11.243 -0.4028 -0.0345 -0.3622
19649TIP3    H180438   1.693   5.849  11.213  1.9185  0.9825  1.4344
19649TIP3    H280439   1.660   5.757  11.327 -0.7188 -0.6708 -0.5444
19650TIP3   OH280440   5.739   2.805  11.798 -0.3028  0.1262  0.2259
19650TIP3    H180441   5.831   2.819  11.819 -0.3631  1.3846 -0.2498
19650TIP3    H280442   5.740   2.776  11.706 -0.4391  1.4751 -0.2234
19651TIP3   OH280443   6.715   0.365  12.629 -0.0600 -0.3721 -0.4317
19651TIP3    H180444   6.672   0.319  12.701  0.8975 -1.4448 -0.5123
19651TIP3    H280445   6.659   0.349  12.553  0.1583 -1.2621 -0.4174
19652TIP3   OH280446   6.182   2.826  10.934 -0.2445 -0.0774 -0.2836
19652TIP3    H180447   6.276   2.824  10.950 -0.3109 -2.2265  0.1253
19652TIP3    H280448   6.170   2.898  10.871  1.9342 -0.9568 -1.8318
19653TIP3   OH280449   2.380   1.316  14.555 -0.5570  0.2426 -0.1102
19653TIP3    H180450   2.391   1.226  14.586 -0.7352  0.3452  0.2639
19653TIP3    H280451   2.457   1.333  14.501 -1.9002 -1.1271 -2.6371
19654TIP3   OH280452   2.657   2.090  14.233  0.3543 -0.0319 -0.2278
19654TIP3    H180453   2.742   2.133  14.232  0.2036  0.2688 -0.2389
19654TIP3    H280454   2.677   1.997  14.224  0.6017  0.1792 -2.2762
19655TIP3   OH280455   0.441   0.681   0.692 -0.3899  0.1220 -0.5543
19655TIP3    H180456   0.432   0.768   0.652 -1.0629  0.9771  1.3051
19655TIP3    H280457   0.534   0.661   0.684 -0.1829  1.1221 -0.8568
19656TIP3   OH280458   1.665   3.130  14.871  0.4707 -0.2061  0.0942
19656TIP3    H180459   1.604   3.182  14.923 -1.6644 -1.1046 -1.3372
19656TIP3    H280460   1.683   3.053  14.926 -0.9675 -0.6734 -0.0473
19657TIP3   OH280461   0.875   4.574   0.468 -0.2808  0.3424  0.3022
19657TIP3    H180462   0.781   4.570   0.484 -0.5119  2.1584 -0.3457
19657TIP3    H280463   0.913   4.609   0.549 -0.0666 -0.9873  0.7915
19658TIP3   OH280464   4.766   3.170  14.816 -0.3407 -0.0732 -0.2272
19658TIP3    H180465   4.715   3.129  14.746  1.2275  0.1163 -1.5694
19658TIP3    H280466   4.773   3.261  14.790 -0.7397  0.2651  0.8266
19659TIP3   OH280467   5.139   6.394   1.295  0.7432 -0.1823  0.0336
19659TIP3    H180468   5.226   6.384   1.257  1.2820 -0.9117  1.3830
19659TIP3    H280469   5.139   6.336   1.372 -0.0801  1.5805  1.4529
19660TIP3   OH280470   1.779   2.375   3.647  0.1871 -0.2260 -0.3505
19660TIP3    H180471   1.768   2.423   3.729 -1.3005 -1.8112  0.4664
19660TIP3    H280472   1.691   2.370   3.610  0.3973 -1.6727 -0.7408
19661TIP3   OH280473   3.763   2.681   0.557  0.1983 -0.7200  0.3307
19661TIP3    H180474   3.709   2.605   0.536 -0.6464 -0.3503  1.0852
19661TIP3    H280475   3.828   2.685   0.487 -1.3528 -0.6033 -1.1507
19662TIP3   OH280476   6.123   6.199  14.490 -0.1965  0.4031  0.1397
19662TIP3    H180477   6.040   6.158  14.466 -0.6181  1.3319 -0.0357
19662TIP3    H280478   6.106   6.293  14.482  1.1253  0.5944 -0.7928
19663TIP3   OH280479   4.442   1.622  12.294  0.1404 -0.4231 -0.2292
19663TIP3    H180480   4.527   1.579  12.300  0.9772  0.6424 -2.9608
19663TIP3    H280481   4.460   1.714  12.315 -0.1622 -0.0759 -1.3906
19664TIP3   OH280482   3.329   4.973   2.792  0.3575  0.0459  0.3182
19664TIP3    H180483   3.279   4.894   2.812 -0.7083  0.6497  0.1286
19664TIP3    H280484   3.350   5.010   2.877 -1.9604  1.2523  0.4488
19665TIP3   OH280485   5.167   0.366   0.910  0.2344 -0.1985 -0.0767
19665TIP3    H180486   5.244   0.313   0.928  0.4904 -0.0911 -0.8119
19665TIP3    H280487   5.128   0.326   0.832 -0.4818 -0.2851  0.3185
19666TIP3   OH280488   5.737   5.943  12.611 -0.2051 -0.1719 -0.5047
19666TIP3    H180489   5.796   6.018  12.609  0.5548 -0.7746 -2.0800
19666TIP3    H280490   5.668   5.965  12.550 -0.5409 -0.3241 -0.1853
19667TIP3   OH280491   4.820   2.885   1.383 -0.0356 -0.1606 -0.2107
19667TIP3    H180492   4.732   2.851   1.398  0.3092 -0.6323  0.8340
19667TIP3    H280493   4.833   2.875   1.289 -0.6376 -1.2647 -0.2005
19668TIP3   OH280494   1.766   1.545   5.796 -0.9465  0.3757 -0.0324
19668TIP3    H180495   1.813   1.611   5.744  1.0578 -0.2553  0.9108
19668TIP3    H280496   1.713   1.597   5.856  0.5606  1.1780  0.6631
19669TIP3   OH280497   2.673   4.961  17.168 -0.2697 -0.2777 -0.3168
19669TIP3    H180498   2.589   4.931  17.135  0.5963 -1.2733 -1.7457
19669TIP3    H280499   2.727   4.971  17.090  1.5904 -1.8068  0.6894
19670TIP3   OH280500   2.571   3.303  15.957  0.5913  0.1476  0.2659
19670TIP3    H180501   2.518   3.361  16.011  1.4679  1.0666  0.1698
19670TIP3    H280502   2.540   3.215  15.978 -0.4563  0.6190  0.7460
19671TIP3   OH280503   6.574   0.342  13.383 -0.2937 -0.1873  0.1981
19671TIP3    H180504   6.530   0.302  13.308 -1.6504  0.2427  0.7322
19671TIP3    H280505   6.638   0.401  13.345 -0.3919 -0.5886 -0.6120
19672TIP3   OH280506   1.728   6.782   5.151  0.3164 -0.1873  0.0120
19672TIP3    H180507   1.792   6.735   5.098  1.2424  0.5507  0.4310
19672TIP3    H280508   1.746   6.753   5.241 -0.6398 -0.7488  0.0420
19673TIP3   OH280509   4.562   0.246  11.537  0.3418  0.0332 -0.6151
19673TIP3    H180510   4.652   0.276  11.524 -0.0435  1.4554 -0.2703
19673TIP3    H280511   4.509   0.327  11.531 -0.9753 -0.8474 -1.4565
19674TIP3   OH280512   0.632   3.760  12.118  0.5228  0.0961 -0.5625
19674TIP3    H180513   0.651   3.809  12.198  1.5336 -1.0540 -0.0669
19674TIP3    H280514   0.675   3.811  12.049  1.1813  0.1629 -0.1166
19675TIP3   OH280515   1.007   6.164   1.361  0.1913  0.5957  0.3114
19675TIP3    H180516   0.949   6.240   1.368 -0.4672  0.2316 -0.7929
19675TIP3    H280517   1.095   6.201   1.359 -0.1253  1.3597 -0.3678
19676TIP3   OH280518   4.899   3.803   4.420  0.2103 -0.0110  0.0719
19676TIP3    H180519   4.916   3.732   4.482  0.7440 -0.0736 -0.1373
19676TIP3    H280520   4.813   3.837   4.445 -0.7947 -1.7800 -0.8429
19677TIP3   OH280521   0.615   3.800   5.172 -0.4341 -0.6749 -0.4011
19677TIP3    H180522   0.632   3.766   5.085 -1.8511 -0.7654 -0.6755
19677TIP3    H280523   0.699   3.796   5.217  0.1727 -1.2370 -1.5499
19678TIP3   OH280524   4.063   0.829   0.677  0.5156 -0.7222  0.0688
19678TIP3    H180525   4.136   0.820   0.615  0.5508  0.4969 -0.0997
19678TIP3    H280526   3.988   0.793   0.630  0.1972  1.6309 -1.3969
19679TIP3   OH280527   0.119   3.497  12.571  0.2473 -0.1153 -0.5000
19679TIP3    H180528   0.211   3.493  12.545  0.3771 -1.7001  0.0819
19679TIP3    H280529   0.099   3.408  12.601 -0.7291  0.8267  1.9004
19680TIP3   OH280530   2.315   5.096   5.185  0.0166 -0.1630 -0.1466
19680TIP3    H180531   2.327   5.112   5.091  0.8476 -0.1641 -0.0469
19680TIP3    H280532   2.281   5.179   5.218 -2.8033 -0.9236 -0.8506
19681TIP3   OH280533   3.386   5.910  12.299 -0.3332  0.2568  0.0032
19681TIP3    H180534   3.409   5.973  12.230  1.4186 -0.5101 -0.1345
19681TIP3    H280535   3.413   5.953  12.380  1.0586 -0.3594 -0.1065
19682TIP3   OH280536   6.553   0.137   1.710 -1.1455 -0.4830 -0.5243
19682TIP3    H180537   6.560   0.224   1.671  0.0094 -0.4188 -0.2098
19682TIP3    H280538   6.518   0.153   1.798  3.4222  0.3105  1.4514
19683TIP3   OH280539   0.178   0.217  15.433  0.0582 -0.2093 -0.8677
19683TIP3    H180540   0.115   0.270  15.384 -0.2756 -1.3436 -1.7108
19683TIP3    H280541   0.264   0.251  15.407 -0.1260 -0.5916 -2.0343
19684TIP3   OH280542   1.931   2.409   4.068  0.1130 -0.3429 -0.1518
19684TIP3    H180543   1.881   2.478   4.025  1.6938  0.9534  0.0091
19684TIP3    H280544   2.010   2.400   4.015  1.7483  0.7491  1.9876
19685TIP3   OH280545   1.612   2.942   1.779 -0.5382  0.2404  0.4485
19685TIP3    H180546   1.546   2.962   1.846 -0.7351 -1.3668  0.7583
19685TIP3    H280547   1.567   2.886   1.716  0.5802 -1.1626  0.8371
19686TIP3   OH280548   3.910   2.941  10.818  0.4696 -0.0527  0.3704
19686TIP3    H180549   3.850   3.000  10.864 -0.2644 -0.9891  0.6423
19686TIP3    H280550   3.984   2.997  10.793 -0.7076  1.2272 -0.3610
19687TIP3   OH280551   0.179   3.698  13.953  0.1794  0.3147 -0.1618
19687TIP3    H180552   0.217   3.772  14.001  0.0245 -0.1121  0.6413
19687TIP3    H280553   0.243   3.628  13.965  0.4813  0.4018 -1.1942
19688TIP3   OH280554   4.716   4.518  11.233  0.1292 -0.4446  0.3217
19688TIP3    H180555   4.654   4.555  11.169 -0.2990  1.3501  1.6909
19688TIP3    H280556   4.677   4.538  11.318  2.3148  0.2699  1.2301
19689TIP3   OH280557   6.158   5.672   0.082  0.5470 -0.4951  0.1934
19689TIP3    H180558   6.154   5.581   0.110  1.2061 -0.6860 -0.3187
19689TIP3    H280559   6.077   5.686   0.033  0.6980 -0.9621 -0.1910
19690TIP3   OH280560   2.439   2.975  15.107  0.3893  0.2455  0.4562
19690TIP3    H180561   2.420   3.037  15.037 -1.1756 -0.8802 -0.1892
19690TIP3    H280562   2.460   3.029  15.183  0.3904  1.5215 -0.4208
19691TIP3   OH280563   4.971   0.769   0.555  0.3684  0.0626  0.1319
19691TIP3    H180564   5.052   0.733   0.592  0.0261 -0.2945  0.5486
19691TIP3    H280565   4.982   0.760   0.461  2.0200  2.6311 -0.0076
19692TIP3   OH280566   2.617   4.188  12.217 -0.5069  0.2760  0.0712
19692TIP3    H180567   2.682   4.159  12.154 -0.8342  0.6562 -0.4435
19692TIP3    H280568   2.607   4.281  12.201  0.1020  0.5793  1.3201
19693TIP3   OH280569   3.148   1.089  12.118  0.1991 -0.6590  0.3330
19693TIP3    H180570   3.217   1.129  12.171 -1.5386  0.6770  1.6814
19693TIP3    H280571   3.140   1.000  12.153  0.9305 -0.6909  0.4433
19694TIP3   OH280572   3.549   3.935  12.795 -0.4184  0.0061 -0.1601
19694TIP3    H180573   3.576   3.905  12.708 -1.1403 -1.6306  0.1345
19694TIP3    H280574   3.590   3.873  12.855 -1.9121 -0.3905  0.5005
19695TIP3   OH280575   4.678   2.039  15.067  0.1169  0.5826  0.3440
19695TIP3    H180576   4.684   2.065  15.159  0.5103 -0.0405  0.5014
19695TIP3    H280577   4.585   2.043  15.047  0.2151  2.9698  0.1018
19696TIP3   OH280578   5.293   1.521   4.119 -0.0886 -0.1588 -0.0147
19696TIP3    H180579   5.306   1.431   4.148  1.9071  0.4767  1.3722
19696TIP3    H280580   5.202   1.526   4.093 -0.8694 -2.0217  2.0393
19697TIP3   OH280581   5.948   3.134   5.822  0.0650 -0.2279  0.0873
19697TIP3    H180582   6.017   3.186   5.863 -0.1964 -0.5810  1.0234
19697TIP3    H280583   5.871   3.192   5.822 -0.2527 -0.6072  1.2190
19698TIP3   OH280584   3.270   1.009  16.438 -0.2836 -0.5414 -0.3132
19698TIP3    H180585   3.202   0.998  16.372  0.8968 -0.0162 -1.6533
19698TIP3    H280586   3.279   0.922  16.477 -0.4076 -1.0645 -1.4291
19699TIP3   OH280587   2.538   3.804  12.277 -0.6585  0.0655  0.1157
19699TIP3    H180588   2.626   3.830  12.250 -0.1384 -0.4581  1.2193
19699TIP3    H280589   2.483   3.823  12.202  0.5128 -0.2149 -0.8484
19700TIP3   OH280590   0.397   0.581  15.017 -0.0138  0.6098 -0.8387
19700TIP3    H180591   0.448   0.550  15.092 -1.8517  0.1392  0.2868
19700TIP3    H280592   0.380   0.673  15.037 -3.9211 -0.3724  1.5743
19701TIP3   OH280593   0.159   4.498  16.785  0.7543  0.4713 -0.0735
19701TIP3    H180594   0.120   4.410  16.778 -0.0321  0.6353  1.5811
19701TIP3    H280595   0.232   4.497  16.724 -1.4356 -0.0734 -2.8842
19702TIP3   OH280596   4.946   3.349   3.149  0.4376  0.2195  0.1230
19702TIP3    H180597   4.935   3.281   3.083  3.8778  1.5858 -2.1089
19702TIP3    H280598   5.027   3.327   3.193  1.4394  2.5593 -0.4054
19703TIP3   OH280599   3.058   0.926   0.662 -0.1094  0.2637  0.0764
19703TIP3    H180600   3.059   0.842   0.615 -1.9974  1.4425 -2.2621
19703TIP3    H280601   2.993   0.915   0.732 -2.1175  0.4112 -1.6770
19704TIP3   OH280602   3.792   6.808  16.112 -0.5728 -0.5983 -0.1533
19704TIP3    H180603   3.700   6.802  16.137 -0.3591 -1.5070  0.4854
19704TIP3    H280604   3.823   6.889  16.153 -0.8568 -0.7790  0.4270
19705TIP3   OH280605   6.621   0.673   3.844 -0.3894 -0.0380  0.0890
19705TIP3    H180606   6.655   0.691   3.757 -1.4415 -1.8235 -0.7671
19705TIP3    H280607   6.654   0.586   3.865 -1.5753 -0.3722  0.6831
19706TIP3   OH280608   5.878   4.225  13.425 -0.1483 -0.3000 -0.3113
19706TIP3    H180609   5.890   4.151  13.484  0.2295 -0.1656 -0.2194
19706TIP3    H280610   5.908   4.193  13.340 -0.0829 -0.2852 -0.2934
19707TIP3   OH280611   1.671   3.059   2.830 -0.2851 -0.6282 -0.0793
19707TIP3    H180612   1.748   3.012   2.863  0.1567 -0.9397 -1.4901
19707TIP3    H280613   1.665   3.138   2.885 -0.6126 -1.9284  1.8495
19708TIP3   OH280614   0.219   2.687  16.101  0.3287 -0.0153 -0.1782
19708TIP3    H180615   0.171   2.751  16.050 -0.2194 -0.0006  0.3524
19708TIP3    H280616   0.311   2.704  16.080  0.2284  1.3397  0.4158
19709TIP3   OH280617   0.488   4.068  10.502  0.3282 -0.0662  0.3165
19709TIP3    H180618   0.429   4.143  10.489 -1.1962 -1.5143 -1.8744
19709TIP3    H280619   0.567   4.091  10.452  0.2853  0.5049  0.5072
19710TIP3   OH280620   4.397   5.331   1.313  0.1780 -0.0063 -0.1164
19710TIP3    H180621   4.391   5.252   1.259  0.9386 -0.5887  0.6195
19710TIP3    H280622   4.307   5.348   1.340 -0.2481  0.4450 -1.7544
19711TIP3   OH280623   4.212   3.520  14.838  0.2135 -0.2669  0.4057
19711TIP3    H180624   4.130   3.525  14.889 -0.2658 -0.0688 -0.3651
19711TIP3    H280625   4.255   3.442  14.871 -0.6924 -0.8516  0.2427
19712TIP3   OH280626   5.693   0.939  15.817 -0.3264 -0.0257  0.1171
19712TIP3    H180627   5.651   1.012  15.772 -0.2019  0.5515  0.9048
19712TIP3    H280628   5.663   0.946  15.908  2.3557  1.1942  1.0327
19713TIP3   OH280629   4.125   0.105   2.916  0.2912 -0.0706  0.3925
19713TIP3    H180630   4.153   0.195   2.935  0.1633 -0.2574  1.4919
19713TIP3    H280631   4.075   0.078   2.992 -1.3027 -0.4219 -0.7304
19714TIP3   OH280632   0.689   3.257  12.676 -0.2591  0.1013  0.0415
19714TIP3    H180633   0.758   3.314  12.709  2.1283 -1.5421 -1.7787
19714TIP3    H280634   0.701   3.258  12.581 -2.9441 -0.0887 -0.3671
19715TIP3   OH280635   5.594   5.071  16.468 -0.1923 -0.3087  0.2268
19715TIP3    H180636   5.550   5.057  16.385 -0.8999  1.6240  0.2237
19715TIP3    H280637   5.589   5.165  16.482  1.6994 -0.3457  1.4928
19716TIP3   OH280638   0.506   2.715  10.876 -0.3497 -0.0661 -0.0698
19716TIP3    H180639   0.494   2.623  10.851 -3.1884 -0.4182  1.9475
19716TIP3    H280640   0.523   2.761  10.794 -1.1200 -2.1042 -1.4531
19717TIP3   OH280641   2.395   5.011   3.094  0.5025  0.0291  0.0930
19717TIP3    H180642   2.386   4.969   3.009  0.4567 -2.8361  1.4083
19717TIP3    H280643   2.383   5.105   3.076 -1.5674 -0.6471 -2.7153
19718TIP3   OH280644   4.748   1.450   2.669 -0.0185 -0.0206 -0.2524
19718TIP3    H180645   4.662   1.492   2.662  0.2947  0.4672 -1.2856
19718TIP3    H280646   4.750   1.414   2.758  0.1351  3.1886  1.1891
19719TIP3   OH280647   2.288   0.132  16.512  0.1064  0.4652  0.3724
19719TIP3    H180648   2.347   0.059  16.533  0.8164  0.6678 -0.8488
19719TIP3    H280649   2.278   0.179  16.594 -0.8733 -1.3461  1.3625
19720TIP3   OH280650   5.446   5.738  14.059  0.0070 -0.5241 -0.1800
19720TIP3    H180651   5.430   5.827  14.090 -0.6251 -1.2225  1.6293
19720TIP3    H280652   5.401   5.734  13.974 -2.1944  0.1520  0.8877
19721TIP3   OH280653   0.969   0.583   0.222  0.5898 -0.1781 -0.0812
19721TIP3    H180654   1.063   0.594   0.208  0.6352  1.5508  1.2126
19721TIP3    H280655   0.929   0.659   0.179 -0.1720 -0.5759 -0.0968
19722TIP3   OH280656   4.249   3.130  16.891 -0.9436 -0.2277 -0.3481
19722TIP3    H180657   4.283   3.189  16.959 -1.7654 -0.6653  0.4641
19722TIP3    H280658   4.240   3.046  16.934 -5.5693  0.3910  0.4069
19723TIP3   OH280659   0.136   3.520   4.030  0.2116 -0.1069  0.7227
19723TIP3    H180660   0.121   3.528   4.124  0.2971 -1.4392  0.8554
19723TIP3    H280661   0.207   3.457   4.021 -0.7549 -1.1163 -0.2746
19724TIP3   OH280662   3.390   1.828  12.910 -0.3319 -0.6136 -0.2129
19724TIP3    H180663   3.364   1.744  12.871  0.6370 -1.2379  0.4331
19724TIP3    H280664   3.375   1.892  12.841  0.7403 -1.5973 -1.4290
19725TIP3   OH280665   6.530   0.855   5.865 -1.2366  0.0477 -0.8557
19725TIP3    H180666   6.452   0.813   5.829 -0.4216 -0.8508 -1.6366
19725TIP3    H280667   6.498   0.938   5.900 -2.4464 -0.0291 -1.7036
19726TIP3   OH280668   2.232   6.641  17.259 -0.2399  1.1495  0.1432
19726TIP3    H180669   2.237   6.564  17.315 -1.4994  1.9316  1.4017
19726TIP3    H280670   2.268   6.712  17.312  1.1623  1.4200 -1.0977
19727TIP3   OH280671   4.711   5.813  10.256  0.5586  0.1635 -0.1173
19727TIP3    H180672   4.769   5.874  10.210  0.1638  1.9947  1.6445
19727TIP3    H280673   4.667   5.867  10.322 -1.0338 -1.7441  0.4879
19728TIP3   OH280674   2.385   5.227  13.626 -0.0848 -0.1231  0.3284
19728TIP3    H180675   2.379   5.157  13.562 -0.6211  1.0115 -0.9109
19728TIP3    H280676   2.314   5.208  13.688 -0.2131 -0.6796  0.0217
19729TIP3   OH280677   1.734   4.850  15.773 -0.5001 -0.5910  0.2152
19729TIP3    H180678   1.707   4.762  15.801  0.1211 -0.2933  1.8332
19729TIP3    H280679   1.828   4.853  15.789 -0.5439  0.4319  0.3462
19730TIP3   OH280680   0.084   4.557  12.736 -0.3982 -0.0840 -0.7553
19730TIP3    H180681   0.146   4.625  12.709  1.9292 -1.2125  1.2798
19730TIP3    H280682   0.051   4.521  12.653 -0.2049  2.1729 -1.8842
19731TIP3   OH280683   4.631   4.541  10.795 -0.0268 -0.2263 -0.0914
19731TIP3    H180684   4.633   4.478  10.868 -1.7807  1.8867  1.9238
19731TIP3    H280685   4.706   4.516  10.741  2.0409 -1.3221  2.9637
19732TIP3   OH280686   2.625   4.601   1.025 -0.1421  0.2985  0.1442
19732TIP3    H180687   2.541   4.646   1.022 -0.5135 -0.1264  2.4734
19732TIP3    H280688   2.617   4.538   1.097  1.6447 -0.8462 -0.5856
19733TIP3   OH280689   6.561   0.920   5.181  0.2906 -0.1779 -0.4679
19733TIP3    H180690   6.611   0.854   5.229 -0.9553 -1.0623 -0.3465
19733TIP3    H280691   6.579   1.002   5.226  0.9528 -0.6181  0.0848
19734TIP3   OH280692   1.178   4.266   3.513 -0.5790  0.1138  0.2244
19734TIP3    H180693   1.174   4.177   3.477 -0.4459  0.3843 -0.4734
19734TIP3    H280694   1.157   4.255   3.606 -1.8820 -0.4885 -0.1085
19735TIP3   OH280695   3.341   6.245  14.716  0.0715  0.0815 -0.4833
19735TIP3    H180696   3.322   6.339  14.721 -2.4063 -0.3876  0.2310
19735TIP3    H280697   3.314   6.220  14.628 -1.7711 -0.3817  0.1658
19736TIP3   OH280698   5.236   3.125   4.320 -0.1665  0.2031 -0.0162
19736TIP3    H180699   5.271   3.083   4.241 -2.0172  0.9727 -1.3247
19736TIP3    H280700   5.279   3.211   4.321  1.5619 -0.6157  1.1407
19737TIP3   OH280701   5.278   2.514   0.450  0.1468 -0.6073 -0.3664
19737TIP3    H180702   5.222   2.537   0.524  1.2386 -0.5603  0.4757
19737TIP3    H280703   5.343   2.584   0.446  1.3406 -1.6391 -0.0296
19738TIP3   OH280704   1.358   0.150  15.303 -0.1735  0.4252 -0.5747
19738TIP3    H180705   1.293   0.142  15.233 -0.6622 -0.0159 -0.0721
19738TIP3    H280706   1.315   0.116  15.381  0.7335 -0.0910 -0.2744
19739TIP3   OH280707   3.849   2.942  14.690  1.1846 -0.4585  0.7925
19739TIP3    H180708   3.800   2.942  14.773 -0.4656  2.4152 -0.0655
19739TIP3    H280709   3.829   2.857  14.651  0.4688 -1.1131  2.4774
19740TIP3   OH280710   3.352   0.714  12.229  0.6102 -0.1354  0.2576
19740TIP3    H180711   3.404   0.758  12.297  1.0025 -2.3251  1.4481
19740TIP3    H280712   3.401   0.635  12.209 -0.3452 -0.3381 -1.4398
19741TIP3   OH280713   5.734   4.563  16.298 -0.0873  0.3148 -0.0389
19741TIP3    H180714   5.779   4.500  16.355  0.5134  0.2505 -0.5822
19741TIP3    H280715   5.690   4.622  16.359 -2.0299 -1.5582  0.5220
19742TIP3   OH280716   5.647   2.973   5.247 -0.5107 -0.8198  0.3406
19742TIP3    H180717   5.704   3.049   5.236 -1.1011 -0.3680  0.3628
19742TIP3    H280718   5.705   2.905   5.280 -0.0101 -0.3258  0.5001
19743TIP3   OH280719   2.220   2.218   4.709 -0.0603  0.4452 -0.4999
19743TIP3    H180720   2.251   2.263   4.630  0.3273  0.7987 -0.1470
19743TIP3    H280721   2.124   2.226   4.704 -0.1406 -0.7491 -1.6482
19744TIP3   OH280722   6.795   3.091   0.821  0.1923 -0.0737  0.2725
19744TIP3    H180723   6.703   3.109   0.841 -0.0022  0.1479 -0.7727
19744TIP3    H280724   6.793   3.024   0.753  0.8045 -0.2369  0.4092
19745TIP3   OH280725   5.620   2.420  13.701  0.6849  0.1385 -0.7937
19745TIP3    H180726   5.598   2.368  13.778 -0.9893  1.0685 -0.5845
19745TIP3    H280727   5.581   2.371  13.628  0.5446  0.2656 -0.8034
19746TIP3   OH280728   5.537   5.361  16.213 -0.0026 -0.1485  0.1610
19746TIP3    H180729   5.479   5.403  16.149  0.7965  1.0631  0.1923
19746TIP3    H280730   5.509   5.396  16.297  1.3958  1.2881  0.0877
19747TIP3   OH280731   6.631   3.167  14.393  0.3086 -0.7750  0.3508
19747TIP3    H180732   6.678   3.152  14.311 -0.4567  0.0423 -0.2630
19747TIP3    H280733   6.544   3.129  14.378 -0.7759  1.7257 -0.2667
19748TIP3   OH280734   5.507   6.046  17.197  0.0464 -0.4850 -0.8104
19748TIP3    H180735   5.589   6.085  17.169  1.6184 -2.3020  0.8966
19748TIP3    H280736   5.468   6.010  17.117 -1.2477  3.8038 -2.3745
19749TIP3   OH280737   5.065   1.996   1.148  0.4558  0.1459  0.1885
19749TIP3    H180738   5.106   2.066   1.200  0.4837 -0.8259  1.5338
19749TIP3    H280739   4.977   2.028   1.129  0.8251  0.9932 -0.1429
19750TIP3   OH280740   1.973   3.663   0.230 -0.3016  0.7170 -0.5136
19750TIP3    H180741   2.044   3.634   0.173 -0.7988 -0.5685 -0.5175
19750TIP3    H280742   2.011   3.659   0.318 -0.4879 -0.4784 -0.4611
19751TIP3   OH280743   1.945   5.125   1.985  0.2074  0.2167  0.2520
19751TIP3    H180744   2.014   5.069   2.019  0.1009  0.4686  0.8863
19751TIP3    H280745   1.958   5.124   1.890 -0.7595 -2.1306  0.0770
19752TIP3   OH280746   6.780   4.431   5.194  0.5697 -0.3458 -0.0398
19752TIP3    H180747   6.751   4.483   5.269  0.7013  2.8276 -1.9944
19752TIP3    H280748   6.873   4.414   5.213 -0.1605 -2.6751  2.0162
19753TIP3   OH280749   4.295   1.672   1.424  0.1761 -0.1329  0.2441
19753TIP3    H180750   4.340   1.753   1.401  0.5387 -0.4334 -0.1112
19753TIP3    H280751   4.321   1.609   1.357 -0.3677 -0.4541  0.3276
19754TIP3   OH280752   5.339   2.365   6.055 -0.1515  0.5819 -0.1414
19754TIP3    H180753   5.270   2.375   6.120 -0.0644 -0.5074  0.1378
19754TIP3    H280754   5.411   2.325   6.103  0.3038  0.7738 -0.6635
19755TIP3   OH280755   5.675   0.058   5.238  0.4100  0.1960  0.6877
19755TIP3    H180756   5.761   0.048   5.198 -0.3569  0.6084 -1.1682
19755TIP3    H280757   5.624  -0.016   5.204 -0.6157  1.2395 -0.1345
19756TIP3   OH280758   2.402   3.068  14.549 -0.5288  0.2310 -0.2248
19756TIP3    H180759   2.342   3.075  14.623 -0.9924  0.6942 -0.6343
19756TIP3    H280760   2.465   3.138  14.561  1.2726 -1.5360  1.3557
19757TIP3   OH280761   1.019   0.054   2.464  0.4565 -0.9618  0.3417
19757TIP3    H180762   0.938   0.100   2.443  1.9858  1.0557 -1.5246
19757TIP3    H280763   1.047   0.091   2.547  1.4480  1.3670 -0.9282
19758TIP3   OH280764   5.534   3.402  12.307  0.0289 -0.2623 -0.3232
19758TIP3    H180765   5.625   3.373  12.301 -0.0443 -0.6010  0.1221
19758TIP3    H280766   5.539   3.496  12.326  0.2799 -0.1652 -0.8769
19759TIP3   OH280767   3.296   0.032   0.311 -0.1756 -0.1018 -0.3110
19759TIP3    H180768   3.303  -0.020   0.391 -1.5124 -1.0210 -0.7543
19759TIP3    H280769   3.326  -0.026   0.241  0.2526  0.4306 -0.5774
19760TIP3   OH280770   0.520   2.947   0.203  0.1157 -0.0527  0.0719
19760TIP3    H180771   0.461   2.880   0.236  0.1704  0.1865  0.6751
19760TIP3    H280772   0.587   2.899   0.155  0.5298 -0.4923  1.0627
19761TIP3   OH280773   1.828   5.215  11.595 -0.6810  0.4883 -0.6852
19761TIP3    H180774   1.899   5.266  11.556 -1.2573  1.6657 -0.2372
19761TIP3    H280775   1.787   5.274  11.658 -0.2515 -1.0982  1.2179
19762TIP3   OH280776   5.705   2.290   5.498  0.0354  0.0052 -0.0385
19762TIP3    H180777   5.739   2.209   5.535  2.9427  0.9635 -0.3710
19762TIP3    H280778   5.783   2.341   5.474 -1.6696  2.4144 -0.9316
19763TIP3   OH280779   5.072   5.677   0.233  0.1356  0.6801 -0.1810
19763TIP3    H180780   5.031   5.597   0.266 -0.7624  0.7843 -0.9829
19763TIP3    H280781   5.150   5.689   0.287  0.9786 -1.4102 -0.8143
19764TIP3   OH280782   2.916   3.946   3.704  0.2547  0.0291  0.2048
19764TIP3    H180783   2.896   3.958   3.797 -1.2658  0.5423 -0.1530
19764TIP3    H280784   3.008   3.972   3.695  0.4080  0.0096  1.5509
19765TIP3   OH280785   2.157   6.117   5.357 -0.1055 -0.3674 -0.1847
19765TIP3    H180786   2.229   6.078   5.406  0.4051  0.1052 -0.5474
19765TIP3    H280787   2.187   6.206   5.336 -0.2366 -0.6088 -1.4862
19766TIP3   OH280788   4.020   5.827  14.388 -0.3310  0.1569  0.3425
19766TIP3    H180789   4.101   5.878  14.375  0.2639 -0.8395  0.0765
19766TIP3    H280790   3.975   5.832  14.304 -0.4813  0.5897  0.4458
19767TIP3   OH280791   1.780   1.886   1.344  0.5382 -0.2847  0.2999
19767TIP3    H180792   1.873   1.910   1.343  0.3674  0.4250 -1.0160
19767TIP3    H280793   1.746   1.929   1.422  0.8656  1.4266 -0.4490
19768TIP3   OH280794   0.735   3.543   1.599  0.0404  0.4076  0.4890
19768TIP3    H180795   0.819   3.548   1.646  0.9207 -0.4767 -0.9014
19768TIP3    H280796   0.747   3.470   1.538 -2.0074 -0.1766  0.7291
19769TIP3   OH280797   2.946   2.994   3.223 -0.0673  0.0756  0.0729
19769TIP3    H180798   2.864   3.039   3.244  0.0084 -0.0696  0.7063
19769TIP3    H280799   2.986   3.046   3.154  0.0113  0.9639  0.7783
19770TIP3   OH280800   0.366   5.917  11.770 -0.6840  0.3133  0.1633
19770TIP3    H180801   0.407   5.844  11.723 -1.4045 -0.3438  0.5338
19770TIP3    H280802   0.280   5.927  11.729 -0.4163  1.2713 -0.1896
19771TIP3   OH280803   5.889   4.926   0.108  0.3988  0.3917 -0.5373
19771TIP3    H180804   5.962   4.874   0.075 -0.8743 -1.8824  0.0274
19771TIP3    H280805   5.838   4.948   0.030 -0.4462 -1.5131 -0.5711
19772TIP3   OH280806   3.282   6.038   3.527  0.0260 -0.2223  0.3502
19772TIP3    H180807   3.251   5.961   3.480 -0.7568 -0.0858  0.6268
19772TIP3    H280808   3.214   6.104   3.513  1.0270  0.6674 -0.4921
19773TIP3   OH280809   0.816   6.611   6.092 -0.3498  0.0205 -0.4724
19773TIP3    H180810   0.844   6.630   6.002  2.6940 -2.1334 -0.1415
19773TIP3    H280811   0.743   6.551   6.082  0.2112 -0.5240 -1.5585
19774TIP3   OH280812   6.133   4.283   4.014 -0.1282 -0.2675 -0.4238
19774TIP3    H180813   6.187   4.205   4.029 -0.4041 -1.1418 -3.3832
19774TIP3    H280814   6.043   4.249   4.011 -0.2937  0.2308 -1.2648
19775TIP3   OH280815   6.610   5.141   3.580  0.3635 -0.1635 -0.1296
19775TIP3    H180816   6.646   5.218   3.625  0.2145  0.3228 -0.8243
19775TIP3    H280817   6.556   5.177   3.510 -1.6912 -0.8728  0.9954
19776TIP3   OH280818   4.322   1.281  15.246 -0.2975  0.1114 -0.3004
19776TIP3    H180819   4.305   1.254  15.336 -0.4857  1.7831  0.2115
19776TIP3    H280820   4.235   1.289  15.207 -0.3413  1.2705 -0.0091
19777TIP3   OH280821   6.361   4.071  11.173 -0.1545 -0.1740  0.1728
19777TIP3    H180822   6.382   4.129  11.100 -2.5586 -0.1853 -0.6131
19777TIP3    H280823   6.321   3.994  11.132  0.0605 -0.9782  1.4130
19778TIP3   OH280824   4.600   5.268   1.851 -0.3542 -0.1373  0.0821
19778TIP3    H180825   4.572   5.221   1.930  0.0761 -1.8631 -0.7375
19778TIP3    H280826   4.547   5.229   1.781 -1.1045  1.7334 -0.4321
19779TIP3   OH280827   0.715   3.777   3.959  0.3969  0.0731 -0.4401
19779TIP3    H180828   0.787   3.721   3.989 -1.6306 -1.2836  2.4054
19779TIP3    H280829   0.672   3.725   3.891  1.3856  0.4242 -1.3727
19780TIP3   OH280830   1.213   0.873   3.743  0.0265 -0.5485 -0.5846
19780TIP3    H180831   1.176   0.853   3.657 -0.4640  0.7876 -0.7011
19780TIP3    H280832   1.164   0.949   3.773  0.1252 -1.0592  0.9321
19781TIP3   OH280833   0.281   2.000   0.609  0.2630 -0.1753  0.3441
19781TIP3    H180834   0.277   1.997   0.705  1.1906  0.8455  0.4359
19781TIP3    H280835   0.191   1.983   0.580 -0.6456  2.1974  1.4898
19782TIP3   OH280836   5.797   1.012  10.702 -0.2306  0.2790  0.7444
19782TIP3    H180837   5.809   1.087  10.643 -0.9718  1.0401  1.5281
19782TIP3    H280838   5.706   1.019  10.732 -0.8805 -1.9511 -0.5053
19783TIP3   OH280839   2.211   2.703   5.704 -0.0601  0.3204 -0.5538
19783TIP3    H180840   2.168   2.618   5.696  1.3148 -0.5968  1.0478
19783TIP3    H280841   2.301   2.686   5.677  0.5830  0.8838  1.1067
19784TIP3   OH280842   5.747   1.988   5.591  0.0440 -0.5063  0.0416
19784TIP3    H180843   5.825   1.989   5.647 -0.9873  1.9316  1.5814
19784TIP3    H280844   5.690   1.921   5.629  0.5117 -0.8449  0.1525
19785TIP3   OH280845   4.760   4.585  13.825  0.5453 -0.0230  0.5625
19785TIP3    H180846   4.737   4.657  13.884 -0.9541  0.8276 -0.9685
19785TIP3    H280847   4.697   4.591  13.754  0.2307 -3.0230  0.4629
19786TIP3   OH280848   4.746   5.278  10.920 -0.1636 -0.4902  0.7388
19786TIP3    H180849   4.771   5.186  10.915 -1.0153 -0.8106  1.8319
19786TIP3    H280850   4.655   5.277  10.952 -0.4748  0.7045 -0.0303
19787TIP3   OH280851   5.599   6.821   3.622  0.3790 -0.1718  0.5372
19787TIP3    H180852   5.653   6.759   3.571 -0.3259 -1.8843  1.7642
19787TIP3    H280853   5.636   6.816   3.711 -1.2261 -0.7537  1.2101
19788TIP3   OH280854   3.360   0.412  13.956 -0.2271 -0.0057  0.1937
19788TIP3    H180855   3.324   0.500  13.968 -0.1933 -0.1322  1.2884
19788TIP3    H280856   3.439   0.425  13.903 -0.5202  0.5495 -0.1182
19789TIP3   OH280857   6.716   1.762  14.063  0.2637  0.1317  0.0312
19789TIP3    H180858   6.742   1.744  14.154 -0.0525 -2.5010 -0.3193
19789TIP3    H280859   6.789   1.810  14.026 -0.1706  2.5455  1.9967
19790TIP3   OH280860   1.981   0.148   2.379 -0.9104 -0.2720 -0.2665
19790TIP3    H180861   1.922   0.149   2.455 -2.3338 -0.5943 -1.3304
19790TIP3    H280862   2.007   0.056   2.371 -0.8669 -0.2619 -0.2369
19791TIP3   OH280863   3.175   0.428  13.039 -0.3169 -0.1815 -0.1683
19791TIP3    H180864   3.136   0.366  13.101  2.3821 -1.7186  0.1311
19791TIP3    H280865   3.261   0.392  13.020  2.1825  4.3215  1.3004
19792TIP3   OH280866   2.190   2.519   1.002 -0.1184  0.2052 -0.6044
19792TIP3    H180867   2.255   2.456   1.034 -0.0854  0.8404  0.6478
19792TIP3    H280868   2.239   2.573   0.939  0.2175 -0.1417 -0.6445
19793TIP3   OH280869   6.549   1.904  14.776  0.0434  0.5523  0.5073
19793TIP3    H180870   6.474   1.954  14.743 -0.8665 -0.2769  1.2533
19793TIP3    H280871   6.532   1.892  14.869  0.2911 -0.9934  0.3889
19794TIP3   OH280872   4.843   4.222   3.041  0.0183  0.0706 -0.0169
19794TIP3    H180873   4.870   4.259   2.957  0.9863 -0.9258 -0.1720
19794TIP3    H280874   4.924   4.218   3.093 -0.2514 -0.8429  0.3605
19795TIP3   OH280875   3.216   4.909  13.839 -0.3001  0.1792  1.2357
19795TIP3    H180876   3.176   4.983  13.793 -1.7465 -1.2672  0.0666
19795TIP3    H280877   3.205   4.835  13.779  1.9755 -0.8120  1.9494
19796TIP3   OH280878   1.985   3.314  11.801 -0.7261  0.0394  0.0969
19796TIP3    H180879   2.006   3.366  11.724 -1.0335  0.6876  0.4408
19796TIP3    H280880   2.050   3.340  11.866 -0.8702 -0.0139  0.2648
19797TIP3   OH280881   0.387   3.197  12.101  0.0858 -0.4736 -0.0511
19797TIP3    H180882   0.308   3.144  12.112 -0.4028  0.6501  2.4386
19797TIP3    H280883   0.404   3.235  12.187  2.5818  0.4317 -0.8313
19798TIP3   OH280884   6.160   6.772  13.953  0.0850 -0.0806 -0.3850
19798TIP3    H180885   6.074   6.753  13.991  0.9966 -1.4038  1.1823
19798TIP3    H280886   6.164   6.717  13.875 -0.1423 -0.7414  0.0567
19799TIP3   OH280887   2.216   0.852  13.691 -0.1722 -0.0535 -0.3711
19799TIP3    H180888   2.164   0.894  13.622 -1.6749 -2.6307 -0.9339
19799TIP3    H280889   2.168   0.870  13.772 -0.3277  0.0399 -0.4847
19800TIP3   OH280890   5.808   1.915  16.677  0.3146 -0.3139  0.4339
19800TIP3    H180891   5.880   1.857  16.654  0.7648  0.3869  0.0173
19800TIP3    H280892   5.757   1.866  16.741  1.1896 -0.8073  0.7758
19801TIP3   OH280893   0.105   2.731  12.371 -0.0639 -0.5073  0.2649
19801TIP3    H180894   0.190   2.720  12.414  0.5387  0.2636 -0.6764
19801TIP3    H280895   0.125   2.723  12.277 -1.1806 -1.1599  0.0739
19802TIP3   OH280896   2.949   3.191  15.283 -0.2130 -0.3586 -0.5924
19802TIP3    H180897   3.014   3.231  15.225  1.1305  1.2874  1.8846
19802TIP3    H280898   3.000   3.135  15.342 -1.1011  0.3386  0.8921
19803TIP3   OH280899   6.616   4.454  12.860 -0.1573  0.2589 -1.1039
19803TIP3    H180900   6.643   4.546  12.853 -0.5857  0.3276 -2.0311
19803TIP3    H280901   6.594   4.429  12.770 -2.8103  0.0863 -0.4816
19804TIP3   OH280902   5.353   5.288  11.125  0.0149  0.0808 -0.3456
19804TIP3    H180903   5.338   5.201  11.088 -0.9515  0.4384 -0.8256
19804TIP3    H280904   5.411   5.331  11.063  1.5701 -0.6445  0.5448
19805TIP3   OH280905   1.899   5.572  14.659 -0.1544  0.0229 -0.2804
19805TIP3    H180906   1.846   5.560  14.738 -0.8809 -0.7966 -0.8720
19805TIP3    H280907   1.846   5.627  14.602 -0.4622 -0.9132 -0.9302
19806TIP3   OH280908   2.210   2.581   3.852  0.1113 -0.1658 -0.0433
19806TIP3    H180909   2.209   2.486   3.864  0.7366 -0.0004  1.5613
19806TIP3    H280910   2.200   2.616   3.940 -0.8682  1.2798 -0.6866
19807TIP3   OH280911   6.674   4.374   4.667 -0.3708 -0.0471  0.1592
19807TIP3    H180912   6.636   4.321   4.597  0.2654 -0.9252  0.4617
19807TIP3    H280913   6.603   4.383   4.731 -0.3069 -1.1262  0.4154
19808TIP3   OH280914   6.677   3.328  12.724 -0.2058 -0.4287  0.0431
19808TIP3    H180915   6.767   3.351  12.750  0.3819 -0.6288 -1.6572
19808TIP3    H280916   6.623   3.358  12.797  1.3184 -1.1520  1.5622
19809TIP3   OH280917   0.712   5.373   3.948 -0.5572  0.4403 -0.2671
19809TIP3    H180918   0.771   5.316   3.998 -0.4831 -0.5254 -1.4190
19809TIP3    H280919   0.717   5.458   3.993 -1.6576 -0.7482  2.2563
19810TIP3   OH280920   3.051   6.365  11.977  0.3312 -0.4857  0.2916
19810TIP3    H180921   3.113   6.425  12.020  0.8761 -1.3956  0.8100
19810TIP3    H280922   3.102   6.286  11.960 -0.5548 -1.0586  0.2456
19811TIP3   OH280923   1.646   2.212   1.792  0.0549  0.5217  0.3978
19811TIP3    H180924   1.716   2.272   1.767 -0.0896  2.2485  3.5975
19811TIP3    H280925   1.643   2.217   1.888 -3.6876 -0.3085  0.4829
19812TIP3   OH280926   2.637   1.214   6.300  0.0438  0.2255  0.1890
19812TIP3    H180927   2.717   1.182   6.258  0.1812 -0.1130  0.6981
19812TIP3    H280928   2.645   1.310   6.297  0.2443  0.2005 -0.1793
19813TIP3   OH280929   6.358   2.804  12.072  0.0787  0.0323  0.0376
19813TIP3    H180930   6.380   2.711  12.075 -0.9615 -0.2210  0.3350
19813TIP3    H280931   6.369   2.834  12.163 -1.2635 -0.2360  0.3207
19814TIP3   OH280932   5.905   6.806  15.172  0.1093  0.3964 -0.1435
19814TIP3    H180933   5.901   6.790  15.267 -0.1672 -0.2070 -0.2581
19814TIP3    H280934   5.814   6.822  15.147 -0.0866 -1.3787 -0.6435
19815TIP3   OH280935   0.929   4.335  13.771 -0.1079  0.6425 -0.4094
19815TIP3    H180936   0.910   4.307  13.682 -1.6540 -0.3343  0.1785
19815TIP3    H280937   0.845   4.330  13.816  0.7393  0.5162  1.2581
19816TIP3   OH280938   2.949   4.099   0.952 -0.1770 -0.4629  0.4014
19816TIP3    H180939   2.902   4.053   1.021  0.3973 -0.3148  0.8900
19816TIP3    H280940   2.966   4.032   0.885 -2.1906 -0.2677 -0.3859
19817TIP3   OH280941   5.826   4.435   1.182 -0.3514 -0.0602 -0.2841
19817TIP3    H180942   5.894   4.503   1.176 -1.4013  1.0531 -0.0188
19817TIP3    H280943   5.859   4.363   1.129  2.1187 -0.5183  1.6589
19818TIP3   OH280944   2.409   2.074  16.087  0.4523 -0.1125 -0.3391
19818TIP3    H180945   2.337   2.021  16.053  0.6360 -1.5188  1.3186
19818TIP3    H280946   2.366   2.149  16.128 -0.0165 -0.3631 -0.3592
19819TIP3   OH280947   1.542   2.487   1.603  0.0092 -0.5474 -0.2068
19819TIP3    H180948   1.563   2.416   1.543 -0.4765 -1.3897  0.5821
19819TIP3    H280949   1.627   2.520   1.631  0.2378  0.3104 -1.8508
19820TIP3   OH280950   2.158   1.400  17.161 -0.5140 -0.5292  0.1597
19820TIP3    H180951   2.154   1.494  17.180 -0.1458 -0.1436 -1.4874
19820TIP3    H280952   2.077   1.381  17.115 -0.4837 -0.9818  0.2848
19821TIP3   OH280953   2.352   4.651  15.364  0.1948 -0.0177 -0.6632
19821TIP3    H180954   2.277   4.618  15.415 -0.9451  0.6721 -1.8322
19821TIP3    H280955   2.321   4.651  15.274  1.8899 -0.4258 -1.2867
19822TIP3   OH280956   0.697   3.990  11.161 -0.5029 -0.3236  0.4387
19822TIP3    H180957   0.704   3.897  11.138  2.5481 -0.4478  1.3498
19822TIP3    H280958   0.714   4.036  11.078  1.8894 -0.6943  0.6499
19823TIP3   OH280959   0.585   5.415  12.220 -0.1837  0.7879  0.1332
19823TIP3    H180960   0.610   5.322  12.216 -0.7309  0.6674 -0.6917
19823TIP3    H280961   0.654   5.460  12.172 -0.4846  0.6833 -0.4003
19824TIP3   OH280962   2.144   2.842  16.726 -0.0343  0.3038  0.1076
19824TIP3    H180963   2.238   2.860  16.718 -0.0381  0.0858 -0.4854
19824TIP3    H280964   2.102   2.906  16.668 -0.2534  0.4099  0.3821
19825TIP3   OH280965   6.271   6.519   2.925  0.0355 -0.3532  0.3800
19825TIP3    H180966   6.213   6.517   2.849  0.5063 -0.1111  0.0085
19825TIP3    H280967   6.342   6.459   2.903 -0.3164 -1.0291  1.0426
19826TIP3   OH280968   5.217   6.257   5.360 -0.6696 -0.3913  0.1434
19826TIP3    H180969   5.292   6.266   5.418 -0.0593  2.3894 -0.8940
19826TIP3    H280970   5.254   6.229   5.276 -0.9045  0.0359 -0.1096
19827TIP3   OH280971   5.224   4.005  12.682  0.1529  0.7878 -0.6882
19827TIP3    H180972   5.223   4.033  12.591  1.0717  0.7937 -0.7005
19827TIP3    H280973   5.267   4.076  12.729  0.5092  0.3849 -0.3920
19828TIP3   OH280974   2.111   6.691   2.485 -0.3062  0.0150  0.2484
19828TIP3    H180975   2.023   6.661   2.462 -1.0088  1.0911  1.3829
19828TIP3    H280976   2.124   6.662   2.575 -0.1833  1.2524  0.6596
19829TIP3   OH280977   0.065   1.669   2.050  0.4367 -0.2032 -0.3741
19829TIP3    H180978   0.120   1.744   2.073 -2.4593  2.6475 -1.9282
19829TIP3    H280979   0.008   1.657   2.126 -0.1427  0.2613 -0.7252
19830TIP3   OH280980   3.904   5.041  12.088 -0.2181  0.3095  0.1271
19830TIP3    H180981   3.815   5.043  12.051  0.4000 -1.2668 -1.6058
19830TIP3    H280982   3.926   5.133  12.101 -2.1754  0.7321  0.8207
19831TIP3   OH280983   3.711   4.425  14.380 -0.7538 -0.1228 -0.1271
19831TIP3    H180984   3.671   4.408  14.296 -1.7062  0.7413  0.1267
19831TIP3    H280985   3.795   4.467  14.359 -1.7555  1.7215 -0.6741
19832TIP3   OH280986   6.557   4.103  13.972  0.1202  0.4833 -0.4219
19832TIP3    H180987   6.637   4.055  13.951  1.4713  2.5234 -0.1707
19832TIP3    H280988   6.496   4.078  13.902  1.0922 -0.7769 -0.8737
19833TIP3   OH280989   6.728   0.214   3.612 -0.3203  0.7191 -0.2531
19833TIP3    H180990   6.664   0.246   3.548 -0.8746 -1.7856 -1.0523
19833TIP3    H280991   6.800   0.181   3.559  0.3414  0.8553  0.5434
19834TIP3   OH280992   6.322   2.377   5.960  0.5287  0.0925 -0.2258
19834TIP3    H180993   6.293   2.320   5.889 -0.4590  1.5788 -1.0494
19834TIP3    H280994   6.343   2.460   5.918 -1.1537  1.3821  1.3293
19835TIP3   OH280995   1.537   1.755   1.509 -0.2203 -0.3758  0.2811
19835TIP3    H180996   1.467   1.711   1.559  1.6741 -0.9145  2.6702
19835TIP3    H280997   1.572   1.819   1.570  1.0256  0.2640 -1.0646
19836TIP3   OH280998   3.473   5.292  12.026  0.1586  0.0474  0.3079
19836TIP3    H180999   3.411   5.297  12.099 -1.7836  1.1729 -1.3172
19836TIP3    H281000   3.489   5.383  12.003  2.1510 -0.2413  0.4044
19837TIP3   OH281001   5.264   1.653  15.774  0.1977  0.4041  0.1484
19837TIP3    H181002   5.196   1.615  15.719 -0.8983  1.0444  1.0349
19837TIP3    H281003   5.269   1.594  15.850 -0.3848  1.1196  0.7605
19838TIP3   OH281004   1.926   5.509  15.444  0.0754  0.2784 -0.3316
19838TIP3    H181005   1.891   5.437  15.393  1.7820 -1.2625  0.5569
19838TIP3    H281006   1.897   5.492  15.534  0.5868  0.6296 -0.0892
19839TIP3   OH281007   0.050   1.757  12.850 -0.2137 -0.2004  0.1872
19839TIP3    H181008   0.055   1.823  12.780  1.1167  0.3359  0.7614
19839TIP3    H281009  -0.036   1.771  12.889 -0.4974  0.2886 -0.5749
19840TIP3   OH281010   1.968   4.197  12.429 -0.0188 -0.4395 -0.7232
19840TIP3    H181011   1.946   4.283  12.464  0.2616 -1.1963  1.4604
19840TIP3    H281012   1.996   4.214  12.339  4.1446  2.3831  0.8184
19841TIP3   OH281013   3.933   5.841  16.470  0.4283  0.6167  0.5227
19841TIP3    H181014   3.900   5.928  16.490  1.9071  1.0129  1.3801
19841TIP3    H281015   3.900   5.823  16.381 -1.5287  1.1930  1.0663
19842TIP3   OH281016   4.384   4.564  10.082  0.8103 -0.3767 -0.1387
19842TIP3    H181017   4.472   4.528  10.068  1.3434  0.7907  0.0995
19842TIP3    H281018   4.380   4.641  10.025 -0.2156 -0.6470 -0.4507
19843TIP3   OH281019   5.571   1.325  16.543  0.5401 -0.4586  0.8102
19843TIP3    H181020   5.602   1.407  16.581  0.2387 -0.2771  0.6701
19843TIP3    H281021   5.549   1.347  16.452 -4.7381  0.7549  2.0279
19844TIP3   OH281022   2.121   5.186   6.240  0.2309  0.3094  0.1871
19844TIP3    H181023   2.195   5.244   6.225  0.2202  0.4522  0.6625
19844TIP3    H281024   2.098   5.153   6.153 -0.6641  2.1144 -0.3171
19845TIP3   OH281025   1.626   6.645  10.886  0.0068 -0.3313 -0.6065
19845TIP3    H181026   1.706   6.660  10.936  0.8672 -1.5627 -1.5303
19845TIP3    H281027   1.611   6.728  10.841 -1.0113  0.9332  1.8885
19846TIP3   OH281028   0.717   4.332  15.366 -0.1332 -0.3987 -0.2830
19846TIP3    H181029   0.667   4.398  15.319  0.7178 -0.5164 -1.3778
19846TIP3    H281030   0.722   4.257  15.307 -1.4115 -1.6311  1.0826
19847TIP3   OH281031   2.958   4.098  12.350 -0.6588 -0.3686  0.4670
19847TIP3    H181032   3.029   4.156  12.378 -0.7650  0.2214 -0.4441
19847TIP3    H281033   2.944   4.039  12.425  0.2482  0.0165  0.9565
19848TIP3   OH281034   0.913   1.939   5.093  0.2689 -0.0029  0.0113
19848TIP3    H181035   0.856   2.008   5.127 -0.6207 -0.2166 -0.9804
19848TIP3    H281036   0.980   1.926   5.161 -1.4728 -0.4992  1.6982
19849TIP3   OH281037   6.018   5.773  11.301 -0.3382 -0.5599 -0.0217
19849TIP3    H181038   5.941   5.827  11.282 -0.2648 -0.3363  0.3001
19849TIP3    H281039   6.062   5.819  11.373 -0.1328 -0.9103  0.0782
19850TIP3   OH281040   2.920   2.655   1.820  0.7794  0.0698  0.6586
19850TIP3    H181041   2.827   2.641   1.804  0.4641  0.9104  1.6230
19850TIP3    H281042   2.936   2.745   1.793  1.1428  0.1631  1.1560
19851TIP3   OH281043   6.335   2.263   5.105  0.0467 -0.3597  0.8145
19851TIP3    H181044   6.299   2.188   5.059  0.0992  0.4890 -0.6628
19851TIP3    H281045   6.379   2.314   5.037  1.0953  0.3647  1.9989
19852TIP3   OH281046   5.911   3.249  11.256  0.1212 -0.4962  0.2457
19852TIP3    H181047   5.937   3.298  11.334  0.8069 -1.4531  0.6386
19852TIP3    H281048   5.825   3.285  11.232  0.6849  1.0142  0.3956
19853TIP3   OH281049   6.282   6.212   3.111  0.4463 -0.1187  0.3729
19853TIP3    H181050   6.371   6.221   3.076 -0.3847  0.8762 -1.6188
19853TIP3    H281051   6.261   6.299   3.144  0.2957 -0.4280  1.1091
19854TIP3   OH281052   3.399   0.141  14.061 -0.4114 -0.1147  0.2388
19854TIP3    H181053   3.385   0.228  14.025 -0.3853  0.6146  1.9167
19854TIP3    H281054   3.445   0.156  14.144  1.1305 -1.8206 -0.2262
19855TIP3   OH281055   0.707   4.265   4.132  0.1159  0.1199 -0.2075
19855TIP3    H181056   0.651   4.317   4.189 -1.9837 -0.3726 -1.6961
19855TIP3    H281057   0.756   4.330   4.081  1.3517  0.5567  1.4664
19856TIP3   OH281058   5.771   0.244  16.727  0.1427  0.6642  0.1754
19856TIP3    H181059   5.755   0.223  16.635  1.0568  2.1830 -0.3492
19856TIP3    H281060   5.708   0.189  16.775 -1.5542  1.0987 -1.4302
19857TIP3   OH281061   3.371   5.460   3.664 -0.1005 -0.4162 -0.3216
19857TIP3    H181062   3.456   5.493   3.635 -0.6060  3.6301  2.0634
19857TIP3    H281063   3.381   5.449   3.758 -1.8042 -1.3600 -0.2215
19858TIP3   OH281064   0.580   6.087   4.326 -0.2698  0.3877 -0.6049
19858TIP3    H181065   0.549   6.176   4.316 -1.6397 -0.2333 -2.3009
19858TIP3    H281066   0.505   6.039   4.363  0.2475 -0.1905 -0.2754
19859TIP3   OH281067   3.922   2.172   2.025 -0.7603 -0.3126 -0.5707
19859TIP3    H181068   3.838   2.217   2.026 -0.5184  0.2315  1.5708
19859TIP3    H281069   3.965   2.202   1.945 -1.2529  2.0872 -0.0168
19860TIP3   OH281070   1.195   4.896  12.148 -0.0603 -0.4797 -0.1153
19860TIP3    H181071   1.211   4.862  12.237  1.0490 -0.9840 -0.4869
19860TIP3    H281072   1.194   4.991  12.159  1.2544 -0.4872  0.2848
19861TIP3   OH281073   6.281   5.562  10.683 -0.9888  0.1601 -0.5517
19861TIP3    H181074   6.375   5.580  10.678 -0.9237 -0.1616 -0.4937
19861TIP3    H281075   6.246   5.601  10.604 -0.8000  0.2532 -0.5918
19862TIP3   OH281076   1.029   2.951  13.971  0.3109  0.5841 -0.3350
19862TIP3    H181077   1.078   2.869  13.970  1.0631  0.9314  1.7253
19862TIP3    H281078   1.080   3.011  13.917  0.7402  0.1998 -0.3571
19863TIP3   OH281079   5.315   2.340   1.493  0.0697 -0.2443 -0.2018
19863TIP3    H181080   5.293   2.330   1.586  1.2582 -1.2176  0.0034
19863TIP3    H281081   5.262   2.274   1.449 -1.0791  0.7311 -0.3413
19864TIP3   OH281082   1.454   3.796  11.613  0.0632  0.5013  0.0953
19864TIP3    H181083   1.506   3.759  11.685  1.1423  2.6666  0.5188
19864TIP3    H281084   1.384   3.733  11.599  0.8532 -0.8559  1.8403
19865TIP3   OH281085   6.319   0.805  16.856 -0.4217  0.3192  0.1397
19865TIP3    H181086   6.260   0.826  16.784  1.1287  0.5429 -1.1089
19865TIP3    H281087   6.406   0.825  16.823  0.3153  0.8940  2.2624
19866TIP3   OH281088   2.897   1.816  12.318 -0.1447  0.3801 -0.2121
19866TIP3    H181089   2.987   1.808  12.350  0.4032  0.5482 -1.6636
19866TIP3    H281090   2.905   1.819  12.223 -1.7301 -0.0579 -0.3822
19867TIP3   OH281091   0.059   2.937  12.995  0.4787 -0.4145  0.5857
19867TIP3    H181092   0.121   2.987  13.048  1.2986  0.4748 -1.1392
19867TIP3    H281093   0.092   2.945  12.906 -0.5039 -2.3841 -0.0134
19868TIP3   OH281094   1.495   2.783  12.002 -0.1954 -0.0290  0.3670
19868TIP3    H181095   1.503   2.858  12.062  1.6044  0.2868 -0.2011
19868TIP3    H281096   1.518   2.708  12.056  0.4529  0.1411  0.3421
19869TIP3   OH281097   1.592   1.993  13.097  0.6387 -0.0649 -0.3191
19869TIP3    H181098   1.618   1.987  13.005 -1.5573 -0.4903 -0.9474
19869TIP3    H281099   1.498   2.008  13.095  0.5434 -0.0616  1.8816
19870TIP3   OH281100   0.316   4.152   0.258  0.2693  0.4506 -0.1863
19870TIP3    H181101   0.371   4.112   0.190 -0.5776  1.4673 -1.4918
19870TIP3    H281102   0.365   4.230   0.285  0.0836  0.6520 -0.4286
19871TIP3   OH281103   0.945   4.553  11.717  0.2284  0.5347 -0.1099
19871TIP3    H181104   0.977   4.476  11.764  1.2148  1.2031  0.3465
19871TIP3    H281105   0.994   4.554  11.635  1.4672  1.5921  0.6143
19872TIP3   OH281106   6.595   3.183  16.341  0.1656  0.4553 -0.1010
19872TIP3    H181107   6.541   3.103  16.345  0.1821  0.4521  0.1000
19872TIP3    H281108   6.599   3.204  16.248  0.6551 -0.1156 -0.2168
19873TIP3   OH281109   0.979   4.221  16.927  0.2009 -0.2795 -0.7272
19873TIP3    H181110   0.922   4.202  16.852  1.2820 -0.5679 -1.4904
19873TIP3    H281111   0.933   4.291  16.974 -0.5697 -0.1960 -1.5693
19874TIP3   OH281112   0.971   6.395  15.682 -0.6252  0.2983 -0.2858
19874TIP3    H181113   0.985   6.486  15.707 -1.0826 -0.1028  1.6014
19874TIP3    H281114   1.058   6.355  15.687 -0.6925  0.2496  0.6368
19875TIP3   OH281115   6.615   5.537  16.197  0.2671 -0.6782 -0.0115
19875TIP3    H181116   6.602   5.614  16.252  0.3337 -1.3827  1.0261
19875TIP3    H281117   6.683   5.563  16.135 -1.3272  0.8606 -1.2114
19876TIP3   OH281118   5.737   4.861   0.333 -0.6112  0.1249  0.4470
19876TIP3    H181119   5.705   4.911   0.408 -0.0868  1.5427 -0.2404
19876TIP3    H281120   5.813   4.910   0.302 -0.1946 -1.0076 -0.3827
19877TIP3   OH281121   2.630   6.454  10.983  0.3775 -0.4443  0.0104
19877TIP3    H181122   2.687   6.528  10.964  0.0889 -0.1385  0.3106
19877TIP3    H281123   2.610   6.416  10.897 -1.2434  1.1689 -0.3735
19878TIP3   OH281124   3.325   0.178   3.054 -0.1416  0.3638 -0.1204
19878TIP3    H181125   3.289   0.259   3.091 -1.6835 -0.6157  0.6403
19878TIP3    H281126   3.347   0.124   3.130  1.8148  0.4110 -0.5929
19879TIP3   OH281127   0.233   3.103  11.660  0.4505  0.0829  0.7099
19879TIP3    H181128   0.263   3.176  11.715 -1.4128  0.6365  1.0543
19879TIP3    H281129   0.142   3.089  11.686 -0.1617 -0.3626 -1.4652
19880TIP3   OH281130   0.858   4.407  11.380  0.1961  0.1646 -0.5098
19880TIP3    H181131   0.866   4.493  11.421  1.1172  0.6157 -1.5836
19880TIP3    H281132   0.821   4.351  11.449 -0.0683  1.3238  0.3167
19881TIP3   OH281133   0.197   0.178  13.832 -0.1022 -0.0328  0.2012
19881TIP3    H181134   0.217   0.218  13.917  1.5938 -0.1614 -0.1017
19881TIP3    H281135   0.217   0.085  13.844  0.5835  0.0224 -0.4562
19882TIP3   OH281136   5.802   3.330   0.895  0.4648  0.0039  0.0904
19882TIP3    H181137   5.887   3.371   0.874  0.8020 -1.2131 -1.1014
19882TIP3    H281138   5.776   3.288   0.813 -1.7659  1.1315  0.1772
19883TIP3   OH281139   3.135   3.199   4.174 -0.3365 -0.5906  0.5050
19883TIP3    H181140   3.206   3.141   4.145 -0.2948 -0.8516  1.1082
19883TIP3    H281141   3.151   3.281   4.127 -0.3483 -1.0322 -0.2999
19884TIP3   OH281142   5.482   4.787  14.250  0.5192 -0.3156  0.4125
19884TIP3    H181143   5.528   4.870  14.264 -0.0952 -0.0145  0.6758
19884TIP3    H281144   5.508   4.733  14.324  0.3423 -0.0987  0.6333
19885TIP3   OH281145   0.439   4.857   0.595 -0.6335  0.0260  0.3662
19885TIP3    H181146   0.408   4.930   0.648 -2.4655 -1.0189  0.8011
19885TIP3    H281147   0.377   4.852   0.522 -2.2480 -2.7103  1.7567
19886TIP3   OH281148   5.422   3.011   4.087  0.2163  0.0464 -0.0915
19886TIP3    H181149   5.507   2.972   4.106  0.0129  0.0447  0.9181
19886TIP3    H281150   5.442   3.091   4.039  0.8384  0.4322  0.7888
19887TIP3   OH281151   6.398   5.057   1.267  1.0052 -0.5372 -0.3345
19887TIP3    H181152   6.413   5.003   1.189 -0.0487 -2.0024  0.4257
19887TIP3    H281153   6.387   4.993   1.338 -0.4466  0.6750  0.5813
19888TIP3   OH281154   3.840   2.879   3.473 -1.2592  0.3654  0.3868
19888TIP3    H181155   3.885   2.958   3.503 -1.2963  0.9110 -0.9382
19888TIP3    H281156   3.911   2.819   3.449 -1.1287 -1.0356  3.6628
19889TIP3   OH281157   4.551   1.669  12.998  0.0485 -0.2529  0.0712
19889TIP3    H181158   4.613   1.735  13.029  1.6194 -0.5008 -2.3332
19889TIP3    H281159   4.582   1.587  13.035  0.5847 -0.2296 -0.3198
19890TIP3   OH281160   1.391   1.722   2.646  0.1210 -0.0474 -0.0379
19890TIP3    H181161   1.351   1.635   2.651  1.5296 -0.6655  2.5226
19890TIP3    H281162   1.476   1.707   2.605 -0.4759  0.5482 -1.5712
19891TIP3   OH281163   3.203   3.252   4.430 -0.7310 -0.1239  0.1196
19891TIP3    H181164   3.152   3.323   4.468 -1.0370  0.1757 -0.8457
19891TIP3    H281165   3.166   3.238   4.343  0.2904 -0.4569 -0.2796
19892TIP3   OH281166   0.812   4.082   5.962 -0.3217  0.2591 -0.5116
19892TIP3    H181167   0.842   3.994   5.987  1.3400  0.7566 -0.6052
19892TIP3    H281168   0.751   4.067   5.889  1.7656 -0.7445 -2.1776
19893TIP3   OH281169   2.010   3.691  11.896  0.2276  0.0635  0.4553
19893TIP3    H181170   1.962   3.725  11.820  0.9444 -0.1506 -0.1134
19893TIP3    H281171   2.102   3.694  11.868  0.4549 -0.5110  1.1270
19894TIP3   OH281172   5.832   2.828   2.420  0.5254 -0.4375 -0.0114
19894TIP3    H181173   5.813   2.922   2.411 -0.4840 -0.4082  1.8394
19894TIP3    H281174   5.904   2.812   2.359 -0.8963  0.9883 -2.2137
19895TIP3   OH281175   1.887   0.055  13.515 -0.3251 -0.0627  0.3112
19895TIP3    H181176   1.980   0.053  13.536 -0.4917  0.1859  1.0937
19895TIP3    H281177   1.846  -0.003  13.579 -1.1736  2.7549  2.5331
19896TIP3   OH281178   4.916   3.912  12.594 -0.1250 -0.1570  0.0217
19896TIP3    H181179   4.892   3.967  12.520 -1.1031  0.0311  0.4643
19896TIP3    H281180   4.935   3.973  12.665 -0.5362 -0.3577  0.3123
19897TIP3   OH281181   1.996   5.189  10.339 -0.5075 -0.5375  0.0613
19897TIP3    H181182   1.963   5.100  10.332 -2.7683  0.2622 -0.1289
19897TIP3    H281183   2.091   5.179  10.345 -0.5455 -2.8381 -1.8878
19898TIP3   OH281184   1.464   2.065  12.144  0.4557 -0.1866 -0.0258
19898TIP3    H181185   1.417   1.983  12.160  0.7742 -0.0719  1.6820
19898TIP3    H281186   1.446   2.118  12.222  3.0830 -0.0046  0.5397
19899TIP3   OH281187   0.014   4.075   3.467  0.3139 -0.5046  0.0783
19899TIP3    H181188   0.031   4.135   3.393 -1.1448 -0.6089 -0.3573
19899TIP3    H281189   0.008   4.133   3.543 -2.0095  0.0859 -0.4688
19900TIP3   OH281190   3.109   3.275   1.238 -0.0792 -0.6164 -0.2205
19900TIP3    H181191   3.192   3.247   1.275 -0.7011 -1.0945  0.8858
19900TIP3    H281192   3.075   3.197   1.194 -0.1532 -0.5592 -0.2658
19901TIP3   OH281193   6.665   0.589  15.707  0.0184  0.3120  0.2662
19901TIP3    H181194   6.666   0.495  15.725 -0.0227  0.2595  0.0038
19901TIP3    H281195   6.646   0.630  15.791  1.9977  0.1886  0.8158
19902TIP3   OH281196   2.620   5.381  13.618 -0.0949  0.1048  0.0239
19902TIP3    H181197   2.543   5.331  13.643 -0.1042  0.0489 -0.1161
19902TIP3    H281198   2.591   5.436  13.545 -0.0610  0.2458  0.1172
19903TIP3   OH281199   1.647   2.833  14.539  0.1416 -0.2159 -0.1814
19903TIP3    H181200   1.706   2.897  14.500  0.9491 -0.1347  1.1249
19903TIP3    H281201   1.592   2.804  14.466 -0.1068  1.7783 -0.8498
19904TIP3   OH281202   5.125   1.813   6.146 -0.3517 -0.1780  0.0113
19904TIP3    H181203   5.053   1.753   6.127  0.9944 -2.0178  0.5190
19904TIP3    H281204   5.183   1.805   6.071  0.1787 -0.0251  0.4016
19905TIP3   OH281205   6.756   6.701   4.369 -0.0712  0.4759 -0.2221
19905TIP3    H181206   6.818   6.766   4.337  0.1983 -0.4786 -1.7478
19905TIP3    H281207   6.670   6.733   4.340 -0.1995  1.2763  0.9986
19906TIP3   OH281208   4.487   5.645   4.632 -0.2247  0.3319 -0.1230
19906TIP3    H181209   4.515   5.591   4.706 -2.4745  1.4587  1.6430
19906TIP3    H281210   4.423   5.590   4.586 -0.3893  0.4229 -0.0021
19907TIP3   OH281211   0.900   3.057   3.939  0.4396 -0.2741  1.0051
19907TIP3    H181212   0.934   3.140   3.905  0.9377 -0.4683  1.0276
19907TIP3    H281213   0.832   3.082   4.001 -1.3484  0.1033 -0.9691
19908TIP3   OH281214   5.978   3.207  11.692  0.9681 -0.3329 -0.9102
19908TIP3    H181215   6.004   3.298  11.683  1.0225 -0.1849  0.4629
19908TIP3    H281216   6.055   3.157  11.665  0.7144  0.0054 -2.2957
19909TIP3   OH281217   6.459   4.309  11.968 -0.3320 -0.1492 -0.3412
19909TIP3    H181218   6.490   4.297  11.878  1.6376  2.3112 -0.1126
19909TIP3    H281219   6.405   4.388  11.965 -0.1632  0.0192  0.6254
19910TIP3   OH281220   4.250   4.304   3.783 -0.0544 -0.5493  0.5027
19910TIP3    H181221   4.196   4.382   3.766  0.6434 -0.0229  0.6351
19910TIP3    H281222   4.280   4.315   3.873  1.1408 -0.2814  0.0878
19911TIP3   OH281223   5.351   4.301  11.358 -0.1349 -0.6144 -0.0026
19911TIP3    H181224   5.309   4.347  11.285 -0.8025 -1.4665 -0.1714
19911TIP3    H281225   5.278   4.269  11.412  0.3101 -1.2382  0.2465
19912TIP3   OH281226   2.674   6.723   1.454 -0.1785  0.2044 -0.1658
19912TIP3    H181227   2.743   6.698   1.393 -0.1121 -1.6195  0.5928
19912TIP3    H281228   2.717   6.783   1.516  0.5373 -0.3538 -0.1194
19913TIP3   OH281229   2.075   2.927   1.103  0.8455  0.0348 -0.1597
19913TIP3    H181230   1.987   2.898   1.080  0.7858  0.2285 -0.1774
19913TIP3    H281231   2.098   2.990   1.035  1.3493 -0.6651 -0.6555
19914TIP3   OH281232   1.529   4.923   0.245  0.1036 -0.1597 -0.3145
19914TIP3    H181233   1.530   5.006   0.292 -2.2845 -0.4855  0.4491
19914TIP3    H281234   1.514   4.857   0.313 -2.2673 -0.7530 -1.2869
19915TIP3   OH281235   0.371   3.332   2.913  0.0572  0.1386  0.0559
19915TIP3    H181236   0.422   3.405   2.948  0.9639 -0.2540 -0.4179
19915TIP3    H281237   0.290   3.372   2.881  1.1590  1.1799 -1.5732
19916TIP3   OH281238   2.232   6.177  12.669 -0.0268 -0.0425 -0.7927
19916TIP3    H181239   2.197   6.088  12.673 -0.2167  0.0540 -0.1490
19916TIP3    H281240   2.237   6.197  12.576  1.1703 -1.1811 -1.0058
19917TIP3   OH281241   6.295   2.143  16.683  0.7785  0.2613 -0.3851
19917TIP3    H181242   6.235   2.161  16.610  2.2548  1.1069 -1.4501
19917TIP3    H281243   6.377   2.185  16.657  1.3950  0.4693  1.7300
19918TIP3   OH281244   0.017   3.914   1.963 -0.2426 -0.0182 -0.2411
19918TIP3    H181245   0.022   3.823   1.994  3.5020  0.5748  1.4029
19918TIP3    H281246   0.039   3.909   1.870  0.1645 -0.7748 -0.1106
19919TIP3   OH281247   1.039   0.735   0.559  0.2508 -0.5274  0.8035
19919TIP3    H181248   1.092   0.744   0.638  0.6672  1.0276  0.3758
19919TIP3    H281249   1.090   0.780   0.491 -0.8103 -0.5230 -0.0134
19920TIP3   OH281250   2.222   2.381   2.876 -0.3867 -0.0875 -0.0182
19920TIP3    H181251   2.253   2.355   2.790 -2.6457 -0.1372 -0.8777
19920TIP3    H281252   2.192   2.300   2.917  1.7253 -0.2704  1.3765
19921TIP3   OH281253   2.008   0.864   2.081 -0.4443 -0.5702  0.2991
19921TIP3    H181254   2.037   0.834   2.167  1.2407 -2.3884 -0.8244
19921TIP3    H281255   2.088   0.865   2.028 -1.3687  0.9235 -1.1472
19922TIP3   OH281256   2.820   5.638   5.938 -0.1065  0.1678  0.3112
19922TIP3    H181257   2.774   5.706   5.988  1.6892 -0.1145  2.5117
19922TIP3    H281258   2.760   5.564   5.938 -0.4067  0.3784  1.5924
19923TIP3   OH281259   0.143   2.762  11.711  0.1745 -0.1009 -0.3634
19923TIP3    H181260   0.231   2.788  11.739 -0.4502  0.5876  1.0432
19923TIP3    H281261   0.143   2.666  11.720  1.0480 -0.2028 -1.2482
19924TIP3   OH281262   6.776   4.842  16.011 -0.0947 -0.3693  0.5582
19924TIP3    H181263   6.811   4.926  15.980  0.6248 -0.9858 -0.3100
19924TIP3    H281264   6.693   4.832  15.964 -1.0595  0.6639  1.9562
19925TIP3   OH281265   2.321   4.262  13.998 -0.2558 -0.7248  0.0109
19925TIP3    H181266   2.355   4.334  13.944 -0.4415 -1.7357 -1.5014
19925TIP3    H281267   2.253   4.223  13.944 -0.8058 -1.4599  1.2161
19926TIP3   OH281268   1.790   2.759   0.298 -0.3407 -0.1091 -0.1975
19926TIP3    H181269   1.793   2.740   0.205 -0.9548  0.9673 -0.4564
19926TIP3    H281270   1.881   2.771   0.324 -0.2192  0.3214 -0.8162
19927TIP3   OH281271   3.689   0.613  13.886 -0.5313  0.7884  0.3439
19927TIP3    H181272   3.649   0.630  13.971 -0.4963 -0.3024  0.5985
19927TIP3    H281273   3.638   0.540  13.850  0.9638 -0.3737  0.5044
19928TIP3   OH281274   3.293   4.420  15.275  0.5833 -0.0711  0.3035
19928TIP3    H181275   3.286   4.329  15.301 -0.5160  0.5407  2.3396
19928TIP3    H281276   3.316   4.417  15.182 -0.9064 -2.4235 -0.0631
19929TIP3   OH281277   0.175   3.485   4.334  0.4452 -0.1450 -0.6259
19929TIP3    H181278   0.222   3.561   4.367 -0.0744 -0.1546  0.1581
19929TIP3    H281279   0.237   3.413   4.341 -0.2156 -0.5522  2.1748
19930TIP3   OH281280   2.504   2.974   1.537 -0.0849 -0.2779 -0.4964
19930TIP3    H181281   2.445   2.980   1.463 -1.1079 -0.6266  0.2650
19930TIP3    H281282   2.485   3.052   1.590  2.3368  1.3049 -1.7486
19931TIP3   OH281283   0.588   1.294   5.647  0.1319 -0.1053  0.4199
19931TIP3    H181284   0.533   1.292   5.726 -0.4056 -1.0038  0.0427
19931TIP3    H281285   0.677   1.281   5.679 -0.1871 -1.4983  0.8084
19932TIP3   OH281286   1.340   1.381   2.370 -0.5290 -0.5197  0.1159
19932TIP3    H181287   1.302   1.460   2.332  0.0601 -0.2901 -0.0149
19932TIP3    H281288   1.297   1.309   2.325  0.4420 -0.2590 -1.3109
19933TIP3   OH281289   3.590   5.389  10.887  0.0731  0.0678 -0.1446
19933TIP3    H181290   3.658   5.454  10.869  2.4254 -1.7262  1.6213
19933TIP3    H281291   3.539   5.427  10.959 -0.5002  1.1918 -1.1088
19934TIP3   OH281292   4.360   2.050   1.515  0.2491  0.1695  0.6928
19934TIP3    H181293   4.371   2.022   1.424  0.9561  1.4146  0.3729
19934TIP3    H281294   4.266   2.063   1.526  0.1692  0.0709  0.1348
19935TIP3   OH281295   6.744   4.244  14.492  0.0296 -0.1104  0.3510
19935TIP3    H181296   6.823   4.251  14.545  0.7432 -0.5329 -0.6287
19935TIP3    H281297   6.760   4.169  14.435  0.0594  1.3494 -1.6821
19936TIP3   OH281298   0.406   5.956   3.596  0.0128 -0.0006 -0.3453
19936TIP3    H181299   0.374   5.976   3.508  1.2282 -0.0014 -0.7973
19936TIP3    H281300   0.413   5.860   3.597 -0.4217 -0.0328 -0.0889
19937TIP3   OH281301   2.472   4.775  15.584 -0.0250 -0.0119 -0.0568
19937TIP3    H181302   2.440   4.728  15.507 -1.4689  0.1185  0.4179
19937TIP3    H281303   2.484   4.707  15.650  1.1565 -0.1165 -0.3572
19938TIP3   OH281304   1.125   6.032   0.758 -0.7775 -0.1359 -0.0796
19938TIP3    H181305   1.124   6.124   0.784 -1.5893 -0.2370  0.2756
19938TIP3    H281306   1.203   6.023   0.704 -0.5394  0.6968  0.1169
19939TIP3   OH281307   3.899   3.073  14.337 -0.0910  0.0937  0.3021
19939TIP3    H181308   3.951   3.125  14.398  1.3863 -1.0413  0.0623
19939TIP3    H281309   3.900   2.985  14.374  0.2760 -0.4726 -0.9976
19940TIP3   OH281310   2.786   3.279   0.262 -0.2671  0.3013 -0.1304
19940TIP3    H181311   2.878   3.277   0.287  0.5568  0.7064 -2.7648
19940TIP3    H281312   2.746   3.207   0.310  1.2366  0.5596  1.6271
19941TIP3   OH281313   6.344   0.106  14.531 -0.8217  1.0302  0.3856
19941TIP3    H181314   6.276   0.123  14.596 -1.2344 -2.5310  1.0704
19941TIP3    H281315   6.410   0.056  14.578  0.5954  1.3969 -1.1301
19942TIP3   OH281316   3.527   6.747   5.621  0.2700  0.4771  0.1263
19942TIP3    H181317   3.535   6.656   5.651  1.5797  0.2648 -0.8057
19942TIP3    H281318   3.444   6.748   5.573  0.7953 -0.5349 -0.8474
19943TIP3   OH281319   6.792   4.218  12.928 -0.1385  0.0665  0.0803
19943TIP3    H181320   6.717   4.164  12.954 -1.0197  1.6733  1.0558
19943TIP3    H281321   6.759   4.308  12.932  1.6305  0.7655 -0.2490
19944TIP3   OH281322   3.989   0.369   2.924 -0.3043 -0.0389  0.0707
19944TIP3    H181323   4.063   0.422   2.953 -0.7793 -0.1516  1.5852
19944TIP3    H281324   3.982   0.386   2.831  1.2928  0.3871  0.0041
19945TIP3   OH281325   1.329   2.815   2.559  0.6350  0.4665  0.3858
19945TIP3    H181326   1.381   2.895   2.547 -1.5041  2.1536  1.6061
19945TIP3    H281327   1.281   2.830   2.640 -1.3041 -1.2321 -0.3642
19946TIP3   OH281328   2.927   5.329  15.167  0.2394  0.3131  0.2213
19946TIP3    H181329   3.012   5.285  15.160 -0.4221 -0.9382 -0.2414
19946TIP3    H281330   2.929   5.397  15.099  0.2834 -0.7586 -0.8894
19947TIP3   OH281331   2.506   4.485  13.574 -0.4443  0.3774  0.0466
19947TIP3    H181332   2.590   4.472  13.531 -0.2872  1.9935 -0.2004
19947TIP3    H281333   2.444   4.502  13.503 -0.5744  1.1361  0.3294
19948TIP3   OH281334   6.551   2.902   4.077 -0.4407  0.4065 -0.9057
19948TIP3    H181335   6.624   2.930   4.132  1.7203 -0.9009 -2.8712
19948TIP3    H281336   6.540   2.809   4.097 -1.4273  0.5329 -0.8173
19949TIP3   OH281337   5.928   2.880   5.950 -0.3558 -0.3568 -0.1469
19949TIP3    H181338   5.950   2.961   5.904 -1.0538 -0.9024 -1.4646
19949TIP3    H281339   5.925   2.906   6.043 -0.5967  1.1228 -0.5440
19950TIP3   OH281340   6.316   5.454   5.139 -0.1810 -0.0974  0.1923
19950TIP3    H181341   6.332   5.403   5.060 -3.6799  0.7406 -1.2360
19950TIP3    H281342   6.389   5.516   5.143  1.3992 -1.7821 -0.8886
19951TIP3   OH281343   0.980   4.246   2.936  0.6209  0.0988  0.4471
19951TIP3    H181344   0.933   4.290   2.865  1.1308  0.7883  0.5207
19951TIP3    H281345   0.967   4.153   2.919 -0.8933  0.2697  0.5698
19952TIP3   OH281346   6.802   5.250   6.318 -0.5232  0.2814 -0.1617
19952TIP3    H181347   6.859   5.175   6.302 -2.0796 -1.0326  0.1821
19952TIP3    H281348   6.829   5.283   6.404 -0.8743 -0.9199  0.4301
19953TIP3   OH281349   3.462   4.562  16.615 -0.3677  0.1155  0.5720
19953TIP3    H181350   3.480   4.630  16.550 -0.1756  0.6695  1.2096
19953TIP3    H281351   3.437   4.486  16.562  0.1498  0.4508 -0.1677
19954TIP3   OH281352   4.527   3.045  16.707 -0.0640 -0.2069 -0.3118
19954TIP3    H181353   4.457   3.083  16.656  0.0362 -0.4815 -0.6607
19954TIP3    H281354   4.559   2.972  16.654  1.3098  0.6581 -0.7386
19955TIP3   OH281355   1.272   2.182  12.809  0.3278 -0.8434 -0.0673
19955TIP3    H181356   1.251   2.232  12.730  0.1472 -0.3220  0.3017
19955TIP3    H281357   1.252   2.242  12.881  0.4281 -1.3354  0.3770
19956TIP3   OH281358   3.567   3.919   3.887  0.0579  0.2561  0.2373
19956TIP3    H181359   3.522   3.838   3.911 -0.2534  0.5357  0.6110
19956TIP3    H281360   3.503   3.966   3.833  1.2086 -0.9619 -2.3645
19957TIP3   OH281361   6.515   4.628  17.211 -0.5181  0.0877  0.2265
19957TIP3    H181362   6.472   4.635  17.296  0.2341 -2.8714  0.9644
19957TIP3    H281363   6.608   4.638  17.231 -0.3254 -0.7776 -0.2120
19958TIP3   OH281364   1.541   6.685  16.551 -0.4278  0.1354  0.7234
19958TIP3    H181365   1.555   6.723  16.464  2.6766  1.2521  1.5596
19958TIP3    H281366   1.569   6.594  16.542 -0.6052  0.1072  0.4362
19959TIP3   OH281367   5.073   5.664   3.306  0.5175  0.7365  0.1720
19959TIP3    H181368   5.104   5.730   3.368  1.8349 -0.0213  0.3630
19959TIP3    H281369   5.140   5.662   3.238  1.0509 -1.0697  0.6787
19960TIP3   OH281370   0.615   2.343   1.408 -0.8755 -0.1784 -0.2904
19960TIP3    H181371   0.573   2.257   1.406 -1.0207 -0.0976 -0.7794
19960TIP3    H281372   0.544   2.405   1.397 -0.9923  0.1000  1.6139
19961TIP3   OH281373   0.611   2.755   6.315 -0.6428 -0.0204  0.4232
19961TIP3    H181374   0.680   2.768   6.250 -0.1248  2.1704  1.3226
19961TIP3    H281375   0.552   2.829   6.303 -1.7448 -0.7619  1.0321
19962TIP3   OH281376   6.763   5.546   0.650 -0.0329 -0.4148 -0.3760
19962TIP3    H181377   6.788   5.469   0.701  1.7476  0.1995 -0.2546
19962TIP3    H281378   6.696   5.589   0.703  0.9018 -0.4476  0.8829
19963TIP3   OH281379   2.331   2.613  16.189 -0.7066 -0.5336  0.0897
19963TIP3    H181380   2.295   2.541  16.137 -0.2462 -0.4677 -0.3231
19963TIP3    H281381   2.335   2.579  16.279 -1.7760 -0.5464  0.1410
19964TIP3   OH281382   6.069   0.095   5.528 -0.2518 -0.5561  0.8139
19964TIP3    H181383   6.071   0.183   5.564  1.3535 -0.6722  1.0769
19964TIP3    H281384   5.982   0.086   5.490  0.1899  1.8326 -0.9843
19965TIP3   OH281385   3.692   2.958  11.022  0.4377 -0.6681 -0.0210
19965TIP3    H181386   3.642   2.983  11.100 -0.7189 -1.6003 -0.4352
19965TIP3    H281387   3.644   2.998  10.949  2.1407  1.1601 -0.2242
19966TIP3   OH281388   6.045   4.919   2.128 -0.4600  0.5077  0.2208
19966TIP3    H181389   6.087   5.004   2.129 -0.9430  0.9456 -3.4579
19966TIP3    H281390   6.117   4.856   2.120 -0.0524  1.1896 -4.9191
19967TIP3   OH281391   2.594   1.101  15.532 -0.0382 -0.0185  0.7566
19967TIP3    H181392   2.577   1.163  15.603  1.5440 -0.2674  1.4030
19967TIP3    H281393   2.627   1.155  15.460  0.7304 -0.0174  1.0981
19968TIP3   OH281394   6.064   4.822   4.762 -0.3345  0.1245  0.0054
19968TIP3    H181395   6.078   4.897   4.703  1.7384 -0.1575  0.0763
19968TIP3    H281396   6.088   4.746   4.709 -1.9260 -0.4783  0.1030
19969TIP3   OH281397   1.813   4.805  16.205  0.3071  0.0064  0.3901
19969TIP3    H181398   1.757   4.759  16.142  0.1761  0.9236 -0.1769
19969TIP3    H281399   1.856   4.873  16.154 -0.1403  1.0651  1.3825
19970TIP3   OH281400   0.923   4.719  15.212 -0.8416 -0.3759  0.6659
19970TIP3    H181401   0.908   4.777  15.137  0.9324  2.1310  2.0658
19970TIP3    H281402   0.837   4.709  15.252 -1.0458  3.1361  1.4717
19971TIP3   OH281403   0.950   0.751   1.010  0.0108  0.1286  0.5267
19971TIP3    H181404   0.905   0.834   1.027 -0.0496  0.0834  0.5896
19971TIP3    H281405   1.041   0.767   1.036 -0.2111 -0.1341  1.5316
19972TIP3   OH281406   6.513   0.683  12.003 -0.7932  0.3971  0.2620
19972TIP3    H181407   6.478   0.611  12.056 -0.5059  0.8246  1.0441
19972TIP3    H281408   6.439   0.711  11.950 -0.7743 -0.8311 -0.4679
19973TIP3   OH281409   0.002   2.267   1.742 -0.7696  0.0436 -0.4645
19973TIP3    H181410   0.078   2.220   1.777 -0.5834  1.2034  0.7788
19973TIP3    H281411   0.011   2.259   1.647 -0.6724 -2.2580 -0.3318
19974TIP3   OH281412   5.492   6.194  12.356  0.3760 -0.3827 -0.1210
19974TIP3    H181413   5.483   6.269  12.297 -0.3398 -0.1933  0.2101
19974TIP3    H281414   5.471   6.118  12.302  0.7672 -0.3135 -0.3730
19975TIP3   OH281415   6.771   0.730  12.783  0.3100  0.3361  0.4891
19975TIP3    H181416   6.806   0.642  12.799 -0.7471  0.2545  2.9387
19975TIP3    H281417   6.847   0.788  12.789  0.8299 -0.2994  0.1186
19976TIP3   OH281418   0.775   2.018   2.032 -0.6275  0.0620 -0.0068
19976TIP3    H181419   0.682   2.005   2.016 -0.9031  1.5902  0.1491
19976TIP3    H281420   0.778   2.096   2.089  0.7939  1.0899 -1.4059
19977TIP3   OH281421   5.339   6.714  11.302  0.3695  0.0512  0.5831
19977TIP3    H181422   5.429   6.682  11.293  0.8216  1.4029 -0.0064
19977TIP3    H281423   5.313   6.738  11.213 -1.3133 -2.0892  0.4133
19978TIP3   OH281424   0.393   2.247   2.218 -0.1615  0.4652 -0.1181
19978TIP3    H181425   0.405   2.221   2.127  0.1130  0.5465 -0.1055
19978TIP3    H281426   0.382   2.341   2.215 -1.5106  0.3199 -0.1980
19979TIP3   OH281427   6.092   4.477  11.910  0.1336  0.3021 -0.2523
19979TIP3    H181428   6.099   4.487  11.815 -0.6005 -0.0902 -0.3559
19979TIP3    H281429   6.183   4.478  11.941  0.4558 -0.8428 -1.0981
19980TIP3   OH281430   0.946   4.542  16.947 -0.1026  0.1365 -0.5832
19980TIP3    H181431   0.927   4.549  16.853  0.5698  0.7295 -0.6832
19980TIP3    H281432   1.041   4.550  16.953  0.0182 -1.3433  0.0277
19981TIP3   OH281433   1.013   2.632   6.118  0.7672  0.6608  0.4805
19981TIP3    H181434   0.980   2.567   6.180 -4.5981  2.5772  0.1675
19981TIP3    H281435   1.034   2.581   6.039 -1.4138 -0.9549  0.8578
19982TIP3   OH281436   2.962   3.503  15.052 -0.7722 -0.7296 -0.7047
19982TIP3    H181437   3.027   3.532  14.988 -1.2859  0.3055 -0.7734
19982TIP3    H281438   2.895   3.572  15.051  0.1920  0.3833  2.4085
19983TIP3   OH281439   2.324   0.313   1.248  0.5444 -0.4304 -0.1785
19983TIP3    H181440   2.272   0.253   1.195 -2.5402  0.2229  1.8554
19983TIP3    H281441   2.352   0.261   1.323 -0.1966  0.0629  0.4579
19984TIP3   OH281442   4.100   5.192  16.413  0.1644  0.4283  0.1426
19984TIP3    H181443   4.189   5.214  16.386  0.3272 -0.8451 -0.4361
19984TIP3    H281444   4.112   5.124  16.480 -0.3699 -1.1179 -1.2545
19985TIP3   OH281445   1.311   6.553   1.145 -0.6333  0.0305  0.6351
19985TIP3    H181446   1.331   6.640   1.109  1.2554 -0.7304 -0.2869
19985TIP3    H281447   1.266   6.571   1.228 -0.3839  1.8831  0.4086
19986TIP3   OH281448   1.088   2.434   5.512  0.3215  0.1989 -0.1660
19986TIP3    H181449   1.018   2.455   5.450 -2.1785 -0.4590  2.2684
19986TIP3    H281450   1.151   2.505   5.501 -1.1386  1.3337 -1.8159
19987TIP3   OH281451   3.358   6.569  11.747 -0.3616 -0.0758  0.0785
19987TIP3    H181452   3.311   6.545  11.667 -0.1460  1.3565 -0.5201
19987TIP3    H281453   3.432   6.509  11.752 -0.4367 -0.2442 -0.7471
19988TIP3   OH281454   2.190   5.974  15.614 -0.1995  0.2378 -0.3238
19988TIP3    H181455   2.195   6.044  15.549  0.1811  0.7126  0.2191
19988TIP3    H281456   2.192   5.894  15.561  2.2557  0.5461 -0.8372
19989TIP3   OH281457   2.580   4.935  13.793 -0.6044  0.2018  0.0114
19989TIP3    H181458   2.546   4.998  13.729  1.6766  1.7413  0.1873
19989TIP3    H281459   2.619   4.989  13.861 -1.7838 -1.4204  2.0905
19990TIP3   OH281460   0.416   2.776   2.171  0.1063 -0.1433 -0.2931
19990TIP3    H181461   0.496   2.810   2.211  1.1961 -1.7265 -1.0081
19990TIP3    H281462   0.351   2.781   2.241  0.8812  0.9276  0.3958
19991TIP3   OH281463   4.081   4.904   2.093 -0.2124  0.0630 -0.5375
19991TIP3    H181464   4.159   4.858   2.063 -0.9717 -0.6452 -1.4847
19991TIP3    H281465   4.082   4.987   2.047 -0.3901 -0.2519 -1.1189
19992TIP3   OH281466   1.765   6.051  14.286 -0.0708 -0.4494 -0.1622
19992TIP3    H181467   1.808   6.115  14.229 -0.3222  0.0464  0.2012
19992TIP3    H281468   1.830   5.983  14.299  0.7398  0.4531  0.6557
19993TIP3   OH281469   1.881   4.867   3.752 -0.5414 -0.7039  0.0272
19993TIP3    H181470   1.848   4.836   3.836  2.4627 -2.7988  0.5980
19993TIP3    H281471   1.909   4.787   3.706  2.8151  0.6943 -0.6611
19994TIP3   OH281472   0.241   4.797  11.633  0.1137  0.5903  0.0797
19994TIP3    H181473   0.238   4.749  11.550 -1.5144  3.1505 -1.4812
19994TIP3    H281474   0.329   4.782  11.667  1.0421 -0.0699 -2.4287
19995TIP3   OH281475   4.519   5.215  11.072  0.7162  0.7211 -0.0997
19995TIP3    H181476   4.518   5.247  11.162 -0.7305  0.2011  0.0918
19995TIP3    H281477   4.464   5.137  11.074  2.3129 -0.5032 -1.0189
19996TIP3   OH281478   1.311   1.948  13.068 -0.3224 -0.2952 -0.0354
19996TIP3    H181479   1.344   1.859  13.083  1.2031  0.0908 -0.8450
19996TIP3    H281480   1.221   1.935  13.038 -0.8355 -1.4341  1.8396
19997TIP3   OH281481   1.393   2.985  11.522  0.0178  0.5460 -0.1044
19997TIP3    H181482   1.485   3.007  11.510  0.8110 -1.4209  1.7299
19997TIP3    H281483   1.381   2.978  11.617 -2.1609  1.1756 -0.2580
19998TIP3   OH281484   3.529   5.067  16.864  0.1826 -0.7758  0.1142
19998TIP3    H181485   3.614   5.023  16.862  0.4000 -0.3400 -0.4404
19998TIP3    H281486   3.550   5.158  16.883  0.0467 -0.2155 -2.1877
19999TIP3   OH281487   6.488   5.278   3.366 -0.3204 -0.2288 -0.2054
19999TIP3    H181488   6.447   5.360   3.392 -0.3007 -0.0954 -0.5927
19999TIP3    H281489   6.557   5.304   3.305  0.6598 -0.3996  0.7895
20000TIP3   OH281490   3.290   0.605  14.915  0.0696  0.1604  0.1459
20000TIP3    H181491   3.214   0.568  14.959  0.7759 -0.5574  0.7901
20000TIP3    H281492   3.340   0.529  14.885  1.1561  0.5945  0.8128
20001TIP3   OH281493   5.290   1.089  16.761 -0.1815 -0.0270  0.1260
20001TIP3    H181494   5.226   1.029  16.800 -1.3287  1.8982  1.4042
20001TIP3    H281495   5.372   1.041  16.761 -0.3989 -0.6673  3.8020
20002TIP3   OH281496   0.136   2.635   1.396  0.5191 -0.4361  0.0242
20002TIP3    H181497   0.083   2.647   1.475  2.9203 -0.0590  1.7257
20002TIP3    H281498   0.140   2.722   1.356 -1.7158 -0.8705 -1.3111
20003TIP3   OH281499   3.012   4.592   5.176  0.6406 -0.0493  0.0628
20003TIP3    H181500   3.009   4.518   5.236  1.9209 -0.5012 -0.3943
20003TIP3    H281501   2.967   4.663   5.222 -0.1310 -0.9497  0.7242
20004TIP3   OH281502   1.785   3.057   4.802  0.4590 -0.1591 -0.0617
20004TIP3    H181503   1.772   2.981   4.860  0.3224  0.4163  0.6784
20004TIP3    H281504   1.755   3.026   4.716 -0.2893 -0.7238  0.3785
20005TIP3   OH281505   4.415   1.747  15.167  0.1773 -0.3207 -0.4744
20005TIP3    H181506   4.386   1.663  15.203 -0.3369  0.7512  1.7802
20005TIP3    H281507   4.505   1.732  15.140  0.3390 -1.4128  0.5965
20006TIP3   OH281508   2.001   3.754   5.574  0.7166  0.1385  0.3888
20006TIP3    H181509   2.062   3.682   5.558  0.2727  0.2369 -1.9976
20006TIP3    H281510   2.000   3.763   5.670  0.6368 -3.1286  0.7971
20007TIP3   OH281511   2.116   2.962  11.802 -0.1361 -0.1328  0.5711
20007TIP3    H181512   2.036   2.987  11.755  0.1187  0.5970  0.5104
20007TIP3    H281513   2.182   2.954  11.733  0.3063  1.2057  0.8027
20008TIP3   OH281514   0.269   1.319   3.713 -0.4376  0.3648  0.0369
20008TIP3    H181515   0.334   1.385   3.688  0.4274 -0.4517  0.0356
20008TIP3    H281516   0.223   1.299   3.631  1.0676 -0.8843 -0.5689
20009TIP3   OH281517   6.733   2.003  13.260 -0.2121  0.3481  0.7401
20009TIP3    H181518   6.728   1.940  13.332 -0.8382 -3.0811 -2.0201
20009TIP3    H281519   6.648   1.996  13.217  0.9434  0.3012 -1.7381
20010TIP3   OH281520   3.979   1.298  17.255  0.4896 -0.1820  0.3238
20010TIP3    H181521   4.056   1.254  17.291 -0.0813  0.1560  2.0551
20010TIP3    H281522   3.906   1.262  17.305 -0.3995  0.1011 -0.7357
20011TIP3   OH281523   5.885   2.431  16.061  0.1831 -0.3230  0.0745
20011TIP3    H181524   5.923   2.383  16.135  1.2556  0.2760 -0.0688
20011TIP3    H281525   5.944   2.413  15.988 -0.0269  0.3003 -0.2565
20012TIP3   OH281526   1.324   1.135  16.366  0.3499  0.3032 -0.0108
20012TIP3    H181527   1.371   1.065  16.411 -1.6914 -0.5475  0.9176
20012TIP3    H281528   1.263   1.169  16.432  1.1087  2.8516 -0.4938
20013TIP3   OH281529   3.834   0.498   3.486 -0.3516  0.0118 -0.1096
20013TIP3    H181530   3.853   0.585   3.520  1.1843  0.0117 -0.8704
20013TIP3    H281531   3.775   0.513   3.412 -1.9623  0.1789  1.1499
20014TIP3   OH281532   5.700   6.532  13.980  0.1444 -0.2191  0.4855
20014TIP3    H181533   5.770   6.469  13.993  0.9139  0.1369 -1.4686
20014TIP3    H281534   5.652   6.534  14.063  0.4990 -2.8307  0.8129
20015TIP3   OH281535   4.847   0.504  15.278 -0.2011  0.2518 -0.1001
20015TIP3    H181536   4.821   0.416  15.249 -0.8412 -0.2920  1.9697
20015TIP3    H281537   4.943   0.504  15.269 -0.2945 -0.1472 -1.3872
20016TIP3   OH281538   3.125   0.194   0.472 -0.0860  0.0463  0.8998
20016TIP3    H181539   3.168   0.136   0.409  0.5008  1.1036  0.2889
20016TIP3    H281540   3.163   0.170   0.557  0.7063  0.0324  0.5545
20017TIP3   OH281541   5.785   4.864  10.867  0.2283 -0.0677 -0.1910
20017TIP3    H181542   5.800   4.934  10.931  1.6265 -0.8770  0.3917
20017TIP3    H281543   5.728   4.905  10.802  0.5276  1.4522  0.4381
20018TIP3   OH281544   1.094   1.447  11.476 -0.1493 -0.1717  0.0600
20018TIP3    H181545   1.105   1.539  11.455 -1.1454 -0.2609 -0.9874
20018TIP3    H281546   1.176   1.406  11.451  0.1697  0.3706  0.2044
20019TIP3   OH281547   6.255   1.354  16.075 -0.0382 -0.5529  0.0514
20019TIP3    H181548   6.192   1.407  16.124 -1.7106 -1.6308 -0.8626
20019TIP3    H281549   6.242   1.265  16.107 -1.1951 -1.2951 -2.2908
20020TIP3   OH281550   2.333   4.756  16.481 -0.5623  0.0322  0.1675
20020TIP3    H181551   2.255   4.799  16.516  0.2573  2.0264 -0.3016
20020TIP3    H281552   2.392   4.829  16.458  1.1138 -1.3824 -0.2227
20021TIP3   OH281553   4.170   1.829  16.219 -0.6500 -0.4725  0.7761
20021TIP3    H181554   4.153   1.836  16.124 -0.6377 -1.6785  0.6701
20021TIP3    H281555   4.104   1.886  16.259 -1.6704 -1.1344  0.1025
20022TIP3   OH281556   4.822   3.777  13.178 -0.4181 -0.0705  0.6979
20022TIP3    H181557   4.805   3.793  13.271 -0.6461  0.4075  0.5797
20022TIP3    H281558   4.835   3.682  13.171  0.7717  0.0269  1.3982
20023TIP3   OH281559   3.899   5.016   1.713  0.1314  0.0752  0.2947
20023TIP3    H181560   3.819   4.996   1.762 -0.6250 -2.0831 -1.6189
20023TIP3    H281561   3.954   4.937   1.724  1.8302  1.3078  1.1503
20024TIP3   OH281562   1.138   5.182   4.314  0.3070 -0.6530  0.4137
20024TIP3    H181563   1.149   5.245   4.243 -0.9881 -0.9885 -0.1191
20024TIP3    H281564   1.160   5.097   4.274  0.4304 -0.7384  0.6614
20025TIP3   OH281565   1.769   3.102  17.184  0.4273 -0.2493 -0.7020
20025TIP3    H181566   1.732   3.187  17.207 -2.1786 -1.7187  1.0581
20025TIP3    H281567   1.698   3.040  17.200  3.3831 -3.3024  2.1313
20026TIP3   OH281568   6.486   6.661   4.962  0.8039  0.3771 -0.1194
20026TIP3    H181569   6.576   6.631   4.949  0.7111  0.5830 -1.3234
20026TIP3    H281570   6.486   6.751   4.929  0.1169  0.3276 -0.2604
20027TIP3   OH281571   4.741   2.883  16.240 -0.1914 -0.4024  0.0812
20027TIP3    H181572   4.796   2.819  16.196 -0.9600 -0.5300 -0.7344
20027TIP3    H281573   4.771   2.968  16.207 -0.6761 -0.4897 -0.6017
20028TIP3   OH281574   3.965   3.138  13.197  0.2949 -0.3040  0.4441
20028TIP3    H181575   3.904   3.174  13.261 -0.1929  0.7137 -0.5588
20028TIP3    H281576   3.913   3.130  13.117  1.0222 -1.0814  0.0447
20029TIP3   OH281577   1.640   2.286  16.164  0.3437  0.1899 -0.2998
20029TIP3    H181578   1.722   2.240  16.179 -0.0329 -0.4849 -0.2766
20029TIP3    H281579   1.659   2.377  16.187  0.8330 -0.1211  0.6012
20030TIP3   OH281580   4.434   0.056  15.519  0.4041 -0.1726 -0.4609
20030TIP3    H181581   4.478   0.066  15.603  0.4900 -1.1100 -0.3793
20030TIP3    H281582   4.347   0.091  15.532  0.5846  0.1581 -0.1329
20031TIP3   OH281583   4.561   5.536  12.874  0.0890 -0.2820 -0.0219
20031TIP3    H181584   4.599   5.624  12.878  1.4525 -0.8599  0.5411
20031TIP3    H281585   4.478   5.544  12.921  0.0447  0.7718 -0.2532
20032TIP3   OH281586   1.045   0.290  11.732 -0.1722 -0.0588  0.1971
20032TIP3    H181587   1.138   0.277  11.753  0.9343  1.1548 -3.3036
20032TIP3    H281588   1.044   0.361  11.668 -3.2946 -1.5131 -1.6104
20033TIP3   OH281589   4.921   4.105  14.736 -0.2277 -0.3140 -0.3072
20033TIP3    H181590   4.911   4.051  14.657 -0.7975 -0.7240  0.0364
20033TIP3    H281591   4.970   4.049  14.797 -1.1128 -0.5876  0.1726
20034TIP3   OH281592   4.542   6.428  16.274  0.1337 -0.5286 -0.7132
20034TIP3    H181593   4.535   6.487  16.199  2.9020  0.1632 -0.5651
20034TIP3    H281594   4.553   6.487  16.349  2.1101 -1.1678 -0.4469
20035TIP3   OH281595   4.658   4.106   2.206 -0.2285  1.1481 -0.3539
20035TIP3    H181596   4.625   4.133   2.120 -2.6852  1.2060  0.5448
20035TIP3    H281597   4.677   4.013   2.195 -2.7830  0.5645 -0.4021
20036TIP3   OH281598   0.880   2.613  13.865  0.2185 -0.0800 -0.6103
20036TIP3    H181599   0.889   2.685  13.803 -0.9857  0.9431  0.3635
20036TIP3    H281600   0.814   2.642  13.928  1.1603 -1.1938  0.9891
20037TIP3   OH281601   2.946   6.544  16.809 -0.4312 -0.5859  0.0558
20037TIP3    H181602   2.947   6.616  16.872  1.8875 -0.6758  0.2156
20037TIP3    H281603   3.033   6.546  16.769 -1.2660 -1.5606 -1.9891
20038TIP3   OH281604   1.232   3.136  14.211 -0.6047 -0.0762 -0.1749
20038TIP3    H181605   1.306   3.192  14.231  1.3447 -1.5176 -2.7587
20038TIP3    H281606   1.189   3.178  14.137 -1.0925 -0.3823 -0.0736
20039TIP3   OH281607   6.352   3.301  13.405 -0.3285 -0.0612 -0.4298
20039TIP3    H181608   6.415   3.340  13.466  1.0127 -1.3774 -0.9263
20039TIP3    H281609   6.353   3.359  13.329 -0.3360  0.3655 -0.1067
20040TIP3   OH281610   0.091   4.092  12.713  0.6487 -0.2048  0.3798
20040TIP3    H181611   0.026   4.127  12.773  0.7037 -0.7299  0.7556
20040TIP3    H281612   0.174   4.127  12.745  0.6915 -0.5806  0.6890
20041TIP3   OH281613   4.861   5.964  16.832  0.3302 -1.0692 -0.0038
20041TIP3    H181614   4.808   5.885  16.824 -1.1881 -0.0063 -0.8984
20041TIP3    H281615   4.828   6.008  16.910 -0.5271 -0.1428 -0.8538
20042TIP3   OH281616   6.650   1.755   1.630 -0.3213  0.3264 -0.4125
20042TIP3    H181617   6.588   1.748   1.703 -0.5382  0.8701 -0.5401
20042TIP3    H281618   6.686   1.843   1.638  2.1678 -0.7136  1.0481
20043TIP3   OH281619   3.418   5.135  13.589  0.3209 -0.1032  0.4924
20043TIP3    H181620   3.340   5.173  13.629  0.2898  1.1106 -0.6544
20043TIP3    H281621   3.455   5.206  13.536  0.6988 -1.4401 -1.1174
20044TIP3   OH281622   5.231   2.185  13.368 -0.1432 -0.4500 -0.3416
20044TIP3    H181623   5.149   2.222  13.401 -0.8548 -0.5422 -1.8922
20044TIP3    H281624   5.274   2.259  13.325 -0.3181 -0.8049 -1.1498
20045TIP3   OH281625   5.090   5.696  17.205  0.3648  0.4559 -0.0067
20045TIP3    H181626   5.175   5.658  17.184  0.1330 -0.1793  0.1748
20045TIP3    H281627   5.107   5.754  17.279  0.6217  0.2488  0.0981
20046TIP3   OH281628   6.568   0.354  11.137 -0.3607  0.2766  0.0149
20046TIP3    H181629   6.509   0.287  11.171  2.1142 -0.8487  2.4531
20046TIP3    H281630   6.570   0.338  11.042 -2.0636 -1.1552  0.1631
20047TIP3   OH281631   3.162   0.515   0.376 -0.0589  0.4165 -0.3759
20047TIP3    H181632   3.181   0.528   0.283 -1.4656  1.4555 -0.5346
20047TIP3    H281633   3.071   0.486   0.378  0.4634 -1.2699  0.5899
20048TIP3   OH281634   2.515   2.569  11.057 -0.4735  0.4951  0.5902
20048TIP3    H181635   2.453   2.574  11.130 -1.2596  1.1090 -0.1032
20048TIP3    H281636   2.460   2.559  10.979  0.3751 -1.1416  0.1502
20049TIP3   OH281637   4.959   5.192   0.150  0.7853  0.4672  0.2464
20049TIP3    H181638   4.982   5.099   0.151 -1.4417 -0.2488 -2.2675
20049TIP3    H281639   5.013   5.229   0.080 -0.0722  0.4835 -0.4234
20050TIP3   OH281640   4.019   1.441   4.534 -0.7912 -0.1621  0.1699
20050TIP3    H181641   4.103   1.471   4.500 -0.7376 -2.0802 -1.6152
20050TIP3    H281642   3.997   1.504   4.603  1.6946  0.8487  0.1548
20051TIP3   OH281643   4.931   0.419   3.676  0.2012  0.0429  0.2947
20051TIP3    H181644   5.000   0.359   3.704  0.9104  1.0175  0.7064
20051TIP3    H281645   4.875   0.366   3.618  1.0441 -0.8848  0.2977
20052TIP3   OH281646   3.054   5.948  16.756 -0.1015 -0.2293 -0.0842
20052TIP3    H181647   3.123   5.967  16.820 -1.1181  0.2003  0.9139
20052TIP3    H281648   3.043   6.030  16.708 -0.1987 -0.1685  0.0410
20053TIP3   OH281649   4.504   4.933  12.329 -0.0371 -0.2942  0.3157
20053TIP3    H181650   4.487   4.959  12.420  0.2617  0.4096  0.1744
20053TIP3    H281651   4.513   4.837  12.333 -0.0865 -0.2770  1.0154
20054TIP3   OH281652   2.624   5.456   5.876 -0.3738  0.1644 -0.3845
20054TIP3    H181653   2.653   5.366   5.862  3.5436  0.9224  1.3418
20054TIP3    H281654   2.551   5.449   5.936 -0.3208 -1.8731 -0.4902
20055TIP3   OH281655   4.793   1.101   2.846 -0.1302  0.2207  0.0697
20055TIP3    H181656   4.745   1.023   2.819 -0.6554  0.5014  0.1829
20055TIP3    H281657   4.821   1.082   2.936 -1.7147  0.8157  0.7259
20056TIP3   OH281658   1.956   4.395   2.750 -0.2543  0.7436  0.3106
20056TIP3    H181659   1.993   4.308   2.740  0.7331  0.9003  2.2783
20056TIP3    H281660   2.002   4.448   2.683 -1.0848 -0.2513 -1.1002
20057TIP3   OH281661   0.531   0.097   1.871 -0.0549 -0.0625 -0.4200
20057TIP3    H181662   0.499   0.092   1.961  1.0497  0.2568 -0.0009
20057TIP3    H281663   0.499   0.016   1.830  0.4149 -0.7693  0.5831
20058TIP3   OH281664   2.422   0.909  14.109 -0.2098 -0.2396 -0.1200
20058TIP3    H181665   2.395   0.836  14.054  1.2428  1.7639 -3.9009
20058TIP3    H281666   2.487   0.872  14.168  0.0651 -2.1083 -1.5074
20059TIP3   OH281667   6.808   0.837   4.015 -0.5127 -0.2100  0.5625
20059TIP3    H181668   6.787   0.910   3.956  1.4077 -0.7520 -0.9050
20059TIP3    H281669   6.765   0.761   3.975  2.4548 -0.9916 -1.4975
20060TIP3   OH281670   4.829   5.871  10.889  0.0582 -0.2805  0.3373
20060TIP3    H181671   4.785   5.869  10.805  1.5906  1.2773 -0.5644
20060TIP3    H281672   4.909   5.819  10.876  0.3474  0.0329  0.7960
20061TIP3   OH281673   0.180   4.835   5.952  0.2934 -0.2369  0.0713
20061TIP3    H181674   0.146   4.878   5.873  2.1440 -2.0066 -1.8169
20061TIP3    H281675   0.245   4.896   5.986 -0.7518  0.6908  0.4648
20062TIP3   OH281676   4.362   6.672   0.070 -0.4557 -1.0396 -0.1636
20062TIP3    H181677   4.284   6.693   0.019 -0.9697  2.0905  1.6393
20062TIP3    H281678   4.403   6.757   0.088  1.0533 -2.1801  2.4343
20063TIP3   OH281679   0.101   4.839  16.620 -0.2022 -0.0446 -0.0774
20063TIP3    H181680   0.170   4.905  16.612  1.6512 -2.0045 -1.3919
20063TIP3    H281681   0.113   4.804  16.708 -1.5197  1.5859  0.8254
20064TIP3   OH281682   0.436   2.988   3.536 -0.5163  0.0642  0.6359
20064TIP3    H181683   0.449   2.919   3.471  1.0215  0.2352  0.7379
20064TIP3    H281684   0.346   3.017   3.522 -0.8100 -1.1761 -0.1690
20065TIP3   OH281685   6.163   0.678   0.354  0.0564  0.1812 -0.3633
20065TIP3    H181686   6.072   0.696   0.377  0.2545 -1.4283  2.2117
20065TIP3    H281687   6.159   0.629   0.272 -1.2887  1.0261 -0.8205
20066TIP3   OH281688   6.779   1.653   2.318  0.0025 -0.0665 -0.1824
20066TIP3    H181689   6.765   1.559   2.309 -0.5864  0.0506 -0.5514
20066TIP3    H281690   6.748   1.674   2.406 -3.2448  0.3414 -1.2921
20067TIP3   OH281691   0.382   6.521  16.283  0.1207 -0.2190 -0.4130
20067TIP3    H181692   0.420   6.462  16.218  0.1842  0.2326 -0.7979
20067TIP3    H281693   0.300   6.479  16.308  0.5816 -0.9011 -0.0204
20068TIP3   OH281694   0.156   5.073   4.388  0.5204 -0.0943 -0.2195
20068TIP3    H181695   0.098   5.138   4.348 -0.7376 -0.3031  1.2175
20068TIP3    H281696   0.134   4.991   4.344 -1.1504 -0.4040  1.1148
20069TIP3   OH281697   1.493   2.301   4.749 -0.3529  0.1276 -0.1228
20069TIP3    H181698   1.528   2.308   4.838 -0.1078 -1.9438  0.0092
20069TIP3    H281699   1.398   2.289   4.761 -0.3640  0.1798 -0.1570
20070TIP3   OH281700   5.997   3.094   2.126  0.7029 -0.2233 -0.5508
20070TIP3    H181701   5.915   3.132   2.160  0.4424 -0.6803 -0.6467
20070TIP3    H281702   6.025   3.154   2.058  0.5388  0.0312 -0.3980
20071TIP3   OH281703   3.933   4.987  16.783 -0.3665 -0.0682 -0.0326
20071TIP3    H181704   3.870   4.958  16.849  0.5530  0.1005  0.9579
20071TIP3    H281705   4.005   4.924  16.789 -0.4430 -0.2853 -1.1710
20072TIP3   OH281706   6.443   3.393  11.666 -0.8216 -0.2066  0.3787
20072TIP3    H181707   6.376   3.441  11.715 -1.4031  0.5483 -1.0936
20072TIP3    H281708   6.502   3.358  11.733 -1.9965  0.1495  1.6418
20073TIP3   OH281709   4.692   1.566  15.374  0.1630  0.1472  0.1252
20073TIP3    H181710   4.722   1.631  15.310  1.9820  0.5554  1.3303
20073TIP3    H281711   4.606   1.599  15.403 -0.5342  0.1377 -1.7775
20074TIP3   OH281712   5.413   1.137   0.329  0.2754  0.4506  0.2038
20074TIP3    H181713   5.377   1.153   0.242 -1.2300 -0.2180  0.6605
20074TIP3    H281714   5.434   1.043   0.329 -1.7718 -0.0717  1.2079
20075TIP3   OH281715   0.753   2.934   1.264 -0.3183  0.5960 -0.6972
20075TIP3    H181716   0.827   2.899   1.215  2.1233  2.9245  1.0440
20075TIP3    H281717   0.707   2.856   1.296  2.3959 -1.0539 -0.4457
20076TIP3   OH281718   0.454   4.565  10.780 -0.2280 -0.1231 -0.1832
20076TIP3    H181719   0.402   4.511  10.720  0.9909 -1.3614 -0.1731
20076TIP3    H281720   0.527   4.509  10.806  0.7846  1.3441  0.2963
20077TIP3   OH281721   1.818   3.036   4.335 -0.3037 -0.3370 -1.0022
20077TIP3    H181722   1.880   3.107   4.352 -0.3369 -0.5724  0.1691
20077TIP3    H281723   1.756   3.073   4.273  0.6181  0.1147 -1.6907
20078TIP3   OH281724   1.030   6.038  13.564  0.3282 -0.8119  0.0714
20078TIP3    H181725   0.983   6.116  13.534 -1.3335 -1.4972  0.7919
20078TIP3    H281726   1.076   6.067  13.643  2.4054  0.2463 -1.4391
20079TIP3   OH281727   6.205   1.983  13.566  0.4290 -0.0447 -0.0967
20079TIP3    H181728   6.298   1.990  13.544  1.3341 -0.4444  3.0385
20079TIP3    H281729   6.188   2.058  13.623 -1.5665  0.7306 -1.6288
20080TIP3   OH281730   4.665   6.094  12.659 -0.4180 -0.1514  0.0292
20080TIP3    H181731   4.642   6.185  12.682 -0.0244 -0.4262  1.6693
20080TIP3    H281732   4.639   6.044  12.736  1.4857 -1.1121  0.0956
20081TIP3   OH281733   3.411   6.033  11.334  0.5536  0.1294  0.3924
20081TIP3    H181734   3.437   6.117  11.373  1.3505  0.2637 -0.3973
20081TIP3    H281735   3.487   6.007  11.281 -0.3391 -0.2351 -0.7446
20082TIP3   OH281736   1.713   6.751   5.438  0.4666  0.3903 -0.0618
20082TIP3    H181737   1.634   6.747   5.492  0.0732 -0.1568 -0.6516
20082TIP3    H281738   1.775   6.693   5.482  0.1240 -0.1061 -0.2183
20083TIP3   OH281739   4.891   5.825   2.454  0.2300 -0.3034 -0.9343
20083TIP3    H181740   4.959   5.801   2.390 -0.9566 -2.9448 -1.3212
20083TIP3    H281741   4.896   5.921   2.458  4.2634 -0.3397 -0.5656
20084TIP3   OH281742   0.606   2.363   3.889 -0.0262 -0.0923  0.0538
20084TIP3    H181743   0.637   2.447   3.854  1.0199  0.1533  1.4805
20084TIP3    H281744   0.644   2.297   3.831 -0.0665  0.3822 -0.5194
20085TIP3   OH281745   1.467   6.207   6.095 -0.0456  0.1941  0.3392
20085TIP3    H181746   1.510   6.225   6.178  0.5750 -1.6120  0.4689
20085TIP3    H281747   1.493   6.279   6.038 -0.2606  1.3135  1.6106
20086TIP3   OH281748   6.084   3.229  15.785 -0.0316 -0.4308  0.0605
20086TIP3    H181749   6.130   3.238  15.868 -1.2573  1.5349  0.5888
20086TIP3    H281750   6.151   3.243  15.718  0.8892 -1.6691  0.7062
20087TIP3   OH281751   1.068   1.905   3.859 -0.5756  0.0478  0.5055
20087TIP3    H181752   1.134   1.964   3.822  0.1400 -1.0850 -0.0543
20087TIP3    H281753   1.115   1.825   3.880 -1.4365 -0.1613  1.7558
20088TIP3   OH281754   5.445   6.066   1.655  0.3933  0.0596  0.3594
20088TIP3    H181755   5.353   6.040   1.649  0.6944 -0.7274 -1.1996
20088TIP3    H281756   5.470   6.041   1.744 -0.9840  0.6457  0.9481
20089TIP3   OH281757   1.969   0.780  16.834  0.0368 -0.1217  0.1140
20089TIP3    H181758   1.925   0.705  16.795 -0.1630  0.8278 -1.6299
20089TIP3    H281759   2.041   0.799  16.774 -0.1529  1.2855  0.2912
20090TIP3   OH281760   5.359   3.391  14.329 -0.1617  0.3542 -0.1257
20090TIP3    H181761   5.374   3.486  14.327  2.2195  0.1072  1.1171
20090TIP3    H281762   5.417   3.357  14.261 -2.0080 -0.1907 -1.5091
20091TIP3   OH281763   6.472   1.142  16.669  0.1671 -0.1258 -0.6342
20091TIP3    H181764   6.507   1.082  16.602 -1.2473 -0.8529 -0.7620
20091TIP3    H281765   6.474   1.228  16.627  0.2823 -0.4110 -1.2243
20092TIP3   OH281766   1.088   3.847  11.462 -0.1120  0.1705 -0.6013
20092TIP3    H181767   1.053   3.889  11.383  0.7761  0.7608 -0.7020
20092TIP3    H281768   1.157   3.789  11.429  0.3418  0.5066 -0.2652
20093TIP3   OH281769   3.999   0.509  14.873 -0.3284 -0.0113  0.4955
20093TIP3    H181770   3.939   0.434  14.881 -0.0747 -0.2952 -0.1667
20093TIP3    H281771   4.015   0.516  14.779 -1.5309  1.8227  0.3670
20094TIP3   OH281772   6.668   0.353   4.977  0.4687  0.3078 -0.0322
20094TIP3    H181773   6.725   0.400   5.038  0.1859  1.3787 -0.5780
20094TIP3    H281774   6.643   0.418   4.912 -1.5962 -0.0702  0.3243
20095TIP3   OH281775   1.374   2.607   2.042 -0.5607 -0.1715 -0.3217
20095TIP3    H181776   1.467   2.605   2.062 -0.7835 -0.7812  0.7236
20095TIP3    H281777   1.349   2.699   2.053 -0.0816  0.0048 -0.6651
20096TIP3   OH281778   6.066   0.466  13.243  0.4218 -0.3554 -0.2154
20096TIP3    H181779   5.979   0.432  13.262  0.6012 -0.5848  0.2150
20096TIP3    H281780   6.125   0.394  13.264  0.9605  0.7751  2.5146
20097TIP3   OH281781   0.082   3.896  10.490  0.3892 -0.3588  0.0258
20097TIP3    H181782   0.112   3.839  10.560  0.3848 -0.4738 -0.0667
20097TIP3    H281783   0.001   3.856  10.459  0.9343 -0.9000 -0.7598
20098TIP3   OH281784   4.984   6.605   1.757  0.2886 -0.2397  0.8143
20098TIP3    H181785   5.079   6.595   1.747  0.4321  0.9615  0.8976
20098TIP3    H281786   4.972   6.618   1.851  0.5432  4.0786  0.4257
20099TIP3   OH281787   1.757   6.280   5.157 -0.3832  0.2269 -0.0510
20099TIP3    H181788   1.681   6.320   5.199 -0.1594  0.1976  0.3860
20099TIP3    H281789   1.829   6.297   5.217  0.0106  0.4856 -0.5896
20100TIP3   OH281790   6.669   0.826   4.554  0.4875  0.0282 -0.1404
20100TIP3    H181791   6.700   0.908   4.592 -0.7226  0.1397  0.6845
20100TIP3    H281792   6.575   0.841   4.541  0.3888 -0.9791 -0.6374
20101TIP3   OH281793   2.386   4.709  10.526 -0.2739 -0.6536  0.2490
20101TIP3    H181794   2.422   4.631  10.568  0.9820 -0.4035 -0.3077
20101TIP3    H281795   2.397   4.693  10.433 -2.5896 -0.9920 -0.0090
20102TIP3   OH281796   1.939   1.811   2.449  0.4695 -0.2992  0.3127
20102TIP3    H181797   1.879   1.776   2.383 -0.2573  1.1599  0.1567
20102TIP3    H281798   2.019   1.830   2.400  0.5770 -0.9319  0.2324
20103TIP3   OH281799   3.227   5.239  13.301  0.5581  0.4527 -0.3514
20103TIP3    H181800   3.316   5.224  13.332 -1.1605 -1.7357  4.4651
20103TIP3    H281801   3.191   5.304  13.362 -2.1549 -1.5383  0.3642
20104TIP3   OH281802   0.005   2.844   3.031  0.0881 -0.4772  0.2019
20104TIP3    H181803  -0.012   2.882   3.118 -0.5351 -2.6499  1.0965
20104TIP3    H281804  -0.067   2.876   2.977 -1.0458 -1.1720  1.2225
20105TIP3   OH281805   1.715   4.014   3.582  0.1795 -0.2223 -0.5192
20105TIP3    H181806   1.668   4.028   3.500  1.2487  0.9057 -0.9656
20105TIP3    H281807   1.648   3.984   3.643 -1.0052  0.8227 -1.2668
20106TIP3   OH281808   1.778   3.408   4.537 -0.2546  0.0926 -0.0748
20106TIP3    H181809   1.825   3.484   4.572 -0.2323  0.5246 -1.0061
20106TIP3    H281810   1.838   3.372   4.471  0.0444 -1.1759  0.8545
20107TIP3   OH281811   0.896   5.625  16.898 -0.4142 -0.0381 -0.9096
20107TIP3    H181812   0.959   5.606  16.829 -0.7662  0.1687 -1.2970
20107TIP3    H281813   0.833   5.685  16.857  0.1941  1.2863  0.0331
20108TIP3   OH281814   5.507   1.105   6.103 -0.0955 -0.0205 -0.5910
20108TIP3    H181815   5.540   1.031   6.153  0.0286  0.7570  0.5034
20108TIP3    H281816   5.521   1.181   6.159 -0.6595  0.7789 -1.4909
20109TIP3   OH281817   2.823   4.906  15.794  0.2935 -0.4928  0.1084
20109TIP3    H181818   2.747   4.904  15.851  1.1905  0.6407  1.4142
20109TIP3    H281819   2.863   4.991  15.811  0.4875  0.0012 -2.3993
20110TIP3   OH281820   2.220   4.092   0.177  0.2411  0.5434  0.0831
20110TIP3    H181821   2.199   4.019   0.120  1.1207  0.9218 -0.7557
20110TIP3    H281822   2.314   4.106   0.164  0.4341  0.7324  1.5201
20111TIP3   OH281823   5.422   1.755  11.311  1.1633  0.3378 -0.2616
20111TIP3    H181824   5.422   1.719  11.222 -1.4848  1.1879 -0.6939
20111TIP3    H281825   5.391   1.683  11.366 -0.4115  0.7433 -0.5661
20112TIP3   OH281826   0.131   3.116  16.821 -0.6624 -0.1865  0.5217
20112TIP3    H181827   0.177   3.145  16.900 -0.3884 -0.6223  0.5241
20112TIP3    H281828   0.039   3.110  16.849 -0.4164 -1.4411  1.1397
20113TIP3   OH281829   6.068   3.324  12.672  0.1837 -0.2019  0.1709
20113TIP3    H181830   6.056   3.248  12.615 -1.7742 -0.7138  1.1632
20113TIP3    H281831   6.020   3.395  12.629 -0.4506 -0.3250  0.6560
20114TIP3   OH281832   4.587   1.985   4.294 -0.1317 -0.2189  0.3614
20114TIP3    H181833   4.582   2.058   4.233 -1.4975 -1.3613 -0.9965
20114TIP3    H281834   4.593   2.026   4.381  2.7177  1.4451 -0.5103
20115TIP3   OH281835   5.137   0.615  12.198 -0.0094 -0.2988 -0.3147
20115TIP3    H181836   5.156   0.708  12.211  0.3093 -0.2942 -0.7494
20115TIP3    H281837   5.104   0.610  12.108 -0.9024 -0.4845  0.0214
20116TIP3   OH281838   6.007   0.681  16.739  0.9303  0.2049  0.0276
20116TIP3    H181839   5.944   0.641  16.798 -1.9881  2.7027 -1.1300
20116TIP3    H281840   6.025   0.614  16.673 -1.3187 -0.2861 -0.1487
20117TIP3   OH281841   0.668   6.040  10.998 -0.4541 -0.5813  0.0272
20117TIP3    H181842   0.646   6.132  11.010  1.8114 -0.2251  2.3716
20117TIP3    H281843   0.667   6.027  10.904  0.8739  2.3632 -0.5067
20118TIP3   OH281844   2.198   0.269   0.181 -0.4456  0.0731 -0.2490
20118TIP3    H181845   2.131   0.319   0.136  1.0420  2.4201 -0.0527
20118TIP3    H281846   2.176   0.277   0.274  1.3198  3.0138  0.0382
20119TIP3   OH281847   5.835   0.931   6.360  0.6121 -0.3391  0.4604
20119TIP3    H181848   5.841   0.935   6.455  2.1936 -0.1217  0.3668
20119TIP3    H281849   5.884   1.008   6.329 -1.3119  0.5797 -0.5173
20120TIP3   OH281850   3.534   1.667  13.478 -0.8045  0.3241 -0.4268
20120TIP3    H181851   3.542   1.683  13.572 -1.9642 -1.0095 -0.0831
20120TIP3    H281852   3.453   1.711  13.453 -1.7812 -1.3434 -0.2990
20121TIP3   OH281853   5.478   0.364  13.423  0.1492  0.1501  0.3358
20121TIP3    H181854   5.529   0.297  13.377 -1.3185 -0.5313 -0.3467
20121TIP3    H281855   5.430   0.317  13.491  0.0941  0.7168  0.6986
20122TIP3   OH281856   0.417   4.848  10.904 -0.1834 -0.3215 -0.3543
20122TIP3    H181857   0.486   4.892  10.854  0.2685 -2.4786 -1.7333
20122TIP3    H281858   0.465   4.788  10.962 -0.8292  0.0693  0.6093
20123TIP3   OH281859   1.137   2.653  11.604 -0.0060  0.4376  0.0983
20123TIP3    H181860   1.047   2.656  11.636  0.4330 -0.5961  1.4947
20123TIP3    H281861   1.144   2.569  11.559  0.4975  0.0970  0.7911
20124TIP3   OH281862   4.082   5.705  12.305  0.3297  0.2617  0.3408
20124TIP3    H181863   4.103   5.783  12.357  0.9820  0.2083  0.1699
20124TIP3    H281864   4.116   5.632  12.357  1.1561  0.2215 -0.2325
20125TIP3   OH281865   5.913   3.179  16.019 -0.0517 -0.3656  0.2494
20125TIP3    H181866   5.905   3.138  16.105  1.1346  0.0495  0.5769
20125TIP3    H281867   5.893   3.108  15.957  0.0897 -0.9388  0.8453
20126TIP3   OH281868   0.969   2.371  15.508  0.5258 -0.1104  0.1011
20126TIP3    H181869   0.913   2.440  15.473  0.7064 -1.3268 -2.8045
20126TIP3    H281870   1.058   2.406  15.501  0.6034 -0.5470 -1.2036
20127TIP3   OH281871   2.003   2.116   4.086 -0.3507  0.4265  0.5932
20127TIP3    H181872   2.020   2.030   4.124  0.0112 -0.1650 -0.8400
20127TIP3    H281873   1.923   2.147   4.129 -1.4878 -1.4038 -0.1074
20128TIP3   OH281874   2.494   6.240  17.131 -0.3479  0.5326 -0.2964
20128TIP3    H181875   2.541   6.228  17.213  1.2110 -0.1279 -1.2464
20128TIP3    H281876   2.475   6.334  17.126 -1.1351  0.4692  1.1459
20129TIP3   OH281877   6.335   3.745   6.181 -0.1544 -0.3097 -0.6744
20129TIP3    H181878   6.300   3.691   6.251 -0.2878 -1.2410 -1.4464
20129TIP3    H281879   6.409   3.696   6.146  1.1493  1.0355  0.0672
20130TIP3   OH281880   0.457   2.597   0.421  0.6298  0.2432  0.1715
20130TIP3    H181881   0.526   2.632   0.476  1.9423 -0.2869 -1.0685
20130TIP3    H281882   0.384   2.580   0.481  1.8577  0.0271  1.6589
20131TIP3   OH281883   5.922   3.123  16.501 -0.1077 -0.3947  0.0641
20131TIP3    H181884   6.016   3.124  16.520  0.3874 -1.3177 -2.0133
20131TIP3    H281885   5.892   3.040  16.537  0.2310 -0.8331 -0.6351
20132TIP3   OH281886   2.285   6.347   5.333  0.2447  0.1811  0.6949
20132TIP3    H181887   2.351   6.378   5.270  0.8120 -1.5967  0.3692
20132TIP3    H281888   2.329   6.353   5.418  1.0743 -1.5256  0.4208
20133TIP3   OH281889   2.495   6.296  10.809  0.1200 -0.5590  0.1954
20133TIP3    H181890   2.462   6.276  10.896 -0.2920 -0.7046  0.0120
20133TIP3    H281891   2.566   6.233  10.795  0.2115 -0.5093  0.4398
20134TIP3   OH281892   3.807   1.113   0.342 -0.2380  0.3339 -0.0675
20134TIP3    H181893   3.789   1.162   0.262  0.6662 -0.6466 -0.9110
20134TIP3    H281894   3.789   1.022   0.319  0.2876  0.0008  0.7706
20135TIP3   OH281895   6.143   1.439   1.767 -0.7225 -0.0319  0.1872
20135TIP3    H181896   6.210   1.374   1.743  0.9848  1.0517  1.7378
20135TIP3    H281897   6.065   1.411   1.719  0.4100 -2.2185 -0.5568
20136TIP3   OH281898   1.138   0.657   3.405 -0.3438 -0.3010  0.1798
20136TIP3    H181899   1.160   0.741   3.364 -1.5373 -0.1059 -0.0952
20136TIP3    H281900   1.048   0.668   3.435 -0.0644 -1.0295  1.3645
20137TIP3   OH281901   0.873   1.040   5.493  0.1811 -0.2034  0.0349
20137TIP3    H181902   0.781   1.065   5.481  0.4198  1.0260  0.6209
20137TIP3    H281903   0.913   1.115   5.536  1.6325 -0.4372 -0.8433
20138TIP3   OH281904   4.063   4.524  13.906 -0.5714  0.2601 -0.8284
20138TIP3    H181905   4.011   4.604  13.912 -0.4420  0.3076 -0.2888
20138TIP3    H281906   4.099   4.512  13.994 -1.4177 -0.9586 -0.6212
20139TIP3   OH281907   2.394   6.204  11.392 -0.1544  0.2337  0.1314
20139TIP3    H181908   2.337   6.268  11.349 -2.2371 -1.6614 -0.1435
20139TIP3    H281909   2.340   6.169  11.463 -0.4449 -3.4476 -1.6736
20140TIP3   OH281910   0.614   2.420  12.313 -0.1614 -0.0872  0.3413
20140TIP3    H181911   0.582   2.340  12.271 -0.2860  0.0882  0.0987
20140TIP3    H281912   0.534   2.463  12.345 -0.1403  0.1942  0.0167
20141TIP3   OH281913   0.563   6.019   0.248  0.7072 -0.5174  0.4069
20141TIP3    H181914   0.633   6.021   0.313  1.6248  2.8071 -0.5173
20141TIP3    H281915   0.608   6.007   0.164 -0.0330 -0.3058 -0.0283
20142TIP3   OH281916   0.726   4.817   5.490  1.0521 -0.4984 -0.1964
20142TIP3    H181917   0.673   4.806   5.569  1.3992  0.6868  0.2303
20142TIP3    H281918   0.758   4.729   5.470 -1.0114 -1.2308 -0.4537
20143TIP3   OH281919   5.707   4.136   0.449 -0.1289  0.4990  0.0140
20143TIP3    H181920   5.691   4.076   0.376 -0.4359 -0.6707  1.0082
20143TIP3    H281921   5.717   4.079   0.525 -0.0434  1.7017  0.9341
20144TIP3   OH281922   1.709   0.892   2.850 -0.5984  0.2387  0.2783
20144TIP3    H181923   1.664   0.976   2.839 -1.3849 -0.0606  1.1096
20144TIP3    H281924   1.718   0.882   2.945 -0.6342 -0.6835  0.1908
20145TIP3   OH281925   4.052   3.528   3.535  0.3459  0.2267 -0.0898
20145TIP3    H181926   3.982   3.469   3.563  1.2795 -1.1922 -0.6362
20145TIP3    H281927   4.091   3.561   3.616  0.4322 -0.6702  0.2381
20146TIP3   OH281928   5.311   6.332  13.295 -0.1395  0.4054 -0.0365
20146TIP3    H181929   5.397   6.312  13.331  0.5903 -0.6990 -2.2192
20146TIP3    H281930   5.328   6.394  13.224 -1.2200  0.5885 -0.1579
20147TIP3   OH281931   5.150   5.403   0.040  1.3928  0.8886 -0.5535
20147TIP3    H181932   5.138   5.495   0.063  1.3125  0.9173 -0.7041
20147TIP3    H281933   5.212   5.405  -0.034 -0.3955  1.0094 -2.1396
20148TIP3   OH281934   5.481   1.410  11.378 -0.3006 -0.5733 -0.0198
20148TIP3    H181935   5.551   1.347  11.363 -1.0076 -1.1811 -0.9085
20148TIP3    H281936   5.414   1.387  11.314 -0.7147  0.8909 -0.1604
20149TIP3   OH281937   1.326   6.732  16.993 -0.2983 -0.2811  0.9818
20149TIP3    H181938   1.278   6.771  16.919  2.0418  0.3568 -0.2848
20149TIP3    H281939   1.262   6.675  17.035 -2.6774  1.8241  0.4621
20150TIP3   OH281940   4.644   5.448  12.393 -0.4622  0.0691 -0.2469
20150TIP3    H181941   4.659   5.357  12.419  1.4295  0.7065  1.1348
20150TIP3    H281942   4.715   5.497  12.436 -1.1585  2.1361 -1.3264
20151TIP3   OH281943   5.956   0.832  17.018  0.4312  0.4365 -0.1872
20151TIP3    H181944   5.909   0.818  17.101  0.7659 -0.2703 -0.1086
20151TIP3    H281945   5.901   0.894  16.970 -1.1649 -1.1517 -0.5321
20152TIP3   OH281946   5.582   4.113  16.785  0.5128 -0.5073  0.1167
20152TIP3    H181947   5.560   4.020  16.782  0.5946 -0.5103 -1.2245
20152TIP3    H281948   5.522   4.150  16.850 -0.4093 -1.2824 -0.2650
20153TIP3   OH281949   4.502   1.489   2.778 -0.2333  0.0766  0.5665
20153TIP3    H181950   4.423   1.441   2.754  0.9481 -1.5573 -0.2834
20153TIP3    H281951   4.538   1.440   2.852  0.3916  0.3291  0.4376
20154TIP3   OH281952   2.441   1.600  11.056  0.3132 -0.2729  0.4965
20154TIP3    H181953   2.399   1.668  11.003  0.0177 -0.8522 -0.0213
20154TIP3    H281954   2.484   1.648  11.127 -0.2634  0.4216  0.3870
20155TIP3   OH281955   0.163   3.420  14.233 -0.0359  0.2485  0.0017
20155TIP3    H181956   0.166   3.461  14.319 -2.3383 -0.3836  0.4468
20155TIP3    H281957   0.076   3.443  14.198  1.1333  1.2144 -2.5414
20156TIP3   OH281958   2.698   5.275   5.237 -0.1915  0.0970  0.3916
20156TIP3    H181959   2.619   5.328   5.245  0.3996  0.8183  1.7235
20156TIP3    H281960   2.770   5.338   5.234  0.4011 -0.5711  0.1883
20157TIP3   OH281961   6.414   1.673  14.971 -0.5179  0.0694  0.0054
20157TIP3    H181962   6.498   1.657  15.014 -0.7574 -0.4219  0.3017
20157TIP3    H281963   6.360   1.715  15.038 -0.1373  1.4903 -0.5428
20158TIP3   OH281964   5.170   0.834   4.335 -0.4743 -0.0480  0.1906
20158TIP3    H181965   5.201   0.748   4.362 -1.6195 -1.2375 -1.9942
20158TIP3    H281966   5.181   0.835   4.240  0.9141  2.8422  0.2682
20159TIP3   OH281967   6.468   3.754   2.870  0.0314 -0.3030  0.0431
20159TIP3    H181968   6.381   3.790   2.887  0.6827  0.7512  1.3205
20159TIP3    H281969   6.451   3.674   2.819 -1.6576 -0.0234  0.1028
20160TIP3   OH281970   6.732   0.486   4.639  0.6138  0.2576 -0.5170
20160TIP3    H181971   6.708   0.551   4.705 -1.3251 -0.7462 -0.1696
20160TIP3    H281972   6.806   0.440   4.678  1.4761  1.6686 -0.4057
20161TIP3   OH281973   3.115   4.625   2.241  0.4115 -0.6650 -0.4087
20161TIP3    H181974   3.050   4.685   2.278  0.6505  0.9131 -2.3329
20161TIP3    H281975   3.068   4.543   2.229 -0.4902 -0.3128  0.5869
20162TIP3   OH281976   1.779   6.204   4.496  0.3243  0.3590  0.2938
20162TIP3    H181977   1.831   6.172   4.570 -0.7195 -2.7019 -0.1075
20162TIP3    H281978   1.689   6.182   4.520 -0.2057  0.7424 -1.2273
20163TIP3   OH281979   2.336   3.132   3.068 -0.0763  0.4284 -0.0070
20163TIP3    H181980   2.421   3.090   3.053 -0.8592 -1.1240 -0.2583
20163TIP3    H281981   2.350   3.186   3.146  1.1449  0.2399 -0.0727
20164TIP3   OH281982   3.694   5.888  13.998 -0.0770 -0.4723 -0.3086
20164TIP3    H181983   3.707   5.901  13.904  0.8197  0.4509 -0.0644
20164TIP3    H281984   3.602   5.911  14.013 -0.1652 -0.4150 -0.9140
20165TIP3   OH281985   2.850   1.273   3.197 -0.0041 -0.3057  0.3243
20165TIP3    H181986   2.772   1.223   3.172  0.7738 -0.7367 -1.3279
20165TIP3    H281987   2.890   1.299   3.115  0.2014  2.1905  1.1257
20166TIP3   OH281988   5.397   0.057   5.355  0.7509  0.1984  0.4949
20166TIP3    H181989   5.387   0.144   5.394 -0.4070  1.1522 -1.6778
20166TIP3    H281990   5.480   0.061   5.307 -0.3740  1.0254 -1.5240
20167TIP3   OH281991   5.627   4.320   2.662  0.6574  0.0066  0.4700
20167TIP3    H181992   5.567   4.298   2.734 -1.0502  0.8455 -0.6323
20167TIP3    H281993   5.670   4.400   2.691 -0.1292  0.4210  0.5287
20168TIP3   OH281994   6.205   3.202   5.957  0.2093  0.2553 -0.1928
20168TIP3    H181995   6.261   3.242   5.891 -0.9645  1.0286 -0.7401
20168TIP3    H281996   6.242   3.114   5.969  2.3815  1.1754  0.4837
20169TIP3   OH281997   2.769   3.809  11.209 -0.3514 -0.0620  0.0598
20169TIP3    H181998   2.777   3.903  11.194  2.2748 -0.1940  0.1477
20169TIP3    H281999   2.785   3.799  11.302  0.6152 -0.6665 -0.1576
20170TIP3   OH282000   2.228   0.951   4.912 -0.4198  0.2617  0.0510
20170TIP3    H182001   2.193   1.040   4.916 -0.0395  0.4015  3.7753
20170TIP3    H282002   2.162   0.897   4.956  0.6779 -0.7652  0.4823
20171TIP3   OH282003   6.002   6.309   4.067  0.1956  0.4655  0.0050
20171TIP3    H182004   6.018   6.401   4.043 -0.2885  0.5110 -0.1634
20171TIP3    H282005   5.907   6.304   4.078  0.3631  0.3540  1.5946
20172TIP3   OH282006   6.614   5.436   2.666 -0.1389  0.4263 -0.0223
20172TIP3    H182007   6.677   5.502   2.693 -0.5350  1.3353 -1.2334
20172TIP3    H282008   6.660   5.384   2.601 -0.5069  0.8721 -0.6509
20173TIP3   OH282009   2.184   0.660   3.177  0.8545 -0.3239 -0.3683
20173TIP3    H182010   2.107   0.696   3.134  0.9327 -0.6888 -0.8294
20173TIP3    H282011   2.226   0.606   3.109  0.8025 -1.1729  0.2553
20174TIP3   OH282012   0.811   0.786  11.298  0.5388  0.2576  0.2440
20174TIP3    H182013   0.758   0.865  11.295  0.1003 -0.0192  0.5334
20174TIP3    H282014   0.901   0.817  11.286  0.1522  0.4986 -2.7663
20175TIP3   OH282015   1.536   6.252  16.786  0.2035 -0.0300 -0.2811
20175TIP3    H182016   1.453   6.249  16.738  0.1560 -0.7021 -0.1683
20175TIP3    H282017   1.529   6.331  16.840 -0.7760 -0.5805  0.4395
20176TIP3   OH282018   6.128   4.893   3.541  0.5136 -0.1283 -0.8417
20176TIP3    H182019   6.110   4.854   3.626  0.8558 -0.7894 -1.0696
20176TIP3    H282020   6.188   4.965   3.560  2.0108 -1.3638 -0.6975
20177TIP3   OH282021   1.332   6.047  11.377  0.1181 -0.0718  0.4065
20177TIP3    H182022   1.317   5.985  11.447  2.7654 -0.5152  0.6772
20177TIP3    H282023   1.424   6.073  11.386  0.6030 -0.1694 -2.8807
20178TIP3   OH282024   6.315   3.158  11.378 -0.5353 -0.0285 -0.4750
20178TIP3    H182025   6.382   3.106  11.333  0.8319  2.5044 -1.5463
20178TIP3    H282026   6.360   3.238  11.405 -2.8816  1.3439 -0.3223
20179TIP3   OH282027   0.857   2.625  15.913  0.0235 -0.1404  0.3653
20179TIP3    H182028   0.791   2.588  15.971 -0.7814  1.2970  0.4168
20179TIP3    H282029   0.828   2.602  15.825 -0.2666  0.0312  0.4146
20180TIP3   OH282030   4.625   3.483   4.486 -0.2765 -0.4658  0.0328
20180TIP3    H182031   4.615   3.536   4.565  3.5918 -0.9083  1.0080
20180TIP3    H282032   4.685   3.534   4.431  1.7049 -2.6636 -0.0035
20181TIP3   OH282033   2.121   3.959  12.470  0.3139  0.1291 -0.3156
20181TIP3    H182034   2.192   3.969  12.407  0.5680 -0.7985 -0.1888
20181TIP3    H282035   2.068   4.038  12.459  0.3398 -0.0202 -1.7175
20182TIP3   OH282036   5.664   2.078  13.429 -0.4546  0.5773  0.4601
20182TIP3    H182037   5.721   2.066  13.353 -0.2868  0.2058  0.6405
20182TIP3    H282038   5.722   2.068  13.504 -0.9250 -0.8834  0.6693
20183TIP3   OH282039   1.623   4.064   4.278  0.6537  0.4747 -0.0882
20183TIP3    H182040   1.675   4.011   4.339  1.8749  2.6482  0.8596
20183TIP3    H282041   1.659   4.043   4.192  0.5902 -0.7930  0.1786
20184TIP3   OH282042   2.480   1.849  12.127  0.2789 -0.9875  0.5243
20184TIP3    H182043   2.543   1.859  12.057 -0.0079  0.2429  0.4168
20184TIP3    H282044   2.450   1.758  12.121  0.1604 -0.8627 -1.0241
20185TIP3   OH282045   5.611   1.682   5.112 -0.6312 -0.0088 -0.1649
20185TIP3    H182046   5.593   1.699   5.204  1.1441  0.1629  0.1887
20185TIP3    H282047   5.688   1.624   5.113 -0.1029  0.6203 -1.5420
20186TIP3   OH282048   4.261   6.086  16.261  0.3752  0.0250  0.1608
20186TIP3    H182049   4.264   5.991  16.259 -0.4529 -0.0254  0.5906
20186TIP3    H282050   4.336   6.112  16.315  0.0807 -0.4333  0.8007
20187TIP3   OH282051   3.340   6.231   3.125 -0.4433  0.3741 -0.2367
20187TIP3    H182052   3.390   6.227   3.043  0.2239  1.1264  0.1159
20187TIP3    H282053   3.262   6.178   3.108  0.0098 -0.0408 -1.1285
20188TIP3   OH282054   6.214   3.431   0.595  0.1834  0.4530  0.4324
20188TIP3    H182055   6.181   3.481   0.520 -0.6671  1.1065  1.2161
20188TIP3    H282056   6.302   3.465   0.609  0.0826  0.8361  0.1735
20189TIP3   OH282057   1.376   5.347  13.893 -0.1385 -0.3043 -0.5504
20189TIP3    H182058   1.361   5.356  13.799  0.2155  1.5895 -0.4758
20189TIP3    H282059   1.470   5.361  13.903 -0.0712 -1.1412  0.0375
20190TIP3   OH282060   4.806   6.260  10.948 -0.1577  0.2706 -0.0116
20190TIP3    H182061   4.722   6.249  10.903 -0.4835 -0.0314  0.6569
20190TIP3    H282062   4.804   6.195  11.019  0.1196  1.0831  0.7619
20191TIP3   OH282063   3.248   0.447   5.417  0.1164  0.2578  0.2425
20191TIP3    H182064   3.266   0.479   5.328 -0.7167  0.1767  0.0333
20191TIP3    H282065   3.304   0.369   5.426  1.2674  1.0695  0.3251
20192TIP3   OH282066   2.856   3.703  15.330 -0.8677 -0.1772 -0.1107
20192TIP3    H182067   2.843   3.656  15.247 -0.9901  0.6593 -0.5823
20192TIP3    H282068   2.847   3.636  15.397  0.2080 -1.0591 -0.8149
20193TIP3   OH282069   5.997   4.080  10.659  0.1587 -0.8102  0.0773
20193TIP3    H182070   6.033   4.155  10.611  1.8416 -2.6593 -1.7571
20193TIP3    H282071   5.928   4.046  10.602 -2.2632  0.5770  1.9657
20194TIP3   OH282072   3.185   4.967  11.057  0.1180 -0.6007 -0.2228
20194TIP3    H182073   3.216   4.897  10.999  1.0963 -0.0633 -0.3743
20194TIP3    H282074   3.178   4.926  11.143  0.2766 -0.9902 -0.3930
20195TIP3   OH282075   5.919   6.045  14.088 -0.0353 -0.3088 -0.2594
20195TIP3    H182076   5.889   6.136  14.092  0.1856 -0.2593  0.6543
20195TIP3    H282077   5.944   6.032  13.997 -1.0816  0.2128 -0.6357
20196TIP3   OH282078   1.212   2.672  16.368  0.5385 -0.1423 -0.1360
20196TIP3    H182079   1.298   2.630  16.368  0.5152 -0.1925 -0.3989
20196TIP3    H282080   1.201   2.705  16.279  0.2669 -0.1814 -0.1199
20197TIP3   OH282081   5.880   1.753  14.776 -0.2665 -0.4397  0.5111
20197TIP3    H182082   5.970   1.721  14.784 -0.1869 -0.3348  0.0745
20197TIP3    H282083   5.842   1.699  14.706 -0.9652 -1.4142  1.6105
20198TIP3   OH282084   5.733   1.827  11.564 -0.3214  0.0142  0.4318
20198TIP3    H182085   5.735   1.769  11.488 -1.5052  0.0717  0.3398
20198TIP3    H282086   5.806   1.887  11.551  0.0876 -0.6035 -0.1547
20199TIP3   OH282087   2.192   1.418  13.676 -0.1097 -0.0321 -0.1169
20199TIP3    H182088   2.266   1.370  13.637  0.0680  0.1482  0.0004
20199TIP3    H282089   2.212   1.510  13.660  0.8230  0.1645  1.9072
20200TIP3   OH282090   3.807   4.987   0.921  0.9176 -0.2867  0.3461
20200TIP3    H182091   3.812   4.895   0.949 -0.2356 -0.2101  0.8560
20200TIP3    H282092   3.871   5.032   0.976  0.4724 -0.5586  1.1031
20201TIP3   OH282093   2.705   6.135   0.056 -0.2213 -0.0706  0.4254
20201TIP3    H182094   2.788   6.098   0.024 -1.0904 -2.2190  0.4819
20201TIP3    H282095   2.731   6.191   0.129  1.2138 -0.5768  0.3482
20202TIP3   OH282096   0.076   4.259  14.733 -0.1121 -0.4257 -0.7554
20202TIP3    H182097   0.048   4.343  14.770 -0.6067 -1.2466  0.7843
20202TIP3    H282098   0.142   4.227  14.794  1.5759 -0.2473 -2.3990
20203TIP3   OH282099   0.660   1.997  16.543  0.5376  0.0281 -0.2674
20203TIP3    H182100   0.666   2.020  16.636  0.6494 -1.2931  0.0732
20203TIP3    H282101   0.730   1.933  16.529  0.2276 -0.1352 -1.1480
20204TIP3   OH282102   2.509   2.441   4.243 -0.0610  0.0094 -0.6514
20204TIP3    H182103   2.548   2.514   4.195 -0.2581  1.7530  1.7002
20204TIP3    H282104   2.563   2.432   4.321 -0.3187 -2.1054 -0.6637
20205TIP3   OH282105   1.028   4.066  11.626  0.1298  0.1386 -0.4329
20205TIP3    H182106   1.036   4.016  11.708 -0.4934 -1.2379 -1.1846
20205TIP3    H282107   1.026   3.999  11.558  2.5336  1.3234 -1.7598
20206TIP3   OH282108   5.036   0.165   1.123 -0.2507 -0.6063 -0.0754
20206TIP3    H182109   5.067   0.108   1.053  1.5436 -0.2862  0.4010
20206TIP3    H282110   5.038   0.110   1.201 -0.0365 -0.3287  0.1165
20207TIP3   OH282111   0.872   1.889   6.424 -0.5625  0.4378  0.1586
20207TIP3    H182112   0.953   1.840   6.409 -0.7809  0.0690  0.1571
20207TIP3    H282113   0.899   1.981   6.422 -0.4193  0.3936 -1.5732
20208TIP3   OH282114   1.049   0.423  14.907  0.6845  0.2439  0.1720
20208TIP3    H182115   1.012   0.508  14.884 -0.6319 -0.1629  0.6695
20208TIP3    H282116   1.086   0.436  14.994 -0.5219  0.0584  0.7410
20209TIP3   OH282117   1.231   2.944   3.277 -0.2519  0.2609 -0.0172
20209TIP3    H182118   1.317   2.902   3.268  0.5319  1.6011  0.8521
20209TIP3    H282119   1.177   2.903   3.210  1.0835 -0.5955 -0.6038
20210TIP3   OH282120   3.077   3.598  15.908 -0.1182  0.2267  0.2596
20210TIP3    H182121   3.173   3.601  15.909 -0.1371  1.6703  1.2328
20210TIP3    H282122   3.056   3.509  15.881  1.5004 -0.0778 -0.1011
20211TIP3   OH282123   6.018   6.572  11.228  0.5336 -0.1025  0.5033
20211TIP3    H182124   5.981   6.656  11.255  0.3907  0.0044 -0.0033
20211TIP3    H282125   6.110   6.576  11.255  0.5361  0.2339  0.4516
20212TIP3   OH282126   0.150   2.082   1.312  0.6268 -0.2870 -0.3656
20212TIP3    H182127   0.150   1.991   1.343  0.3076 -0.3779 -0.6257
20212TIP3    H282128   0.061   2.097   1.282  0.9222 -0.2040 -1.2301
20213TIP3   OH282129   3.949   6.685   1.266 -0.1247 -0.3111 -0.7563
20213TIP3    H182130   3.966   6.681   1.172 -0.2351 -1.2430 -0.7474
20213TIP3    H282131   3.920   6.597   1.289 -0.3537 -0.0243  0.1069
20214TIP3   OH282132   0.491   6.428   4.809  0.2602  0.1809 -0.7944
20214TIP3    H182133   0.451   6.482   4.741 -2.9582 -1.3180 -0.2967
20214TIP3    H282134   0.518   6.348   4.764 -0.5876 -0.2432 -0.5634
20215TIP3   OH282135   6.400   1.969   2.169  0.4607  0.1019 -0.0154
20215TIP3    H182136   6.458   2.004   2.237  2.0405 -1.5345 -0.4520
20215TIP3    H282137   6.425   1.877   2.160  0.1910  0.2017 -2.6887
20216TIP3   OH282138   1.527   3.315  10.200 -0.2384 -0.2849  0.1475
20216TIP3    H182139   1.547   3.401  10.162 -0.4663 -0.0973  0.4520
20216TIP3    H282140   1.514   3.258  10.124  0.1088 -0.0994 -0.0548
20217TIP3   OH282141   3.059   3.138  10.225  0.4595  0.4409 -0.1243
20217TIP3    H182142   3.114   3.063  10.198 -0.8382 -0.6325  0.1194
20217TIP3    H282143   3.116   3.214  10.214  2.3955 -0.7345  1.2576
20218TIP3   OH282144   4.326   4.301   4.784  0.0250  0.9218  0.0293
20218TIP3    H182145   4.356   4.271   4.869 -0.8761 -1.2524 -0.3508
20218TIP3    H282146   4.368   4.241   4.722  1.4777  3.0804 -1.1865
20219TIP3   OH282147   3.447   2.799  14.080  0.0387  0.1898  0.0407
20219TIP3    H182148   3.391   2.770  14.152  0.3751 -2.5962 -0.7275
20219TIP3    H282149   3.523   2.742  14.084 -0.0589 -0.2448 -2.6729
20220TIP3   OH282150   2.537   1.419   2.810  0.0687 -0.3273 -0.1980
20220TIP3    H182151   2.548   1.324   2.798  0.3311 -0.2837 -0.3134
20220TIP3    H282152   2.443   1.433   2.803  0.1111 -0.4578 -1.0896
20221TIP3   OH282153   2.582   4.470  12.619 -0.1260 -0.1633 -0.7831
20221TIP3    H182154   2.508   4.450  12.560 -0.5161  0.4793 -0.5213
20221TIP3    H282155   2.586   4.566  12.620  0.9121 -0.1915 -1.0265
20222TIP3   OH282156   0.169   4.523   1.459  0.8767 -0.8731  0.3533
20222TIP3    H182157   0.087   4.533   1.509  1.2623  1.8694  0.6163
20222TIP3    H282158   0.141   4.493   1.373 -0.2552 -1.3117  0.8484
20223TIP3   OH282159   3.695   1.040  12.527 -0.0237  0.0684  0.0385
20223TIP3    H182160   3.741   0.957  12.521  0.3789  0.1550  1.5366
20223TIP3    H282161   3.729   1.081  12.606 -1.8421  0.6537  0.5789
20224TIP3   OH282162   6.400   1.869  10.652  0.7936 -0.4225  0.5928
20224TIP3    H182163   6.451   1.816  10.712  2.1266 -0.8594 -0.8482
20224TIP3    H282164   6.392   1.955  10.695  1.4356 -0.8112  1.5039
20225TIP3   OH282165   4.809   0.022  15.025 -0.9042  0.3740  0.5094
20225TIP3    H182166   4.840  -0.069  15.023  0.4505  0.8259 -1.0129
20225TIP3    H282167   4.747   0.027  14.952 -0.5069  0.8272  0.2035
20226TIP3   OH282168   5.772   2.753   5.347 -0.0180 -0.0966  0.5051
20226TIP3    H182169   5.864   2.742   5.324  0.4303  1.9900  1.1839
20226TIP3    H282170   5.747   2.668   5.384  2.2334 -0.0577  2.3275
20227TIP3   OH282171   2.408   4.740  13.700 -0.4464  0.3272 -0.4011
20227TIP3    H182172   2.473   4.801  13.735 -0.6803 -1.0080  2.7136
20227TIP3    H282173   2.457   4.685  13.639  1.1379  0.0781  1.0228
20228TIP3   OH282174   1.271   2.927  13.084 -0.1038 -0.7330  0.4155
20228TIP3    H182175   1.224   2.849  13.114 -0.7524 -0.8888 -0.9345
20228TIP3    H282176   1.318   2.958  13.162 -1.6881 -1.1161  1.5762
20229TIP3   OH282177   4.029   1.038  16.328  0.0356 -0.2235  0.3120
20229TIP3    H182178   4.020   0.944  16.347  0.1419 -0.2374  0.2943
20229TIP3    H282179   4.075   1.073  16.405  0.1786 -0.2232  0.2271
20230TIP3   OH282180   5.721   0.062   1.258 -0.6298 -0.0412 -0.2053
20230TIP3    H182181   5.693  -0.022   1.222 -0.9974  0.4359 -1.0658
20230TIP3    H282182   5.778   0.039   1.331  1.0341 -1.0704 -1.7346
20231TIP3   OH282183   5.243   4.411  17.139 -0.7142 -0.2486  0.3918
20231TIP3    H182184   5.181   4.342  17.119  0.2669 -0.8711 -0.6623
20231TIP3    H282185   5.210   4.487  17.091  0.1465 -1.0065 -1.5254
20232TIP3   OH282186   0.274   4.626  15.910  0.1535  0.1043  0.0297
20232TIP3    H182187   0.363   4.649  15.883  0.3700 -0.9639 -0.2297
20232TIP3    H282188   0.218   4.668  15.845  0.5859 -0.9998 -1.0997
20233TIP3   OH282189   5.587   2.234   3.686  0.0566  0.2536 -0.3120
20233TIP3    H182190   5.671   2.249   3.642  0.3975  0.0025  0.2293
20233TIP3    H282191   5.600   2.151   3.733 -0.5542  0.1267 -0.3670
20234TIP3   OH282192   2.121   2.472  13.489  0.2644  0.2806 -0.0407
20234TIP3    H182193   2.120   2.534  13.562 -0.3887  0.2039  0.0158
20234TIP3    H282194   2.158   2.522  13.416 -1.0961  1.0269 -0.2463
20235TIP3   OH282195   3.325   5.715   3.516 -0.1103  0.2559  0.1826
20235TIP3    H182196   3.276   5.689   3.438  0.7299 -0.3551 -0.1620
20235TIP3    H282197   3.310   5.644   3.578  0.2367  0.1185  0.1135
20236TIP3   OH282198   1.170   1.911   5.878 -0.7215  0.0225 -0.5363
20236TIP3    H182199   1.096   1.865   5.839 -0.8833 -1.0916  1.0375
20236TIP3    H282200   1.231   1.842   5.904 -1.4429  0.5153  2.8693
20237TIP3   OH282201   1.225   5.855   2.723  0.0312  0.2364  0.1318
20237TIP3    H182202   1.158   5.826   2.662  0.8509 -0.4267 -0.4696
20237TIP3    H282203   1.219   5.951   2.721 -0.6325  0.1921 -0.2036
20238TIP3   OH282204   4.635   4.000  13.119 -0.3860 -0.3123 -0.4309
20238TIP3    H182205   4.646   3.910  13.150  0.4139 -0.2799 -0.6005
20238TIP3    H282206   4.672   3.999  13.030  1.5724  0.6579  0.3140
20239TIP3   OH282207   1.187   4.171  12.554  0.0439  0.1234  0.3530
20239TIP3    H182208   1.236   4.116  12.616 -0.3844 -0.8060 -0.1096
20239TIP3    H282209   1.253   4.200  12.491  0.1774 -0.3516  0.2654
20240TIP3   OH282210   5.274   3.501   0.018  0.0902 -0.3657 -0.5060
20240TIP3    H182211   5.254   3.467  -0.069  0.5088  1.5834 -1.4316
20240TIP3    H282212   5.369   3.515   0.018 -0.0794  0.9727 -0.2814
20241TIP3   OH282213   1.238   4.716   0.792 -1.0100  0.3816 -0.0079
20241TIP3    H182214   1.274   4.678   0.712 -1.5502  0.0166 -0.0817
20241TIP3    H282215   1.145   4.695   0.789 -0.9563 -0.0563  0.9486
20242TIP3   OH282216   1.049   2.077   4.546 -0.1296  0.1029  0.6039
20242TIP3    H182217   0.978   2.082   4.483 -0.1897  0.9122  0.7278
20242TIP3    H282218   1.007   2.052   4.628 -0.0907 -0.6596  0.4014
20243TIP3   OH282219   3.012   2.276  14.433  0.4918 -0.3237  0.0155
20243TIP3    H182220   3.041   2.235  14.352 -0.5710  0.5944 -0.8566
20243TIP3    H282221   2.994   2.367  14.410  0.4482  0.0386  1.3537
20244TIP3   OH282222   3.537   4.431   2.838  0.4535  0.1140 -0.4975
20244TIP3    H182223   3.501   4.422   2.750  0.4097 -0.3461 -0.4334
20244TIP3    H282224   3.471   4.480   2.886  0.4652  0.3433 -0.7117
20245TIP3   OH282225   0.203   0.050   3.532  0.5315  0.1161  0.1649
20245TIP3    H182226   0.187  -0.045   3.536 -2.2434  0.5294  0.9153
20245TIP3    H282227   0.209   0.077   3.623  0.8930  0.7210 -0.0354
20246TIP3   OH282228   4.378   5.574  13.092 -0.5199 -0.6354 -0.3487
20246TIP3    H182229   4.362   5.663  13.062 -0.7815  0.8180  3.5813
20246TIP3    H282230   4.290   5.536  13.101 -0.5034 -0.6745 -0.3487
20247TIP3   OH282231   2.376   1.885   0.164 -0.5878  0.8487 -0.1612
20247TIP3    H182232   2.379   1.789   0.161 -2.0719  0.7769  0.0225
20247TIP3    H282233   2.468   1.912   0.159 -0.0391 -0.6148  1.2195
20248TIP3   OH282234   2.686   1.508   3.012 -0.2564 -0.5024  0.4288
20248TIP3    H182235   2.780   1.494   2.997 -0.2284 -1.5502  1.4611
20248TIP3    H282236   2.644   1.467   2.937  0.1124  0.3927 -0.2881
20249TIP3   OH282237   6.249   6.136   5.240  0.1025  0.4130 -0.5970
20249TIP3    H182238   6.187   6.172   5.177  0.3905  1.2754 -0.3993
20249TIP3    H282239   6.332   6.177   5.219  0.3479  0.1986 -0.0828
20250TIP3   OH282240   6.016   5.295   2.013  0.3170  0.3440 -0.2740
20250TIP3    H182241   5.951   5.304   2.083 -0.7792  0.7488 -1.2926
20250TIP3    H282242   6.078   5.230   2.045 -0.0814  0.6067  1.1095
20251TIP3   OH282243   3.850   1.065  11.656 -0.6879  0.2218  0.3429
20251TIP3    H182244   3.762   1.095  11.679 -0.7490 -0.3791  0.9349
20251TIP3    H282245   3.837   1.003  11.585 -0.6986  0.4938  0.1086
20252TIP3   OH282246   6.121   5.729   1.101  0.3477 -0.3884 -0.0423
20252TIP3    H182247   6.117   5.790   1.027 -1.9803  0.6550  0.8338
20252TIP3    H282248   6.121   5.643   1.060  1.9034  0.1435 -1.2802
20253TIP3   OH282249   0.695   0.114   4.570  0.2909  0.3658  0.0697
20253TIP3    H182250   0.726   0.181   4.631 -0.0780  0.6929 -0.0983
20253TIP3    H282251   0.689   0.160   4.486  2.8280 -0.5536 -0.7283
20254TIP3   OH282252   1.206   1.881  12.748 -0.2847 -0.3630 -0.2436
20254TIP3    H182253   1.259   1.956  12.775 -0.7008 -0.1073 -0.1335
20254TIP3    H282254   1.172   1.905  12.662  1.1032 -1.2100 -1.0649
20255TIP3   OH282255   6.826   3.692  12.429 -0.0969  1.0801  0.7643
20255TIP3    H182256   6.870   3.629  12.485 -1.8886 -0.3656  0.6296
20255TIP3    H282257   6.897   3.744  12.391  1.3040  0.4121  2.3435
20256TIP3   OH282258   0.775   5.405  13.829 -0.2038 -0.4569 -0.3391
20256TIP3    H182259   0.762   5.453  13.911  3.2324 -2.7638  1.8275
20256TIP3    H282260   0.697   5.350  13.821 -0.6250 -0.1784  1.3974
20257TIP3   OH282261   5.412   6.751   5.619  0.1249  0.0639 -0.2829
20257TIP3    H182262   5.347   6.776   5.686  0.3204 -1.7701  0.6551
20257TIP3    H282263   5.373   6.780   5.536 -2.7743 -2.4126  0.0220
20258TIP3   OH282264   5.521   0.867   3.618 -0.1392  1.0047  0.5842
20258TIP3    H182265   5.528   0.952   3.662  0.5679  1.3753 -0.2056
20258TIP3    H282266   5.487   0.887   3.531 -0.0978  0.4630  0.4384
20259TIP3   OH282267   4.947   0.722  12.486  0.0787 -0.0823 -1.0169
20259TIP3    H182268   5.036   0.733  12.453  0.4821  0.0627  0.0832
20259TIP3    H282269   4.934   0.627  12.490 -0.6884 -0.1511 -3.3748
20260LIG      O82270   3.434   3.716  16.333 -0.5056  0.2845 -0.1540
20260LIG      N82271   3.327   3.296  16.301 -0.0862 -0.5517 -0.0877
20260LIG     C182272   3.437   3.707  16.576  0.3150 -0.0668  0.4069
20260LIG     C282273   3.471   3.632  16.445  1.1209  0.6451  0.4063
20260LIG     C382274   3.543   3.818  16.615 -0.3865 -0.3437 -0.2205
20260LIG     C482275   3.297   3.763  16.596  0.1744 -0.5312 -0.1019
20260LIG     C582276   3.382   3.506  16.430  0.4803  0.6032  0.1908
20260LIG     C682277   3.520   3.884  16.747 -0.6989  0.2893 -0.7428
20260LIG     C782278   3.276   3.847  16.722  0.2675  0.2155 -0.1450
20260LIG     C882279   3.382   3.951  16.752 -0.0808 -0.1957 -0.8462
20260LIG     C982280   3.405   3.426  16.295  0.3811 -0.0496 -0.3311
20260LIG    C1082281   3.624   3.591  16.429  0.6845  0.0732  0.4574
20260LIG    C1182282   3.180   3.309  16.290  0.4646  0.1397  0.8283
20260LIG    C1282283   3.379   3.199  16.204 -0.8790  0.1459  0.0820
20260LIG    C1382284   3.135   3.362  16.149  0.3076  0.4037 -0.6561
20260LIG    C1482285   3.340   3.245  16.059 -0.2276  0.6868  0.0132
20260LIG    C1582286   3.191   3.273  16.041  0.2453 -0.2765  0.2048
20260LIG    C1682287   3.688   3.525  16.540  0.1562  0.5330  0.2801
20260LIG    C1782288   3.709   3.625  16.322 -0.2287  0.3804  0.5063
20260LIG    C1882289   3.827   3.502  16.547 -0.7508  0.0080  0.3546
20260LIG    C1982290   3.849   3.594  16.321 -0.2441  0.3007 -0.3192
20260LIG    C2082291   3.910   3.533  16.437  0.7121 -0.1496  0.6897
20260LIG     H182292   3.454   3.630  16.654  2.5301  0.9686  1.0243
20260LIG     H282293   3.539   3.891  16.531 -0.4896  1.5631  1.3723
20260LIG     H382294   3.645   3.775  16.608 -1.1376 -2.2213 -0.1778
20260LIG     H482295   3.217   3.686  16.593 -1.9459  1.5658 -1.5033
20260LIG     H582296   3.279   3.826  16.506  0.5610  0.0960  0.2457
20260LIG     H682297   3.279   3.539  16.453  0.9617  1.6830  0.9035
20260LIG     H782298   3.416   3.426  16.500 -1.4236 -0.6532 -0.2425
20260LIG     H882299   3.599   3.958  16.772  0.6260 -0.9984 -1.0152
20260LIG     H982300   3.531   3.816  16.833 -0.8958 -0.2156 -1.1138
20260LIG    H1082301   3.271   3.777  16.808 -0.4613  2.1615  1.4759
20260LIG    H1182302   3.174   3.886  16.705 -1.4518 -2.6937  2.3845
20260LIG    H1282303   3.380   4.041  16.686  0.0300  1.4920  1.3412
20260LIG    H1382304   3.370   3.982  16.858  0.1825 -0.7796 -0.6464
20260LIG    H1482305   3.380   3.472  16.197 -1.6543 -1.4179 -0.5086
20260LIG    H1582306   3.516   3.413  16.291  0.2922 -0.4525 -2.6225
20260LIG    H1682307   3.134   3.388  16.353 -0.8389  1.4262 -1.5974
20260LIG    H1782308   3.136   3.210  16.315  2.3276 -1.1658 -0.7090
20260LIG    H1882309   3.332   3.100  16.225 -3.3181  1.0546 -0.7385
20260LIG    H1982310   3.489   3.189  16.208 -0.6181  0.1131 -3.7934
20260LIG    H2082311   3.487   3.795  16.343  1.4005 -0.6456 -1.9334
20260LIG    H2182312   3.170   3.466  16.133 -1.8223  1.3037  0.2326
20260LIG    H2282313   3.024   3.369  16.142  0.1700 -0.4759  0.5251
20260LIG    H2382314   3.367   3.152  16.004 -0.9256 -1.1628  2.5979
20260LIG    H2482315   3.397   3.334  16.026 -0.2984  1.7322  2.4620
20260LIG    H2582316   3.170   3.322  15.943  0.3165  0.0779  0.3635
20260LIG    H2682317   3.125   3.184  16.030 -0.8894  0.8076 -2.6857
20260LIG    H2782318   3.628   3.494  16.624 -0.8390 -1.2710 -1.0202
20260LIG    H2882319   3.673   3.686  16.241  1.2126  2.9862  1.6985
20260LIG    H2982320   3.882   3.467  16.633  2.0753  1.2734 -0.8084
20260LIG    H3082321   3.906   3.635  16.239 -2.4222  1.2935 -1.4219
20260LIG    H3182322   4.018   3.530  16.442  0.8644 -0.2249 -1.5178
   6.82966   6.82966  17.27422
